<event>
 8    1  0.2846344E+004  0.1043930E+01  0.7957747E-01            NaN
         13   -1    0    0    0    0  0.00000000000E+00  0.00000000000E+00  0.74505805969E-08  0.10566000000E+00  0.10566000000E+00 0. -1.
     999900   -1    0    0    0    0 -0.00000000000E+00 -0.00000000000E+00 -0.74505805969E-08  0.93827000000E+00  0.93827000000E+00 0. -1.
     999902    2    1    2    0    0 -0.14903035727E-01  0.13097086141E-04  0.39554850056E-02  0.10285109693E+01  0.10283953848E+01 0.  0.
     999903    2    3    3    0    0 -0.28585209420E-01 -0.12725580244E+00 -0.13719825076E-01  0.13907463588E+00  0.46285713683E-01 0.  0.
         14    1    1    2    0    0  0.14903035727E-01 -0.13097086141E-04 -0.39554850056E-02  0.15419030678E-01  0.00000000000E+00 0. -1.
     999901    1    3    3    0    0  0.13682173693E-01  0.12726889953E+00  0.17675310082E-01  0.88943633344E+00  0.88000000000E+00 0. -1.
        -11    1    4    4    0    0 -0.30765314694E-01 -0.74223589289E-01 -0.26265420364E-01  0.84532710964E-01  0.51100000000E-03 0.  1.
         11    1    4    4    0    0  0.21801052737E-02 -0.53032213155E-01  0.12545595287E-01  0.54541924913E-01  0.51100000000E-03 0. -1.
</event>
<event>
 8    1  0.2846344E+004  0.1043930E+01  0.7957747E-01            NaN
         13   -1    0    0    0    0  0.00000000000E+00  0.00000000000E+00  0.74505805969E-08  0.10566000000E+00  0.10566000000E+00 0. -1.
     999900   -1    0    0    0    0 -0.00000000000E+00 -0.00000000000E+00 -0.74505805969E-08  0.93827000000E+00  0.93827000000E+00 0. -1.
     999902    2    1    2    0    0 -0.34604711642E-02 -0.10758636302E-01 -0.80599391566E-02  0.10300488713E+01  0.10299553347E+01 0.  0.
     999903    2    3    3    0    0 -0.74793230053E-01 -0.10180014038E+00 -0.45808822615E-01  0.14167851147E+00  0.44911652611E-01 0.  0.
         14    1    1    2    0    0  0.34604711642E-02  0.10758636302E-01  0.80599391566E-02  0.13881128735E-01  0.00000000000E+00 0. -1.
     999901    1    3    3    0    0  0.71332758889E-01  0.91041504079E-01  0.37748883458E-01  0.88837035979E+00  0.88000000000E+00 0. -1.
        -11    1    4    4    0    0 -0.28876577194E-01 -0.74402124474E-01 -0.34885688746E-01  0.87102268840E-01  0.51100000000E-03 0. -1.
         11    1    4    4    0    0 -0.45916652858E-01 -0.27398015907E-01 -0.10923133869E-01  0.54576242632E-01  0.51100000000E-03 0.  1.
</event>
<event>
 8    1  0.2846344E+004  0.1043930E+01  0.7957747E-01            NaN
         13   -1    0    0    0    0  0.00000000000E+00  0.00000000000E+00  0.74505805969E-08  0.10566000000E+00  0.10566000000E+00 0. -1.
     999900   -1    0    0    0    0 -0.00000000000E+00 -0.00000000000E+00 -0.74505805969E-08  0.93827000000E+00  0.93827000000E+00 0. -1.
     999902    2    1    2    0    0 -0.78363935161E-02 -0.87234238573E-02  0.74421935956E-02  0.10300413920E+01  0.10299477539E+01 0.  0.
     999903    2    3    3    0    0  0.56349370504E-01  0.60201849329E-01 -0.10157015842E+00  0.13832720096E+00  0.44926642696E-01 0.  0.
         14    1    1    2    0    0  0.78363935161E-02  0.87234238573E-02 -0.74421935956E-02  0.13888608017E-01  0.00000000000E+00 0.  1.
     999901    1    3    3    0    0 -0.64185764020E-01 -0.68925273186E-01  0.10901235202E+00  0.89171419103E+00  0.88000000000E+00 0.  1.
        -11    1    4    4    0    0  0.45177944412E-01  0.55050186747E-01 -0.54512071936E-01  0.89684986647E-01  0.51100000000E-03 0. -1.
         11    1    4    4    0    0  0.11171426092E-01  0.51516625824E-02 -0.47058086485E-01  0.48642214309E-01  0.51100000000E-03 0.  1.
</event>
<event>
 8    1  0.2846344E+004  0.1043930E+01  0.7957747E-01            NaN
         13   -1    0    0    0    0  0.00000000000E+00  0.00000000000E+00  0.74505805969E-08  0.10566000000E+00  0.10566000000E+00 0. -1.
     999900   -1    0    0    0    0 -0.00000000000E+00 -0.00000000000E+00 -0.74505805969E-08  0.93827000000E+00  0.93827000000E+00 0.  1.
     999902    2    1    2    0    0  0.90134829165E-02 -0.59899300642E-02  0.98116244491E-02  0.10293221216E+01  0.10292184607E+01 0.  0.
     999903    2    3    3    0    0  0.82105256798E-01  0.76908677073E-02 -0.10248096966E+00  0.13907541518E+00  0.45157494675E-01 0.  0.
         14    1    1    2    0    0 -0.90134829165E-02  0.59899300642E-02 -0.98116244491E-02  0.14607878381E-01  0.00000000000E+00 0.  1.
     999901    1    3    3    0    0 -0.73091773882E-01 -0.13680797771E-01  0.11229259411E+00  0.89024670644E+00  0.88000000000E+00 0. -1.
        -11    1    4    4    0    0  0.64461698038E-01  0.23507766700E-01 -0.63704363076E-01  0.93629229438E-01  0.51100000000E-03 0.  1.
         11    1    4    4    0    0  0.17643558760E-01 -0.15816898993E-01 -0.38776606581E-01  0.45446185741E-01  0.51100000000E-03 0. -1.
</event>
<event>
 8    1  0.2846344E+004  0.1043930E+01  0.7957747E-01            NaN
         13   -1    0    0    0    0  0.00000000000E+00  0.00000000000E+00  0.74505805969E-08  0.10566000000E+00  0.10566000000E+00 0. -1.
     999900   -1    0    0    0    0 -0.00000000000E+00 -0.00000000000E+00 -0.74505805969E-08  0.93827000000E+00  0.93827000000E+00 0.  1.
     999902    2    1    2    0    0 -0.17733478318E-02 -0.13313525352E-01  0.37612418486E-02  0.10299821808E+01  0.10298877372E+01 0.  0.
     999903    2    3    3    0    0  0.11978626988E+00 -0.24105488007E-01  0.51050189240E-01  0.14030277133E+00  0.46356453889E-01 0.  0.
         14    1    1    2    0    0  0.17733478318E-02  0.13313525352E-01 -0.37612418486E-02  0.13947819187E-01  0.00000000000E+00 0. -1.
     999901    1    3    3    0    0 -0.12155961771E+00  0.10791962656E-01 -0.47288947391E-01  0.88967940948E+00  0.88000000000E+00 0. -1.
        -11    1    4    4    0    0  0.75848306426E-01 -0.29846894399E-01  0.14350698015E-01  0.82764765133E-01  0.51100000000E-03 0. -1.
         11    1    4    4    0    0  0.43937963454E-01  0.57414063912E-02  0.36699491225E-01  0.57538006195E-01  0.51100000000E-03 0.  1.
</event>
<event>
 8    1  0.2846344E+004  0.1043930E+01  0.7957747E-01            NaN
         13   -1    0    0    0    0  0.00000000000E+00  0.00000000000E+00  0.74505805969E-08  0.10566000000E+00  0.10566000000E+00 0. -1.
     999900   -1    0    0    0    0 -0.00000000000E+00 -0.00000000000E+00 -0.74505805969E-08  0.93827000000E+00  0.93827000000E+00 0. -1.
     999902    2    1    2    0    0 -0.57383563686E-03 -0.97320279076E-02 -0.10472138648E-01  0.10296224026E+01  0.10295229889E+01 0.  0.
     999903    2    3    3    0    0  0.39723338915E-01  0.75224991944E-01 -0.10188288309E+00  0.13990476108E+00  0.44232083793E-01 0.  0.
         14    1    1    2    0    0  0.57383563686E-03  0.97320279076E-02  0.10472138648E-01  0.14307597367E-01  0.00000000000E+00 0.  1.
     999901    1    3    3    0    0 -0.40297174552E-01 -0.84957019852E-01  0.91410744445E-01  0.88971764156E+00  0.88000000000E+00 0.  1.
        -11    1    4    4    0    0  0.80856788896E-02  0.51236149159E-01 -0.36565617233E-01  0.63465161061E-01  0.51100000000E-03 0.  1.
         11    1    4    4    0    0  0.31637660025E-01  0.23988842785E-01 -0.65317265860E-01  0.76439600015E-01  0.51100000000E-03 0. -1.
</event>
<event>
 8    1  0.2846344E+004  0.1043930E+01  0.7957747E-01            NaN
         13   -1    0    0    0    0  0.00000000000E+00  0.00000000000E+00  0.74505805969E-08  0.10566000000E+00  0.10566000000E+00 0. -1.
     999900   -1    0    0    0    0 -0.00000000000E+00 -0.00000000000E+00 -0.74505805969E-08  0.93827000000E+00  0.93827000000E+00 0. -1.
     999902    2    1    2    0    0 -0.12233947406E-01 -0.71698082792E-02 -0.59549324050E-02  0.10285502458E+01  0.10284352538E+01 0.  0.
     999903    2    3    3    0    0 -0.34162503307E-01 -0.11575669941E+00  0.53251525282E-01  0.13963102610E+00  0.45764707088E-01 0.  0.
         14    1    1    2    0    0  0.12233947406E-01  0.71698082792E-02  0.59549324050E-02  0.15379754219E-01  0.00000000000E+00 0. -1.
     999901    1    3    3    0    0  0.21928555901E-01  0.10858689113E+00 -0.59206457687E-01  0.88891921968E+00  0.88000000000E+00 0.  1.
        -11    1    4    4    0    0 -0.18958533874E-01 -0.72386707647E-01  0.82091154260E-02  0.75278895766E-01  0.51100000000E-03 0. -1.
         11    1    4    4    0    0 -0.15203969433E-01 -0.43369991759E-01  0.45042409856E-01  0.64352130333E-01  0.51100000000E-03 0.  1.
</event>
<event>
 8    1  0.2846344E+004  0.1043930E+01  0.7957747E-01            NaN
         13   -1    0    0    0    0  0.00000000000E+00  0.00000000000E+00  0.74505805969E-08  0.10566000000E+00  0.10566000000E+00 0.  1.
     999900   -1    0    0    0    0 -0.00000000000E+00 -0.00000000000E+00 -0.74505805969E-08  0.93827000000E+00  0.93827000000E+00 0. -1.
     999902    2    1    2    0    0  0.82306230354E-02 -0.31736191076E-02 -0.10091458281E-01  0.10305265473E+01  0.10304393782E+01 0.  0.
     999903    2    3    3    0    0  0.10959479703E+00 -0.21512678418E-01 -0.75838790676E-01  0.14208199159E+00  0.44293964550E-01 0.  0.
         14    1    1    2    0    0 -0.82306230354E-02  0.31736191076E-02  0.10091458281E-01  0.13403452691E-01  0.00000000000E+00 0.  1.
     999901    1    3    3    0    0 -0.10136417399E+00  0.18339059311E-01  0.65747332395E-01  0.88844455572E+00  0.88000000000E+00 0.  1.
        -11    1    4    4    0    0  0.10574518776E+00 -0.85359302484E-02 -0.62819077184E-01  0.12329397560E+00  0.51100000000E-03 0.  1.
         11    1    4    4    0    0  0.38496092664E-02 -0.12976748170E-01 -0.13019713492E-01  0.18788015993E-01  0.51100000000E-03 0. -1.
</event>
<event>
 8    1  0.2846344E+004  0.1043930E+01  0.7957747E-01            NaN
         13   -1    0    0    0    0  0.00000000000E+00  0.00000000000E+00  0.74505805969E-08  0.10566000000E+00  0.10566000000E+00 0. -1.
     999900   -1    0    0    0    0 -0.00000000000E+00 -0.00000000000E+00 -0.74505805969E-08  0.93827000000E+00  0.93827000000E+00 0.  1.
     999902    2    1    2    0    0  0.25113691251E-02  0.11622315111E-01 -0.75238486055E-02  0.10298589844E+01  0.10297628534E+01 0.  0.
     999903    2    3    3    0    0 -0.75914242486E-01  0.10426938214E+00 -0.37743864225E-01  0.14101293192E+00  0.42719684195E-01 0.  0.
         14    1    1    2    0    0 -0.25113691251E-02 -0.11622315111E-01  0.75238486055E-02  0.14071015644E-01  0.00000000000E+00 0. -1.
     999901    1    3    3    0    0  0.78425611611E-01 -0.92647067031E-01  0.30220015619E-01  0.88884605244E+00  0.88000000000E+00 0.  1.
        -11    1    4    4    0    0 -0.28901343759E-01  0.48626561030E-01 -0.38032976076E-01  0.68165962906E-01  0.51100000000E-03 0.  1.
         11    1    4    4    0    0 -0.47012898727E-01  0.55642821111E-01  0.28911185087E-03  0.72846969015E-01  0.51100000000E-03 0. -1.
</event>
<event>
 8    1  0.2846344E+004  0.1043930E+01  0.7957747E-01            NaN
         13   -1    0    0    0    0  0.00000000000E+00  0.00000000000E+00  0.74505805969E-08  0.10566000000E+00  0.10566000000E+00 0.  1.
     999900   -1    0    0    0    0 -0.00000000000E+00 -0.00000000000E+00 -0.74505805969E-08  0.93827000000E+00  0.93827000000E+00 0. -1.
     999902    2    1    2    0    0  0.13511870142E-01 -0.38972740444E-02  0.26583457702E-02  0.10296182502E+01  0.10295187784E+01 0.  0.
     999903    2    3    3    0    0 -0.90216914196E-01 -0.74972351627E-01  0.59876171553E-01  0.13884038400E+00  0.43949416301E-01 0.  0.
         14    1    1    2    0    0 -0.13511870142E-01  0.38972740444E-02 -0.26583457702E-02  0.14311749786E-01  0.00000000000E+00 0.  1.
     999901    1    3    3    0    0  0.10372878434E+00  0.71075077582E-01 -0.57217825783E-01  0.89077786622E+00  0.88000000000E+00 0. -1.
        -11    1    4    4    0    0 -0.81280034950E-01 -0.59289691203E-01  0.65352735176E-01  0.11997063257E+00  0.51100000000E-03 0. -1.
         11    1    4    4    0    0 -0.89368792460E-02 -0.15682660424E-01 -0.54765636233E-02  0.18869751423E-01  0.51100000000E-03 0.  1.
</event>
<event>
 8    1  0.2846344E+004  0.1043930E+01  0.7957747E-01            NaN
         13   -1    0    0    0    0  0.00000000000E+00  0.00000000000E+00  0.74505805969E-08  0.10566000000E+00  0.10566000000E+00 0. -1.
     999900   -1    0    0    0    0 -0.00000000000E+00 -0.00000000000E+00 -0.74505805969E-08  0.93827000000E+00  0.93827000000E+00 0. -1.
     999902    2    1    2    0    0 -0.63620428174E-02 -0.59373961309E-02 -0.10399859880E-01  0.10303695669E+01  0.10302803303E+01 0.  0.
     999903    2    3    3    0    0 -0.58568313721E-01 -0.11752485697E+00  0.24970812294E-01  0.14108426922E+00  0.45154071545E-01 0.  0.
         14    1    1    2    0    0  0.63620428174E-02  0.59373961309E-02  0.10399859880E-01  0.13560433147E-01  0.00000000000E+00 0. -1.
     999901    1    3    3    0    0  0.52206270903E-01  0.11158746084E+00 -0.35370672174E-01  0.88928529763E+00  0.88000000000E+00 0.  1.
        -11    1    4    4    0    0 -0.63497883770E-01 -0.88906630367E-01  0.24824723209E-01  0.11203971693E+00  0.51100000000E-03 0. -1.
         11    1    4    4    0    0  0.49295700491E-02 -0.28618226600E-01  0.14608908513E-03  0.29044552288E-01  0.51100000000E-03 0.  1.
</event>
<event>
 8    1  0.2846344E+004  0.1043930E+01  0.7957747E-01            NaN
         13   -1    0    0    0    0  0.00000000000E+00  0.00000000000E+00  0.74505805969E-08  0.10566000000E+00  0.10566000000E+00 0. -1.
     999900   -1    0    0    0    0 -0.00000000000E+00 -0.00000000000E+00 -0.74505805969E-08  0.93827000000E+00  0.93827000000E+00 0.  1.
     999902    2    1    2    0    0  0.51613554760E-02  0.25707721989E-02  0.12430507026E-01  0.10302272278E+01  0.10301360954E+01 0.  0.
     999903    2    3    3    0    0 -0.70371875966E-01 -0.82550606833E-01  0.76674623126E-01  0.14057660839E+00  0.45999797614E-01 0.  0.
         14    1    1    2    0    0 -0.51613554760E-02 -0.25707721989E-02 -0.12430507026E-01  0.13702772164E-01  0.00000000000E+00 0.  1.
     999901    1    3    3    0    0  0.75533231442E-01  0.85121379032E-01 -0.64244116100E-01  0.88965061944E+00  0.88000000000E+00 0.  1.
        -11    1    4    4    0    0 -0.51712333283E-01 -0.57364461562E-01  0.77229615617E-01  0.10922234896E+00  0.51100000000E-03 0. -1.
         11    1    4    4    0    0 -0.18659542682E-01 -0.25186145271E-01 -0.55499249049E-03  0.31354259430E-01  0.51100000000E-03 0.  1.
</event>
<event>
 8    1  0.2846344E+004  0.1043930E+01  0.7957747E-01            NaN
         13   -1    0    0    0    0  0.00000000000E+00  0.00000000000E+00  0.74505805969E-08  0.10566000000E+00  0.10566000000E+00 0. -1.
     999900   -1    0    0    0    0 -0.00000000000E+00 -0.00000000000E+00 -0.74505805969E-08  0.93827000000E+00  0.93827000000E+00 0. -1.
     999902    2    1    2    0    0 -0.78496492092E-02  0.87321762557E-02 -0.92567658604E-02  0.10289782239E+01  0.10288695882E+01 0.  0.
     999903    2    3    3    0    0  0.66505521764E-01  0.10937331748E+00 -0.34150834223E-01  0.13977799593E+00  0.44565700545E-01 0.  0.
         14    1    1    2    0    0  0.78496492092E-02 -0.87321762557E-02  0.92567658604E-02  0.14951776117E-01  0.00000000000E+00 0. -1.
     999901    1    3    3    0    0 -0.74355170973E-01 -0.10064114123E+00  0.24894068363E-01  0.88920022796E+00  0.88000000000E+00 0.  1.
        -11    1    4    4    0    0  0.60490267971E-01  0.58013295945E-01 -0.22087081199E-01  0.86675921123E-01  0.51100000000E-03 0. -1.
         11    1    4    4    0    0  0.60152537926E-02  0.51360021536E-01 -0.12063753025E-01  0.53102074803E-01  0.51100000000E-03 0.  1.
</event>
<event>
 8    1  0.2846344E+004  0.1043930E+01  0.7957747E-01            NaN
         13   -1    0    0    0    0  0.00000000000E+00  0.00000000000E+00  0.74505805969E-08  0.10566000000E+00  0.10566000000E+00 0. -1.
     999900   -1    0    0    0    0 -0.00000000000E+00 -0.00000000000E+00 -0.74505805969E-08  0.93827000000E+00  0.93827000000E+00 0.  1.
     999902    2    1    2    0    0 -0.75629522681E-02 -0.10563763146E-01  0.53858923416E-02  0.10298658905E+01  0.10297698545E+01 0.  0.
     999903    2    3    3    0    0  0.46909143687E-01 -0.11847214202E+00  0.39951125647E-01  0.14093046947E+00  0.45046515809E-01 0.  0.
         14    1    1    2    0    0  0.75629522681E-02  0.10563763146E-01 -0.53858923416E-02  0.14064109468E-01  0.00000000000E+00 0.  1.
     999901    1    3    3    0    0 -0.54472095955E-01  0.10790837888E+00 -0.34565233305E-01  0.88893542106E+00  0.88000000000E+00 0. -1.
        -11    1    4    4    0    0  0.18221256083E-01 -0.74901890555E-01  0.43724418556E-01  0.88625014984E-01  0.51100000000E-03 0. -1.
         11    1    4    4    0    0  0.28687887604E-01 -0.43570251470E-01 -0.37732929089E-02  0.52305454483E-01  0.51100000000E-03 0.  1.
</event>
<event>
 8    1  0.2846344E+004  0.1043930E+01  0.7957747E-01            NaN
         13   -1    0    0    0    0  0.00000000000E+00  0.00000000000E+00  0.74505805969E-08  0.10566000000E+00  0.10566000000E+00 0.  1.
     999900   -1    0    0    0    0 -0.00000000000E+00 -0.00000000000E+00 -0.74505805969E-08  0.93827000000E+00  0.93827000000E+00 0.  1.
     999902    2    1    2    0    0  0.88105361745E-02 -0.21410172782E-02 -0.10005354707E-01  0.10304275326E+01  0.10303390623E+01 0.  0.
     999903    2    3    3    0    0  0.49644235370E-01 -0.12092825587E+00 -0.31181611456E-01  0.14125587714E+00  0.43505594588E-01 0.  0.
         14    1    1    2    0    0 -0.88105361745E-02  0.21410172782E-02  0.10005354707E-01  0.13502467385E-01  0.00000000000E+00 0.  1.
     999901    1    3    3    0    0 -0.40833699195E-01  0.11878723860E+00  0.21176256749E-01  0.88917165547E+00  0.88000000000E+00 0. -1.
        -11    1    4    4    0    0  0.24416922846E-01 -0.28639127152E-01 -0.25395765051E-01  0.45404754474E-01  0.51100000000E-03 0. -1.
         11    1    4    4    0    0  0.25227312523E-01 -0.92289128723E-01 -0.57858464057E-02  0.95851122670E-01  0.51100000000E-03 0.  1.
</event>
<event>
 8    1  0.2846344E+004  0.1043930E+01  0.7957747E-01            NaN
         13   -1    0    0    0    0  0.00000000000E+00  0.00000000000E+00  0.74505805969E-08  0.10566000000E+00  0.10566000000E+00 0.  1.
     999900   -1    0    0    0    0 -0.00000000000E+00 -0.00000000000E+00 -0.74505805969E-08  0.93827000000E+00  0.93827000000E+00 0. -1.
     999902    2    1    2    0    0 -0.10493616250E-01  0.11490123252E-02 -0.88451512117E-02  0.10301578211E+01  0.10300657569E+01 0.  0.
     999903    2    3    3    0    0  0.86774455636E-02 -0.11172399667E+00  0.69066751482E-01  0.13932780907E+00  0.45656026181E-01 0.  0.
         14    1    1    2    0    0  0.10493616250E-01 -0.11490123252E-02  0.88451512117E-02  0.13772178886E-01  0.00000000000E+00 0. -1.
     999901    1    3    3    0    0 -0.19171061813E-01  0.11287300900E+00 -0.77911902694E-01  0.89083001204E+00  0.88000000000E+00 0. -1.
        -11    1    4    4    0    0 -0.15339941694E-01 -0.75128304551E-01  0.50254837736E-01  0.91680891099E-01  0.51100000000E-03 0.  1.
         11    1    4    4    0    0  0.24017387258E-01 -0.36595692122E-01  0.18811913746E-01  0.47646917973E-01  0.51100000000E-03 0. -1.
</event>
<event>
 8    1  0.2846344E+004  0.1043930E+01  0.7957747E-01            NaN
         13   -1    0    0    0    0  0.00000000000E+00  0.00000000000E+00  0.74505805969E-08  0.10566000000E+00  0.10566000000E+00 0. -1.
     999900   -1    0    0    0    0 -0.00000000000E+00 -0.00000000000E+00 -0.74505805969E-08  0.93827000000E+00  0.93827000000E+00 0.  1.
     999902    2    1    2    0    0 -0.16621781256E-02  0.12602918950E-01 -0.35845061298E-02  0.10307222339E+01  0.10306376076E+01 0.  0.
     999903    2    3    3    0    0  0.68330176270E-01  0.89314891968E-01 -0.73865791223E-01  0.14183353694E+00  0.44882448375E-01 0.  0.
         14    1    1    2    0    0  0.16621781256E-02 -0.12602918950E-01  0.35845061298E-02  0.13207766138E-01  0.00000000000E+00 0. -1.
     999901    1    3    3    0    0 -0.69992354395E-01 -0.76711973018E-01  0.70281285093E-01  0.88888869692E+00  0.88000000000E+00 0.  1.
        -11    1    4    4    0    0  0.21700662571E-01  0.64760207336E-01 -0.44205989587E-01  0.81358674071E-01  0.51100000000E-03 0.  1.
         11    1    4    4    0    0  0.46629513699E-01  0.24554684632E-01 -0.29659801636E-01  0.60474862871E-01  0.51100000000E-03 0. -1.
</event>
<event>
 8    1  0.2846344E+004  0.1043930E+01  0.7957747E-01            NaN
         13   -1    0    0    0    0  0.00000000000E+00  0.00000000000E+00  0.74505805969E-08  0.10566000000E+00  0.10566000000E+00 0.  1.
     999900   -1    0    0    0    0 -0.00000000000E+00 -0.00000000000E+00 -0.74505805969E-08  0.93827000000E+00  0.93827000000E+00 0.  1.
     999902    2    1    2    0    0 -0.15679047936E-01 -0.98815153656E-03  0.65036830233E-03  0.10282063882E+01  0.10280861563E+01 0.  0.
     999903    2    3    3    0    0 -0.14330291809E-01 -0.12432330229E+00  0.46142544321E-01  0.13844073560E+00  0.37081830065E-01 0.  0.
         14    1    1    2    0    0  0.15679047936E-01  0.98815153656E-03 -0.65036830233E-03  0.15723611753E-01  0.00000000000E+00 0. -1.
     999901    1    3    3    0    0 -0.13487561266E-02  0.12333515075E+00 -0.45492176018E-01  0.88976565265E+00  0.88000000000E+00 0.  1.
        -11    1    4    4    0    0 -0.26041347407E-01 -0.90332844536E-01  0.39009851881E-01  0.10178508850E+00  0.51100000000E-03 0. -1.
         11    1    4    4    0    0  0.11711055598E-01 -0.33990457754E-01  0.71326924400E-02  0.36655647096E-01  0.51100000000E-03 0.  1.
</event>
<event>
 8    1  0.2846344E+004  0.1043930E+01  0.7957747E-01            NaN
         13   -1    0    0    0    0  0.00000000000E+00  0.00000000000E+00  0.74505805969E-08  0.10566000000E+00  0.10566000000E+00 0. -1.
     999900   -1    0    0    0    0 -0.00000000000E+00 -0.00000000000E+00 -0.74505805969E-08  0.93827000000E+00  0.93827000000E+00 0. -1.
     999902    2    1    2    0    0 -0.13980563425E-01 -0.50997753480E-02  0.60513628953E-02  0.10278650426E+01  0.10277394918E+01 0.  0.
     999903    2    3    3    0    0  0.10419177521E+00  0.73457240891E-01 -0.13895791188E-01  0.13627444411E+00  0.46105735477E-01 0.  0.
         14    1    1    2    0    0  0.13980563425E-01  0.50997753480E-02 -0.60513628953E-02  0.16064957366E-01  0.00000000000E+00 0. -1.
     999901    1    3    3    0    0 -0.11817233864E+00 -0.78557016239E-01  0.19947154083E-01  0.89159059852E+00  0.88000000000E+00 0. -1.
        -11    1    4    4    0    0  0.63966193578E-01  0.44755814348E-01  0.14313604651E-01  0.79371891989E-01  0.51100000000E-03 0.  1.
         11    1    4    4    0    0  0.40225581633E-01  0.28701426544E-01 -0.28209395839E-01  0.56902552121E-01  0.51100000000E-03 0. -1.
</event>
<event>
 7    1  0.2846344E+004  0.1043930E+01  0.7957747E-01            NaN
         13   -1    0    0    0    0  0.00000000000E+00  0.00000000000E+00  0.74505805969E-08  0.10566000000E+00  0.10566000000E+00 0. -1.
     999900   -1    0    0    0    0 -0.00000000000E+00 -0.00000000000E+00 -0.74505805969E-08  0.93827000000E+00  0.93827000000E+00 0.  1.
     999903    2    1    2    0    0 -0.49010562799E-01  0.69921266722E-01  0.46745428182E-01  0.10764992873E+00  0.45960344794E-01 0.  0.
         14    1    1    2    0    0  0.26856561738E-01 -0.34094849019E-02 -0.46135472624E-01  0.53491880972E-01  0.00000000000E+00 0.  1.
     999901    1    1    2    0    0  0.22154001061E-01 -0.66511781820E-01 -0.60995555784E-03  0.88278819030E+00  0.88000000000E+00 0.  1.
        -11    1    3    3    0    0 -0.50677373582E-01  0.57046889970E-01  0.21533470221E-01  0.79287422138E-01  0.51100000000E-03 0. -1.
         11    1    3    3    0    0  0.16668107834E-02  0.12874376752E-01  0.25211957961E-01  0.28362506592E-01  0.51100000000E-03 0.  1.
</event>
<event>
 8    1  0.2846344E+004  0.1043930E+01  0.7957747E-01            NaN
         13   -1    0    0    0    0  0.00000000000E+00  0.00000000000E+00  0.74505805969E-08  0.10566000000E+00  0.10566000000E+00 0. -1.
     999900   -1    0    0    0    0 -0.00000000000E+00 -0.00000000000E+00 -0.74505805969E-08  0.93827000000E+00  0.93827000000E+00 0. -1.
     999902    2    1    2    0    0  0.16969778962E-01  0.48535074889E-02  0.11824275224E-01  0.10226851555E+01  0.10224644658E+01 0.  0.
     999903    2    3    3    0    0  0.23935105357E-01 -0.10641546795E+00 -0.61381797881E-01  0.13263547723E+00  0.43901066289E-01 0.  0.
         14    1    1    2    0    0 -0.16969778962E-01 -0.48535074889E-02 -0.11824275224E-01  0.21244844493E-01  0.00000000000E+00 0.  1.
     999901    1    3    3    0    0 -0.69653263950E-02  0.11126897544E+00  0.73206073105E-01  0.89004967828E+00  0.88000000000E+00 0.  1.
        -11    1    4    4    0    0  0.57210735744E-02 -0.12747955276E-01 -0.28430966364E-01  0.31683150347E-01  0.51100000000E-03 0. -1.
         11    1    4    4    0    0  0.18214031782E-01 -0.93667512671E-01 -0.32950831518E-01  0.10095232688E+00  0.51100000000E-03 0.  1.
</event>
<event>
 8    1  0.2846344E+004  0.1043930E+01  0.7957747E-01            NaN
         13   -1    0    0    0    0  0.00000000000E+00  0.00000000000E+00  0.74505805969E-08  0.10566000000E+00  0.10566000000E+00 0.  1.
     999900   -1    0    0    0    0 -0.00000000000E+00 -0.00000000000E+00 -0.74505805969E-08  0.93827000000E+00  0.93827000000E+00 0. -1.
     999902    2    1    2    0    0  0.18691513167E-02 -0.11272341380E-01 -0.91942904467E-02  0.10292639036E+01  0.10291594089E+01 0.  0.
     999903    2    3    3    0    0  0.15384316430E-01  0.66211937166E-01 -0.11309479528E+00  0.13966748498E+00  0.45780736404E-01 0.  0.
         14    1    1    2    0    0 -0.18691513167E-02  0.11272341380E-01  0.91942904467E-02  0.14666096401E-01  0.00000000000E+00 0.  1.
     999901    1    3    3    0    0 -0.13515165113E-01 -0.77484278546E-01  0.10390050484E+00  0.88959641862E+00  0.88000000000E+00 0.  1.
        -11    1    4    4    0    0 -0.87735329930E-02 -0.24010101712E-02 -0.10513250792E-01  0.13911480663E-01  0.51100000000E-03 0. -1.
         11    1    4    4    0    0  0.24157849423E-01  0.68612947337E-01 -0.10258154449E+00  0.12575600432E+00  0.51100000000E-03 0.  1.
</event>
<event>
 8    1  0.2846344E+004  0.1043930E+01  0.7957747E-01            NaN
         13   -1    0    0    0    0  0.00000000000E+00  0.00000000000E+00  0.74505805969E-08  0.10566000000E+00  0.10566000000E+00 0.  1.
     999900   -1    0    0    0    0 -0.00000000000E+00 -0.00000000000E+00 -0.74505805969E-08  0.93827000000E+00  0.93827000000E+00 0. -1.
     999902    2    1    2    0    0  0.12715581240E-02  0.72645742889E-02  0.11573179924E-01  0.10302066843E+01  0.10301152766E+01 0.  0.
     999903    2    3    3    0    0  0.75557614749E-01 -0.80315845374E-02  0.11034704195E+00  0.14143862318E+00  0.45331611071E-01 0.  0.
         14    1    1    2    0    0 -0.12715581240E-02 -0.72645742889E-02 -0.11573179924E-01  0.13723315679E-01  0.00000000000E+00 0. -1.
     999901    1    3    3    0    0 -0.74286056625E-01  0.15296158826E-01 -0.98773862031E-01  0.88876806114E+00  0.88000000000E+00 0. -1.
        -11    1    4    4    0    0  0.32434949348E-01 -0.16288505629E-01  0.80615184456E-01  0.88410465674E-01  0.51100000000E-03 0. -1.
         11    1    4    4    0    0  0.43122665401E-01  0.82569210911E-02  0.29731857499E-01  0.53028157507E-01  0.51100000000E-03 0.  1.
</event>
<event>
 8    1  0.2846344E+004  0.1043930E+01  0.7957747E-01            NaN
         13   -1    0    0    0    0  0.00000000000E+00  0.00000000000E+00  0.74505805969E-08  0.10566000000E+00  0.10566000000E+00 0.  1.
     999900   -1    0    0    0    0 -0.00000000000E+00 -0.00000000000E+00 -0.74505805969E-08  0.93827000000E+00  0.93827000000E+00 0. -1.
     999902    2    1    2    0    0 -0.10717688291E-02  0.17365943369E-01 -0.95714956572E-03  0.10265047077E+01  0.10263567967E+01 0.  0.
     999903    2    3    3    0    0 -0.77231289038E-01 -0.74437670652E-01 -0.70820972725E-01  0.13571341345E+00  0.43553204183E-01 0.  0.
         14    1    1    2    0    0  0.10717688291E-02 -0.17365943369E-01  0.95714956572E-03  0.17425292331E-01  0.00000000000E+00 0. -1.
     999901    1    3    3    0    0  0.76159520209E-01  0.91803614021E-01  0.69863823159E-01  0.89079129422E+00  0.88000000000E+00 0.  1.
        -11    1    4    4    0    0 -0.18179337565E-01 -0.89261242950E-02  0.32733858257E-02  0.20521700344E-01  0.51100000000E-03 0. -1.
         11    1    4    4    0    0 -0.59051951473E-01 -0.65511546357E-01 -0.74094358550E-01  0.11519171311E+00  0.51100000000E-03 0.  1.
</event>
<event>
 8    1  0.2846344E+004  0.1043930E+01  0.7957747E-01            NaN
         13   -1    0    0    0    0  0.00000000000E+00  0.00000000000E+00  0.74505805969E-08  0.10566000000E+00  0.10566000000E+00 0. -1.
     999900   -1    0    0    0    0 -0.00000000000E+00 -0.00000000000E+00 -0.74505805969E-08  0.93827000000E+00  0.93827000000E+00 0.  1.
     999902    2    1    2    0    0  0.47760872516E-02  0.91638786521E-02 -0.89475933245E-02  0.10302607971E+01  0.10301701136E+01 0.  0.
     999903    2    3    3    0    0  0.13044187373E+00 -0.23817107978E-01 -0.10662834017E-01  0.14072014181E+00  0.45892540017E-01 0.  0.
         14    1    1    2    0    0 -0.47760872516E-02 -0.91638786521E-02  0.89475933245E-02  0.13669202891E-01  0.00000000000E+00 0. -1.
     999901    1    3    3    0    0 -0.12566578648E+00  0.32980986630E-01  0.17152406929E-02  0.88954065529E+00  0.88000000000E+00 0.  1.
        -11    1    4    4    0    0  0.34199811373E-01 -0.13046391807E-01 -0.22786738648E-01  0.43119972360E-01  0.51100000000E-03 0. -1.
         11    1    4    4    0    0  0.96242062355E-01 -0.10770716171E-01  0.12123904631E-01  0.97600169455E-01  0.51100000000E-03 0.  1.
</event>
<event>
 8    1  0.2846344E+004  0.1043930E+01  0.7957747E-01            NaN
         13   -1    0    0    0    0  0.00000000000E+00  0.00000000000E+00  0.74505805969E-08  0.10566000000E+00  0.10566000000E+00 0. -1.
     999900   -1    0    0    0    0 -0.00000000000E+00 -0.00000000000E+00 -0.74505805969E-08  0.93827000000E+00  0.93827000000E+00 0. -1.
     999902    2    1    2    0    0 -0.59043001278E-02 -0.85512788631E-03 -0.51002215923E-02  0.10360811616E+01  0.10360514317E+01 0.  0.
     999903    2    3    3    0    0  0.99392056278E-01 -0.44104905207E-01 -0.88123950739E-01  0.14487366304E+00  0.37396845256E-01 0.  0.
         14    1    1    2    0    0  0.59043001278E-02  0.85512788631E-03  0.51002215923E-02  0.78488383849E-02  0.00000000000E+00 0. -1.
     999901    1    3    3    0    0 -0.10529635641E+00  0.43249777321E-01  0.83023729147E-01  0.89120749857E+00  0.88000000000E+00 0.  1.
        -11    1    4    4    0    0  0.56210665767E-02 -0.11440697588E-01 -0.22451862946E-01  0.25823114094E-01  0.51100000000E-03 0.  1.
         11    1    4    4    0    0  0.93770989701E-01 -0.32664207619E-01 -0.65672087793E-01  0.11905054895E+00  0.51100000000E-03 0. -1.
</event>
<event>
 8    1  0.2846344E+004  0.1043930E+01  0.7957747E-01            NaN
         13   -1    0    0    0    0  0.00000000000E+00  0.00000000000E+00  0.74505805969E-08  0.10566000000E+00  0.10566000000E+00 0.  1.
     999900   -1    0    0    0    0 -0.00000000000E+00 -0.00000000000E+00 -0.74505805969E-08  0.93827000000E+00  0.93827000000E+00 0.  1.
     999902    2    1    2    0    0  0.12448972940E-01 -0.15063726396E-03 -0.53641660862E-02  0.10303736769E+01  0.10302844947E+01 0.  0.
     999903    2    3    3    0    0  0.10827833070E+00  0.21695579611E-01  0.75427187725E-01  0.14122365250E+00  0.45386829627E-01 0.  0.
         14    1    1    2    0    0 -0.12448972940E-01  0.15063726396E-03  0.53641660862E-02  0.13556323124E-01  0.00000000000E+00 0.  1.
     999901    1    3    3    0    0 -0.95829357758E-01 -0.21846216875E-01 -0.80791353812E-01  0.88915002438E+00  0.88000000000E+00 0.  1.
        -11    1    4    4    0    0  0.63608119452E-01 -0.21094666234E-02  0.21299946719E-01  0.67114764106E-01  0.51100000000E-03 0. -1.
         11    1    4    4    0    0  0.44670211245E-01  0.23805046234E-01  0.54127241006E-01  0.74108888393E-01  0.51100000000E-03 0.  1.
</event>
<event>
 8    1  0.2846344E+004  0.1043930E+01  0.7957747E-01            NaN
         13   -1    0    0    0    0  0.00000000000E+00  0.00000000000E+00  0.74505805969E-08  0.10566000000E+00  0.10566000000E+00 0. -1.
     999900   -1    0    0    0    0 -0.00000000000E+00 -0.00000000000E+00 -0.74505805969E-08  0.93827000000E+00  0.93827000000E+00 0.  1.
     999902    2    1    2    0    0  0.94830597781E-02 -0.11084232591E-01 -0.45815026482E-02  0.10286401733E+01  0.10285265321E+01 0.  0.
     999903    2    3    3    0    0  0.12244723322E+00 -0.16630290997E-01  0.47469095524E-01  0.13987646563E+00  0.45190918396E-01 0.  0.
         14    1    1    2    0    0 -0.94830597781E-02  0.11084232591E-01  0.45815026482E-02  0.15289826729E-01  0.00000000000E+00 0.  1.
     999901    1    3    3    0    0 -0.11296417344E+00  0.55460584069E-02 -0.52050598172E-01  0.88876370764E+00  0.88000000000E+00 0. -1.
        -11    1    4    4    0    0  0.72348250662E-01 -0.29917106806E-01  0.38599273806E-01  0.87289562451E-01  0.51100000000E-03 0.  1.
         11    1    4    4    0    0  0.50098982560E-01  0.13286815809E-01  0.88698217176E-02  0.52586903181E-01  0.51100000000E-03 0. -1.
</event>
<event>
 8    1  0.2846344E+004  0.1043930E+01  0.7957747E-01            NaN
         13   -1    0    0    0    0  0.00000000000E+00  0.00000000000E+00  0.74505805969E-08  0.10566000000E+00  0.10566000000E+00 0.  1.
     999900   -1    0    0    0    0 -0.00000000000E+00 -0.00000000000E+00 -0.74505805969E-08  0.93827000000E+00  0.93827000000E+00 0. -1.
     999902    2    1    2    0    0  0.10119471605E-01 -0.55817535721E-03 -0.89823697080E-02  0.10303875397E+01  0.10302985411E+01 0.  0.
     999903    2    3    3    0    0 -0.68648697519E-01 -0.10818628452E+00  0.31793221573E-01  0.13940444043E+00  0.44786976286E-01 0.  0.
         14    1    1    2    0    0 -0.10119471605E-01  0.55817535721E-03  0.89823697080E-02  0.13542460296E-01  0.00000000000E+00 0.  1.
     999901    1    3    3    0    0  0.78768169124E-01  0.10762810916E+00 -0.40775591281E-01  0.89098309927E+00  0.88000000000E+00 0. -1.
        -11    1    4    4    0    0 -0.21036806597E-01 -0.47853786867E-02  0.16457219313E-02  0.21642934243E-01  0.51100000000E-03 0. -1.
         11    1    4    4    0    0 -0.47611890923E-01 -0.10340090583E+00  0.30147499642E-01  0.11776150619E+00  0.51100000000E-03 0.  1.
</event>
<event>
 8    1  0.2846344E+004  0.1043930E+01  0.7957747E-01            NaN
         13   -1    0    0    0    0  0.00000000000E+00  0.00000000000E+00  0.74505805969E-08  0.10566000000E+00  0.10566000000E+00 0.  1.
     999900   -1    0    0    0    0 -0.00000000000E+00 -0.00000000000E+00 -0.74505805969E-08  0.93827000000E+00  0.93827000000E+00 0. -1.
     999902    2    1    2    0    0  0.10683261123E-01  0.44360735105E-02 -0.86805345334E-02  0.10294675487E+01  0.10293659560E+01 0.  0.
     999903    2    3    3    0    0 -0.10102950286E+00  0.43118463826E-01  0.70366865937E-01  0.13805038463E+00  0.45169132218E-01 0.  0.
         14    1    1    2    0    0 -0.10683261123E-01 -0.44360735105E-02  0.86805345334E-02  0.14462451251E-01  0.00000000000E+00 0.  1.
     999901    1    3    3    0    0  0.11171276398E+00 -0.38682390315E-01 -0.79047400470E-01  0.89141716411E+00  0.88000000000E+00 0. -1.
        -11    1    4    4    0    0 -0.59436581351E-01  0.24232676120E-01  0.66149509633E-01  0.92173469829E-01  0.51100000000E-03 0.  1.
         11    1    4    4    0    0 -0.41592921508E-01  0.18885787706E-01  0.42173563034E-02  0.45876914805E-01  0.51100000000E-03 0. -1.
</event>
<event>
 8    1  0.2846344E+004  0.1043930E+01  0.7957747E-01            NaN
         13   -1    0    0    0    0  0.00000000000E+00  0.00000000000E+00  0.74505805969E-08  0.10566000000E+00  0.10566000000E+00 0. -1.
     999900   -1    0    0    0    0 -0.00000000000E+00 -0.00000000000E+00 -0.74505805969E-08  0.93827000000E+00  0.93827000000E+00 0.  1.
     999902    2    1    2    0    0  0.50040034780E-03  0.97521015407E-02 -0.93857901745E-02  0.10303857414E+01  0.10302967189E+01 0.  0.
     999903    2    3    3    0    0 -0.66930153731E-01  0.77080526947E-01  0.84125314856E-01  0.14031589957E+00  0.46802029449E-01 0.  0.
         14    1    1    2    0    0 -0.50040034780E-03 -0.97521015407E-02  0.93857901745E-02  0.13544258642E-01  0.00000000000E+00 0. -1.
     999901    1    3    3    0    0  0.67430554079E-01 -0.67328425406E-01 -0.93511105030E-01  0.89006984178E+00  0.88000000000E+00 0.  1.
        -11    1    4    4    0    0 -0.44594545565E-02  0.37901103698E-01  0.34345922751E-01  0.51344755594E-01  0.51100000000E-03 0.  1.
         11    1    4    4    0    0 -0.62470699175E-01  0.39179423249E-01  0.49779392105E-01  0.88971143979E-01  0.51100000000E-03 0. -1.
</event>
<event>
 8    1  0.2846344E+004  0.1043930E+01  0.7957747E-01            NaN
         13   -1    0    0    0    0  0.00000000000E+00  0.00000000000E+00  0.74505805969E-08  0.10566000000E+00  0.10566000000E+00 0. -1.
     999900   -1    0    0    0    0 -0.00000000000E+00 -0.00000000000E+00 -0.74505805969E-08  0.93827000000E+00  0.93827000000E+00 0.  1.
     999902    2    1    2    0    0 -0.25898180518E-02 -0.11846199685E-01  0.61370402243E-02  0.10303394567E+01  0.10302498208E+01 0.  0.
     999903    2    3    3    0    0  0.17858990452E-04  0.12719161155E+00  0.34941945831E-01  0.13895399826E+00  0.43698600511E-01 0.  0.
         14    1    1    2    0    0  0.25898180518E-02  0.11846199685E-01 -0.61370402243E-02  0.13590543302E-01  0.00000000000E+00 0.  1.
     999901    1    3    3    0    0 -0.26076770422E-02 -0.13903781123E+00 -0.28804905607E-01  0.89138545844E+00  0.88000000000E+00 0.  1.
        -11    1    4    4    0    0  0.32383087730E-02  0.12141787769E+00  0.20658460731E-01  0.12320641536E+00  0.51100000000E-03 0.  1.
         11    1    4    4    0    0 -0.32204497826E-02  0.57737338615E-02  0.14283485100E-01  0.15747582897E-01  0.51100000000E-03 0. -1.
</event>
<event>
 8    1  0.2846344E+004  0.1043930E+01  0.7957747E-01            NaN
         13   -1    0    0    0    0  0.00000000000E+00  0.00000000000E+00  0.74505805969E-08  0.10566000000E+00  0.10566000000E+00 0.  1.
     999900   -1    0    0    0    0 -0.00000000000E+00 -0.00000000000E+00 -0.74505805969E-08  0.93827000000E+00  0.93827000000E+00 0. -1.
     999902    2    1    2    0    0  0.34291181408E-02  0.24355867648E-02  0.13714549714E-01  0.10295849727E+01  0.10294850345E+01 0.  0.
     999903    2    3    3    0    0 -0.12291377255E+00  0.45263468190E-01 -0.13019731389E-01  0.13912920444E+00  0.45064898616E-01 0.  0.
         14    1    1    2    0    0 -0.34291181408E-02 -0.24355867648E-02 -0.13714549714E-01  0.14345027291E-01  0.00000000000E+00 0. -1.
     999901    1    3    3    0    0  0.12634289069E+00 -0.42827881425E-01  0.26734281103E-01  0.89045576827E+00  0.88000000000E+00 0.  1.
        -11    1    4    4    0    0 -0.47530608424E-01 -0.13560326710E-02  0.75233637869E-02  0.48144155258E-01  0.51100000000E-03 0.  1.
         11    1    4    4    0    0 -0.75383164128E-01  0.46619500861E-01 -0.20543095176E-01  0.90985049184E-01  0.51100000000E-03 0. -1.
</event>
<event>
 8    1  0.2846344E+004  0.1043930E+01  0.7957747E-01            NaN
         13   -1    0    0    0    0  0.00000000000E+00  0.00000000000E+00  0.74505805969E-08  0.10566000000E+00  0.10566000000E+00 0. -1.
     999900   -1    0    0    0    0 -0.00000000000E+00 -0.00000000000E+00 -0.74505805969E-08  0.93827000000E+00  0.93827000000E+00 0.  1.
     999902    2    1    2    0    0 -0.11798872723E-01 -0.14308849687E-02 -0.70758633580E-02  0.10300978392E+01  0.10300049659E+01 0.  0.
     999903    2    3    3    0    0  0.56647313254E-01 -0.10624069946E+00  0.54864464943E-01  0.13908348364E+00  0.42873086987E-01 0.  0.
         14    1    1    2    0    0  0.11798872723E-01  0.14308849687E-02  0.70758633580E-02  0.13832160771E-01  0.00000000000E+00 0. -1.
     999901    1    3    3    0    0 -0.68446185978E-01  0.10480981449E+00 -0.61940328301E-01  0.89101435559E+00  0.88000000000E+00 0.  1.
        -11    1    4    4    0    0  0.43639099179E-01 -0.66581778993E-01  0.14310326035E-01  0.80886036021E-01  0.51100000000E-03 0.  1.
         11    1    4    4    0    0  0.13008214076E-01 -0.39658920470E-01  0.40554138907E-01  0.58197447622E-01  0.51100000000E-03 0. -1.
</event>
<event>
 8    1  0.2846344E+004  0.1043930E+01  0.7957747E-01            NaN
         13   -1    0    0    0    0  0.00000000000E+00  0.00000000000E+00  0.74505805969E-08  0.10566000000E+00  0.10566000000E+00 0.  1.
     999900   -1    0    0    0    0 -0.00000000000E+00 -0.00000000000E+00 -0.74505805969E-08  0.93827000000E+00  0.93827000000E+00 0. -1.
     999902    2    1    2    0    0 -0.23198055447E-02  0.22583313236E-02  0.15508089260E-01  0.10280875762E+01  0.10279655062E+01 0.  0.
     999903    2    3    3    0    0  0.90376225076E-01 -0.25906294957E-04  0.96642653834E-01  0.13950410272E+00  0.44201011375E-01 0.  0.
         14    1    1    2    0    0  0.23198055447E-02 -0.22583313236E-02 -0.15508089260E-01  0.15842423761E-01  0.00000000000E+00 0. -1.
     999901    1    3    3    0    0 -0.92696030621E-01  0.22842376186E-02 -0.81134564575E-01  0.88858347351E+00  0.88000000000E+00 0. -1.
        -11    1    4    4    0    0  0.35557480593E-01  0.19862857422E-01  0.27972541206E-01  0.49412465164E-01  0.51100000000E-03 0.  1.
         11    1    4    4    0    0  0.54818744484E-01 -0.19888763717E-01  0.68670112629E-01  0.90091637561E-01  0.51100000000E-03 0. -1.
</event>
<event>
 8    1  0.2846344E+004  0.1043930E+01  0.7957747E-01            NaN
         13   -1    0    0    0    0  0.00000000000E+00  0.00000000000E+00  0.74505805969E-08  0.10566000000E+00  0.10566000000E+00 0.  1.
     999900   -1    0    0    0    0 -0.00000000000E+00 -0.00000000000E+00 -0.74505805969E-08  0.93827000000E+00  0.93827000000E+00 0. -1.
     999902    2    1    2    0    0  0.75514620707E-02 -0.96194793374E-02 -0.64958969608E-02  0.10300824139E+01  0.10299893319E+01 0.  0.
     999903    2    3    3    0    0 -0.51557511232E-01 -0.11318938792E+00 -0.48717133873E-01  0.14103616682E+00  0.45252919412E-01 0.  0.
         14    1    1    2    0    0 -0.75514620707E-02  0.96194793374E-02  0.64958969608E-02  0.13847586051E-01  0.00000000000E+00 0. -1.
     999901    1    3    3    0    0  0.59108973303E-01  0.10356990859E+00  0.42221236912E-01  0.88904624713E+00  0.88000000000E+00 0.  1.
        -11    1    4    4    0    0 -0.34234125741E-01 -0.48911978328E-01 -0.44247834605E-01  0.74313450851E-01  0.51100000000E-03 0. -1.
         11    1    4    4    0    0 -0.17323385491E-01 -0.64277409595E-01 -0.44692992680E-02  0.66722715968E-01  0.51100000000E-03 0.  1.
</event>
<event>
 8    1  0.2846344E+004  0.1043930E+01  0.7957747E-01            NaN
         13   -1    0    0    0    0  0.00000000000E+00  0.00000000000E+00  0.74505805969E-08  0.10566000000E+00  0.10566000000E+00 0. -1.
     999900   -1    0    0    0    0 -0.00000000000E+00 -0.00000000000E+00 -0.74505805969E-08  0.93827000000E+00  0.93827000000E+00 0.  1.
     999902    2    1    2    0    0 -0.60246373294E-02 -0.27237214835E-02  0.12863971618E-01  0.10294663670E+01  0.10293647576E+01 0.  0.
     999903    2    3    3    0    0 -0.35497062100E-01  0.49478340590E-01 -0.11606704272E+00  0.13805350779E+00  0.43348183397E-01 0.  0.
         14    1    1    2    0    0  0.60246373294E-02  0.27237214835E-02 -0.12863971618E-01  0.14463632996E-01  0.00000000000E+00 0.  1.
     999901    1    3    3    0    0  0.29472424770E-01 -0.52202062073E-01  0.12893101434E+00  0.89141285921E+00  0.88000000000E+00 0. -1.
        -11    1    4    4    0    0  0.31582526678E-03  0.19488209029E-01 -0.69149085772E-01  0.71845300618E-01  0.51100000000E-03 0. -1.
         11    1    4    4    0    0 -0.35812887366E-01  0.29990131561E-01 -0.46917956946E-01  0.66208207176E-01  0.51100000000E-03 0.  1.
</event>
<event>
 8    1  0.2846344E+004  0.1043930E+01  0.7957747E-01            NaN
         13   -1    0    0    0    0  0.00000000000E+00  0.00000000000E+00  0.74505805969E-08  0.10566000000E+00  0.10566000000E+00 0. -1.
     999900   -1    0    0    0    0 -0.00000000000E+00 -0.00000000000E+00 -0.74505805969E-08  0.93827000000E+00  0.93827000000E+00 0.  1.
     999902    2    1    2    0    0 -0.11310137852E-02 -0.14994895936E-01  0.26469370803E-02  0.10286613271E+01  0.10285480025E+01 0.  0.
     999903    2    3    3    0    0 -0.10476539056E+00 -0.43726697336E-01 -0.67032581974E-01  0.13938024901E+00  0.45229146023E-01 0.  0.
         14    1    1    2    0    0  0.11310137852E-02  0.14994895936E-01 -0.26469370803E-02  0.15268672903E-01  0.00000000000E+00 0.  1.
     999901    1    3    3    0    0  0.10363437678E+00  0.28731801400E-01  0.69679519054E-01  0.88928107808E+00  0.88000000000E+00 0. -1.
        -11    1    4    4    0    0 -0.29371572352E-01 -0.26809766276E-01 -0.42739511007E-01  0.58381330512E-01  0.51100000000E-03 0. -1.
         11    1    4    4    0    0 -0.75393818208E-01 -0.16916931060E-01 -0.24293070967E-01  0.80998918502E-01  0.51100000000E-03 0.  1.
</event>
<event>
 8    1  0.2846344E+004  0.1043930E+01  0.7957747E-01            NaN
         13   -1    0    0    0    0  0.00000000000E+00  0.00000000000E+00  0.74505805969E-08  0.10566000000E+00  0.10566000000E+00 0.  1.
     999900   -1    0    0    0    0 -0.00000000000E+00 -0.00000000000E+00 -0.74505805969E-08  0.93827000000E+00  0.93827000000E+00 0. -1.
     999902    2    1    2    0    0  0.72970605936E-03 -0.96264636901E-02  0.99166859335E-02  0.10300901324E+01  0.10299971549E+01 0.  0.
     999903    2    3    3    0    0 -0.49622384605E-01 -0.79287967711E-01 -0.94557306046E-01  0.13975150407E+00  0.42900301686E-01 0.  0.
         14    1    1    2    0    0 -0.72970605936E-03  0.96264636901E-02 -0.99166859335E-02  0.13839867558E-01  0.00000000000E+00 0. -1.
     999901    1    3    3    0    0  0.50352090665E-01  0.69661504021E-01  0.10447399198E+00  0.89033862838E+00  0.88000000000E+00 0.  1.
        -11    1    4    4    0    0 -0.96555763135E-02 -0.18877920823E-01 -0.50983730094E-01  0.55219633318E-01  0.51100000000E-03 0.  1.
         11    1    4    4    0    0 -0.39966808292E-01 -0.60410046888E-01 -0.43573575952E-01  0.84531870749E-01  0.51100000000E-03 0. -1.
</event>
<event>
 8    1  0.2846344E+004  0.1043930E+01  0.7957747E-01            NaN
         13   -1    0    0    0    0  0.00000000000E+00  0.00000000000E+00  0.74505805969E-08  0.10566000000E+00  0.10566000000E+00 0.  1.
     999900   -1    0    0    0    0 -0.00000000000E+00 -0.00000000000E+00 -0.74505805969E-08  0.93827000000E+00  0.93827000000E+00 0. -1.
     999902    2    1    2    0    0 -0.21726647720E-02 -0.11675306124E-01  0.64073633330E-02  0.10304360180E+01  0.10303476596E+01 0.  0.
     999903    2    3    3    0    0 -0.10592354445E+00 -0.77349858362E-01 -0.27565201752E-01  0.14126138553E+00  0.44633404944E-01 0.  0.
         14    1    1    2    0    0  0.21726647720E-02  0.11675306124E-01 -0.64073633330E-02  0.13493981998E-01  0.00000000000E+00 0. -1.
     999901    1    3    3    0    0  0.10375087968E+00  0.65674552238E-01  0.33972565085E-01  0.88917463247E+00  0.88000000000E+00 0.  1.
        -11    1    4    4    0    0 -0.66340144533E-01 -0.47747665544E-01  0.52877351747E-02  0.81908947044E-01  0.51100000000E-03 0. -1.
         11    1    4    4    0    0 -0.39583399921E-01 -0.29602192817E-01 -0.32852936927E-01  0.59352438489E-01  0.51100000000E-03 0.  1.
</event>
<event>
 7    1  0.2846344E+004  0.1043930E+01  0.7957747E-01            NaN
         13   -1    0    0    0    0  0.00000000000E+00  0.00000000000E+00  0.74505805969E-08  0.10566000000E+00  0.10566000000E+00 0. -1.
     999900   -1    0    0    0    0 -0.00000000000E+00 -0.00000000000E+00 -0.74505805969E-08  0.93827000000E+00  0.93827000000E+00 0. -1.
     999902    2    1    2    0    0 -0.11542556468E-01 -0.95133230685E-03  0.73525176280E-02  0.10302115759E+01  0.10301202338E+01 0.  0.
         14    1    1    2    0    0  0.11542556468E-01  0.95133230685E-03 -0.73525176280E-02  0.13718424051E-01  0.00000000000E+00 0.  1.
     999901    1    3    3    0    0 -0.82640726105E-02 -0.29715637327E-01  0.12927836046E+00  0.88997989218E+00  0.88000000000E+00 0.  1.
        -11    1    3    3    0    0  0.28178532781E-01  0.71217806382E-02 -0.69833327584E-01  0.75641947566E-01  0.51100000000E-03 0. -1.
         11    1    3    3    0    0 -0.31457016639E-01  0.21642524382E-01 -0.52092515245E-01  0.64589736205E-01  0.51100000000E-03 0.  1.
</event>
<event>
 8    1  0.2846344E+004  0.1043930E+01  0.7957747E-01            NaN
         13   -1    0    0    0    0  0.00000000000E+00  0.00000000000E+00  0.74505805969E-08  0.10566000000E+00  0.10566000000E+00 0. -1.
     999900   -1    0    0    0    0 -0.00000000000E+00 -0.00000000000E+00 -0.74505805969E-08  0.93827000000E+00  0.93827000000E+00 0.  1.
     999902    2    1    2    0    0  0.64848077614E-03 -0.93609411396E-02 -0.95870195233E-02  0.10305151318E+01  0.10304278132E+01 0.  0.
     999903    2    3    3    0    0 -0.47883913281E-01 -0.58153474349E-01  0.10890705763E+00  0.13991030869E+00  0.45160287258E-01 0.  0.
         14    1    1    2    0    0 -0.64848077614E-03  0.93609411396E-02  0.95870195233E-02  0.13414868232E-01  0.00000000000E+00 0. -1.
     999901    1    3    3    0    0  0.48532394057E-01  0.48792533209E-01 -0.11849407716E+00  0.89060482308E+00  0.88000000000E+00 0.  1.
        -11    1    4    4    0    0 -0.13996351299E-02  0.57907490696E-02  0.20299334768E-01  0.21161660292E-01  0.51100000000E-03 0. -1.
         11    1    4    4    0    0 -0.46484278151E-01 -0.63944223419E-01  0.88607722865E-01  0.11874864840E+00  0.51100000000E-03 0.  1.
</event>
<event>
 7    1  0.2846344E+004  0.1043930E+01  0.7957747E-01            NaN
         13   -1    0    0    0    0  0.00000000000E+00  0.00000000000E+00  0.74505805969E-08  0.10566000000E+00  0.10566000000E+00 0. -1.
     999900   -1    0    0    0    0 -0.00000000000E+00 -0.00000000000E+00 -0.74505805969E-08  0.93827000000E+00  0.93827000000E+00 0. -1.
     999903    2    1    2    0    0 -0.11195974904E+00  0.73492347080E-02  0.68412315816E-03  0.12130004263E+00  0.46089431143E-01 0.  0.
         14    1    1    2    0    0 -0.26844189872E-01  0.10966394542E-01 -0.12269595958E-01  0.31486748388E-01  0.00000000000E+00 0. -1.
     999901    1    1    2    0    0  0.13880393891E+00 -0.18315629250E-01  0.11585472800E-01  0.89114320898E+00  0.88000000000E+00 0. -1.
        -11    1    3    3    0    0 -0.59995585821E-01  0.19892841328E-01  0.16910523342E-01  0.65432578848E-01  0.51100000000E-03 0. -1.
         11    1    3    3    0    0 -0.51964163215E-01 -0.12543606619E-01 -0.16226400184E-01  0.55867463783E-01  0.51100000000E-03 0.  1.
</event>
<event>
 8    1  0.2846344E+004  0.1043930E+01  0.7957747E-01            NaN
         13   -1    0    0    0    0  0.00000000000E+00  0.00000000000E+00  0.74505805969E-08  0.10566000000E+00  0.10566000000E+00 0. -1.
     999900   -1    0    0    0    0 -0.00000000000E+00 -0.00000000000E+00 -0.74505805969E-08  0.93827000000E+00  0.93827000000E+00 0. -1.
     999902    2    1    2    0    0  0.94104278550E-02  0.71636792547E-02 -0.61338543994E-02  0.10306071391E+01  0.10305210219E+01 0.  0.
     999903    2    3    3    0    0 -0.12141124646E+00  0.38491187541E-01 -0.35670155225E-01  0.13989499911E+00  0.45563016990E-01 0.  0.
         14    1    1    2    0    0 -0.94104278550E-02 -0.71636792547E-02  0.61338543994E-02  0.13322860904E-01  0.00000000000E+00 0. -1.
     999901    1    3    3    0    0  0.13082167432E+00 -0.31327508286E-01  0.29536300825E-01  0.89071213998E+00  0.88000000000E+00 0.  1.
        -11    1    4    4    0    0 -0.68571040321E-01  0.10067415402E-01 -0.39494601739E-01  0.79771079415E-01  0.51100000000E-03 0. -1.
         11    1    4    4    0    0 -0.52840206142E-01  0.28423772139E-01  0.38244465142E-02  0.60123919698E-01  0.51100000000E-03 0.  1.
</event>
<event>
 8    1  0.2846344E+004  0.1043930E+01  0.7957747E-01            NaN
         13   -1    0    0    0    0  0.00000000000E+00  0.00000000000E+00  0.74505805969E-08  0.10566000000E+00  0.10566000000E+00 0. -1.
     999900   -1    0    0    0    0 -0.00000000000E+00 -0.00000000000E+00 -0.74505805969E-08  0.93827000000E+00  0.93827000000E+00 0. -1.
     999902    2    1    2    0    0  0.46986547754E-02  0.11513628982E-03  0.12442297609E-01  0.10306295721E+01  0.10305437465E+01 0.  0.
     999903    2    3    3    0    0 -0.36253951246E-01 -0.12402351577E+00 -0.27849403204E-01  0.14006180822E+00  0.46319967822E-01 0.  0.
         14    1    1    2    0    0 -0.46986547754E-02 -0.11513628982E-03 -0.12442297609E-01  0.13300427920E-01  0.00000000000E+00 0.  1.
     999901    1    3    3    0    0  0.40952606021E-01  0.12413865206E+00  0.40291700813E-01  0.89056776386E+00  0.88000000000E+00 0.  1.
        -11    1    4    4    0    0  0.25283265670E-02 -0.33765957035E-01  0.91635224778E-02  0.35082239879E-01  0.51100000000E-03 0.  1.
         11    1    4    4    0    0 -0.38782277813E-01 -0.90257558730E-01 -0.37012925682E-01  0.10497956834E+00  0.51100000000E-03 0. -1.
</event>
<event>
 8    1  0.2846344E+004  0.1043930E+01  0.7957747E-01            NaN
         13   -1    0    0    0    0  0.00000000000E+00  0.00000000000E+00  0.74505805969E-08  0.10566000000E+00  0.10566000000E+00 0.  1.
     999900   -1    0    0    0    0 -0.00000000000E+00 -0.00000000000E+00 -0.74505805969E-08  0.93827000000E+00  0.93827000000E+00 0.  1.
     999902    2    1    2    0    0  0.15598846866E-01 -0.34490269156E-02  0.29534717470E-02  0.10276836833E+01  0.10275552589E+01 0.  0.
     999903    2    3    3    0    0  0.11004929175E+00 -0.73496590768E-01 -0.34316887047E-02  0.13983892324E+00  0.45061652160E-01 0.  0.
         14    1    1    2    0    0 -0.15598846866E-01  0.34490269156E-02 -0.29534717470E-02  0.16246316677E-01  0.00000000000E+00 0. -1.
     999901    1    3    3    0    0 -0.94450444884E-01  0.70047563852E-01  0.63851604517E-02  0.88784476009E+00  0.88000000000E+00 0. -1.
        -11    1    4    4    0    0  0.64275350499E-01 -0.52057117321E-01 -0.22652470509E-01  0.85759312536E-01  0.51100000000E-03 0.  1.
         11    1    4    4    0    0  0.45773941250E-01 -0.21439473447E-01  0.19220781804E-01  0.54079610699E-01  0.51100000000E-03 0. -1.
</event>
<event>
 8    1  0.2846344E+004  0.1043930E+01  0.7957747E-01            NaN
         13   -1    0    0    0    0  0.00000000000E+00  0.00000000000E+00  0.74505805969E-08  0.10566000000E+00  0.10566000000E+00 0. -1.
     999900   -1    0    0    0    0 -0.00000000000E+00 -0.00000000000E+00 -0.74505805969E-08  0.93827000000E+00  0.93827000000E+00 0. -1.
     999902    2    1    2    0    0  0.29080206758E-02  0.12618209995E-01  0.57106663113E-02  0.10297777027E+01  0.10296804502E+01 0.  0.
     999903    2    3    3    0    0 -0.23976837300E-01  0.34730052493E-01  0.12648069721E+00  0.14084737391E+00  0.45382272944E-01 0.  0.
         14    1    1    2    0    0 -0.29080206758E-02 -0.12618209995E-01 -0.57106663113E-02  0.14152297250E-01  0.00000000000E+00 0.  1.
     999901    1    3    3    0    0  0.26884857975E-01 -0.22111842498E-01 -0.12077003090E+00  0.88893032884E+00  0.88000000000E+00 0. -1.
        -11    1    4    4    0    0 -0.27394075698E-01  0.88540316557E-02  0.33029025795E-01  0.43817883630E-01  0.51100000000E-03 0.  1.
         11    1    4    4    0    0  0.34172383980E-02  0.25876020838E-01  0.93451671416E-01  0.97029490280E-01  0.51100000000E-03 0. -1.
</event>
<event>
 8    1  0.2846344E+004  0.1043930E+01  0.7957747E-01            NaN
         13   -1    0    0    0    0  0.00000000000E+00  0.00000000000E+00  0.74505805969E-08  0.10566000000E+00  0.10566000000E+00 0.  1.
     999900   -1    0    0    0    0 -0.00000000000E+00 -0.00000000000E+00 -0.74505805969E-08  0.93827000000E+00  0.93827000000E+00 0.  1.
     999902    2    1    2    0    0 -0.47747050049E-02 -0.45384276047E-02 -0.15174970203E-01  0.10273868790E+01  0.10272536806E+01 0.  0.
     999903    2    3    3    0    0 -0.18102522806E-01 -0.10955950246E+00 -0.71194476725E-01  0.13927357425E+00  0.44693277533E-01 0.  0.
         14    1    1    2    0    0  0.47747050049E-02  0.45384276047E-02  0.15174970203E-01  0.16543121038E-01  0.00000000000E+00 0.  1.
     999901    1    3    3    0    0  0.13327817801E-01  0.10502107486E+00  0.56019506523E-01  0.88811330471E+00  0.88000000000E+00 0. -1.
        -11    1    4    4    0    0 -0.16156185174E-01 -0.10415002001E+00 -0.48798069814E-01  0.11614543351E+00  0.51100000000E-03 0.  1.
         11    1    4    4    0    0 -0.19463376324E-02 -0.54094824575E-02 -0.22396406911E-01  0.23128140742E-01  0.51100000000E-03 0. -1.
</event>
<event>
 8    1  0.2846344E+004  0.1043930E+01  0.7957747E-01            NaN
         13   -1    0    0    0    0  0.00000000000E+00  0.00000000000E+00  0.74505805969E-08  0.10566000000E+00  0.10566000000E+00 0. -1.
     999900   -1    0    0    0    0 -0.00000000000E+00 -0.00000000000E+00 -0.74505805969E-08  0.93827000000E+00  0.93827000000E+00 0.  1.
     999902    2    1    2    0    0  0.36688832477E-03  0.54048422591E-02  0.12346807593E-01  0.10304470261E+01  0.10303588128E+01 0.  0.
     999903    2    3    3    0    0 -0.48935169015E-01  0.88389022211E-01 -0.85574272501E-01  0.13976997752E+00  0.44781921436E-01 0.  0.
         14    1    1    2    0    0 -0.36688832477E-03 -0.54048422591E-02 -0.12346807593E-01  0.13482973879E-01  0.00000000000E+00 0.  1.
     999901    1    3    3    0    0  0.49302057339E-01 -0.82984179952E-01  0.97921080094E-01  0.89067704860E+00  0.88000000000E+00 0. -1.
        -11    1    4    4    0    0 -0.37808801587E-01  0.79744576000E-01 -0.49842064967E-01  0.10135677304E+00  0.51100000000E-03 0.  1.
         11    1    4    4    0    0 -0.11126367427E-01  0.86444462109E-02 -0.35732207534E-01  0.38413204484E-01  0.51100000000E-03 0. -1.
</event>
<event>
 8    1  0.2846344E+004  0.1043930E+01  0.7957747E-01            NaN
         13   -1    0    0    0    0  0.00000000000E+00  0.00000000000E+00  0.74505805969E-08  0.10566000000E+00  0.10566000000E+00 0.  1.
     999900   -1    0    0    0    0 -0.00000000000E+00 -0.00000000000E+00 -0.74505805969E-08  0.93827000000E+00  0.93827000000E+00 0.  1.
     999902    2    1    2    0    0  0.57944429627E-03  0.11644453708E-01 -0.10678272953E-01  0.10281200484E+01  0.10279984821E+01 0.  0.
     999903    2    3    3    0    0 -0.10832065664E+00  0.73530177408E-01 -0.12275883113E-01  0.13924906382E+00  0.45820877612E-01 0.  0.
         14    1    1    2    0    0 -0.57944429627E-03 -0.11644453708E-01  0.10678272953E-01  0.15809951648E-01  0.00000000000E+00 0.  1.
     999901    1    3    3    0    0  0.10890010093E+00 -0.61885723700E-01  0.15976101598E-02  0.88887098453E+00  0.88000000000E+00 0. -1.
        -11    1    4    4    0    0 -0.81773280141E-01  0.34952052540E-01 -0.21554460879E-01  0.91506126716E-01  0.51100000000E-03 0. -1.
         11    1    4    4    0    0 -0.26547376497E-01  0.38578124868E-01  0.92785777657E-02  0.47742937106E-01  0.51100000000E-03 0.  1.
</event>
<event>
 8    1  0.2846344E+004  0.1043930E+01  0.7957747E-01            NaN
         13   -1    0    0    0    0  0.00000000000E+00  0.00000000000E+00  0.74505805969E-08  0.10566000000E+00  0.10566000000E+00 0.  1.
     999900   -1    0    0    0    0 -0.00000000000E+00 -0.00000000000E+00 -0.74505805969E-08  0.93827000000E+00  0.93827000000E+00 0. -1.
     999902    2    1    2    0    0  0.92404691317E-02  0.44964467038E-03  0.10093105640E-01  0.10302384248E+01  0.10301474422E+01 0.  0.
     999903    2    3    3    0    0  0.90410146796E-01  0.98308861546E-01 -0.41760607605E-02  0.14098674388E+00  0.44957708625E-01 0.  0.
         14    1    1    2    0    0 -0.92404691317E-02 -0.44964467038E-03 -0.10093105640E-01  0.13691575204E-01  0.00000000000E+00 0.  1.
     999901    1    3    3    0    0 -0.81169677664E-01 -0.97859216875E-01  0.14269166400E-01  0.88925168091E+00  0.88000000000E+00 0.  1.
        -11    1    4    4    0    0  0.81017691550E-01  0.91400285591E-01 -0.17373341382E-01  0.12336925331E+00  0.51100000000E-03 0. -1.
         11    1    4    4    0    0  0.93924552465E-02  0.69085759546E-02  0.13197280622E-01  0.17617490573E-01  0.51100000000E-03 0.  1.
</event>
<event>
 8    1  0.2846344E+004  0.1043930E+01  0.7957747E-01            NaN
         13   -1    0    0    0    0  0.00000000000E+00  0.00000000000E+00  0.74505805969E-08  0.10566000000E+00  0.10566000000E+00 0.  1.
     999900   -1    0    0    0    0 -0.00000000000E+00 -0.00000000000E+00 -0.74505805969E-08  0.93827000000E+00  0.93827000000E+00 0.  1.
     999902    2    1    2    0    0 -0.14062889503E-01  0.10996830228E-01  0.14342724862E-02  0.10260204418E+01  0.10258641210E+01 0.  0.
     999903    2    3    3    0    0  0.12581526830E+00  0.61301241742E-02  0.16660077612E-01  0.13482943593E+00  0.45103862869E-01 0.  0.
         14    1    1    2    0    0  0.14062889503E-01 -0.10996830228E-01 -0.14342724862E-02  0.17909558169E-01  0.00000000000E+00 0. -1.
     999901    1    3    3    0    0 -0.13987815781E+00  0.48667060543E-02 -0.15225805126E-01  0.89119100590E+00  0.88000000000E+00 0.  1.
        -11    1    4    4    0    0  0.85612513655E-01  0.16023858957E-01  0.28703045622E-01  0.91708192105E-01  0.51100000000E-03 0.  1.
         11    1    4    4    0    0  0.40202754650E-01 -0.98937347829E-02 -0.12042968010E-01  0.43121243823E-01  0.51100000000E-03 0. -1.
</event>
<event>
 8    1  0.2846344E+004  0.1043930E+01  0.7957747E-01            NaN
         13   -1    0    0    0    0  0.00000000000E+00  0.00000000000E+00  0.74505805969E-08  0.10566000000E+00  0.10566000000E+00 0. -1.
     999900   -1    0    0    0    0 -0.00000000000E+00 -0.00000000000E+00 -0.74505805969E-08  0.93827000000E+00  0.93827000000E+00 0.  1.
     999902    2    1    2    0    0  0.31074320482E-02  0.84816716916E-02 -0.10589760703E-01  0.10300110230E+01  0.10299169722E+01 0.  0.
     999903    2    3    3    0    0  0.22415723591E-01 -0.25076018509E-01  0.12633856425E+00  0.13858054627E+00  0.45955017352E-01 0.  0.
         14    1    1    2    0    0 -0.31074320482E-02 -0.84816716916E-02  0.10589760703E-01  0.13918976987E-01  0.00000000000E+00 0. -1.
     999901    1    3    3    0    0 -0.19308291543E-01  0.33557690201E-01 -0.13692832495E+00  0.89143047674E+00  0.88000000000E+00 0.  1.
        -11    1    4    4    0    0 -0.10701486325E-01 -0.56374298843E-02  0.65683300490E-01  0.66789666189E-01  0.51100000000E-03 0. -1.
         11    1    4    4    0    0  0.33117209916E-01 -0.19438588625E-01  0.60655263757E-01  0.71790880081E-01  0.51100000000E-03 0.  1.
</event>
<event>
 8    1  0.2846344E+004  0.1043930E+01  0.7957747E-01            NaN
         13   -1    0    0    0    0  0.00000000000E+00  0.00000000000E+00  0.74505805969E-08  0.10566000000E+00  0.10566000000E+00 0. -1.
     999900   -1    0    0    0    0 -0.00000000000E+00 -0.00000000000E+00 -0.74505805969E-08  0.93827000000E+00  0.93827000000E+00 0. -1.
     999902    2    1    2    0    0  0.21420632903E-02 -0.87970288676E-02 -0.45303422584E-02  0.10338057641E+01  0.10337561887E+01 0.  0.
     999903    2    3    3    0    0  0.13170601953E+00 -0.18012143297E-01 -0.32698933325E-01  0.14382531114E+00  0.44108808597E-01 0.  0.
         14    1    1    2    0    0 -0.21420632903E-02  0.87970288676E-02  0.45303422584E-02  0.10124235923E-01  0.00000000000E+00 0.  1.
     999901    1    3    3    0    0 -0.12956395624E+00  0.92151144291E-02  0.28168591067E-01  0.88998045294E+00  0.88000000000E+00 0.  1.
        -11    1    4    4    0    0  0.90255269200E-01 -0.31588898228E-01 -0.29570524160E-01  0.10009270268E+00  0.51100000000E-03 0.  1.
         11    1    4    4    0    0  0.41450750333E-01  0.13576754931E-01 -0.31284091655E-02  0.43732608458E-01  0.51100000000E-03 0. -1.
</event>
<event>
 8    1  0.2846344E+004  0.1043930E+01  0.7957747E-01            NaN
         13   -1    0    0    0    0  0.00000000000E+00  0.00000000000E+00  0.74505805969E-08  0.10566000000E+00  0.10566000000E+00 0. -1.
     999900   -1    0    0    0    0 -0.00000000000E+00 -0.00000000000E+00 -0.74505805969E-08  0.93827000000E+00  0.93827000000E+00 0. -1.
     999902    2    1    2    0    0  0.12489378474E-01  0.30129805031E-02  0.46922980133E-02  0.10302522704E+01  0.10301614730E+01 0.  0.
     999903    2    3    3    0    0 -0.12110446141E+00  0.39409635908E-01  0.19258291941E-01  0.13930659375E+00  0.53066329038E-01 0.  0.
         14    1    1    2    0    0 -0.12489378474E-01 -0.30129805031E-02 -0.46922980133E-02  0.13677729593E-01  0.00000000000E+00 0. -1.
     999901    1    3    3    0    0  0.13359383988E+00 -0.36396655405E-01 -0.14565993928E-01  0.89094567666E+00  0.88000000000E+00 0.  1.
        -11    1    4    4    0    0 -0.52887353933E-01  0.96555325054E-02 -0.17176977067E-01  0.56441218769E-01  0.51100000000E-03 0.  1.
         11    1    4    4    0    0 -0.68217107475E-01  0.29754103403E-01  0.36435269008E-01  0.82865374978E-01  0.51100000000E-03 0. -1.
</event>
<event>
 8    1  0.2846344E+004  0.1043930E+01  0.7957747E-01            NaN
         13   -1    0    0    0    0  0.00000000000E+00  0.00000000000E+00  0.74505805969E-08  0.10566000000E+00  0.10566000000E+00 0. -1.
     999900   -1    0    0    0    0 -0.00000000000E+00 -0.00000000000E+00 -0.74505805969E-08  0.93827000000E+00  0.93827000000E+00 0. -1.
     999902    2    1    2    0    0 -0.56765099547E-02 -0.70907601317E-02 -0.21442465765E-01  0.10206430727E+01  0.10203773816E+01 0.  0.
     999903    2    3    3    0    0 -0.27036591231E-01 -0.11822708322E+00  0.27006964765E-01  0.13207406430E+00  0.44783499689E-01 0.  0.
         14    1    1    2    0    0  0.56765099547E-02  0.70907601317E-02  0.21442465765E-01  0.23286927289E-01  0.00000000000E+00 0. -1.
     999901    1    3    3    0    0  0.21360081276E-01  0.11113632309E+00 -0.48449430530E-01  0.88856900841E+00  0.88000000000E+00 0. -1.
        -11    1    4    4    0    0 -0.21255943610E-01 -0.42121363379E-01  0.29606683522E-01  0.55703152710E-01  0.51100000000E-03 0. -1.
         11    1    4    4    0    0 -0.57806476206E-02 -0.76105719839E-01 -0.25997187567E-02  0.76370911595E-01  0.51100000000E-03 0.  1.
</event>
<event>
 8    1  0.2846344E+004  0.1043930E+01  0.7957747E-01            NaN
         13   -1    0    0    0    0  0.00000000000E+00  0.00000000000E+00  0.74505805969E-08  0.10566000000E+00  0.10566000000E+00 0.  1.
     999900   -1    0    0    0    0 -0.00000000000E+00 -0.00000000000E+00 -0.74505805969E-08  0.93827000000E+00  0.93827000000E+00 0. -1.
     999902    2    1    2    0    0 -0.12740571120E-01 -0.15081499451E-02 -0.46899172668E-02  0.10302701320E+01  0.10301795732E+01 0.  0.
     999903    2    3    3    0    0  0.38795700022E-01 -0.12680620440E+00  0.14144089132E-01  0.13970272331E+00  0.41615812245E-01 0.  0.
         14    1    1    2    0    0  0.12740571120E-01  0.15081499451E-02  0.46899172668E-02  0.13659867960E-01  0.00000000000E+00 0. -1.
     999901    1    3    3    0    0 -0.51536271141E-01  0.12529805445E+00 -0.18834006399E-01  0.89056740873E+00  0.88000000000E+00 0. -1.
        -11    1    4    4    0    0  0.35504230981E-02 -0.81045050862E-01  0.10837348876E-01  0.81845067200E-01  0.51100000000E-03 0.  1.
         11    1    4    4    0    0  0.35245276924E-01 -0.45761153538E-01  0.33067402560E-02  0.57857656111E-01  0.51100000000E-03 0. -1.
</event>
<event>
 8    1  0.2846344E+004  0.1043930E+01  0.7957747E-01            NaN
         13   -1    0    0    0    0  0.00000000000E+00  0.00000000000E+00  0.74505805969E-08  0.10566000000E+00  0.10566000000E+00 0. -1.
     999900   -1    0    0    0    0 -0.00000000000E+00 -0.00000000000E+00 -0.74505805969E-08  0.93827000000E+00  0.93827000000E+00 0.  1.
     999902    2    1    2    0    0  0.15239174202E-02 -0.76998980341E-02  0.11507787390E-01  0.10300001786E+01  0.10299059802E+01 0.  0.
     999903    2    3    3    0    0  0.77228698058E-01  0.10681844645E+00  0.26452827279E-02  0.13931268624E+00  0.45017493501E-01 0.  0.
         14    1    1    2    0    0 -0.15239174202E-02  0.76998980341E-02 -0.11507787390E-01  0.13929821415E-01  0.00000000000E+00 0.  1.
     999901    1    3    3    0    0 -0.75704780637E-01 -0.11451834448E+00  0.88625046618E-02  0.89068749235E+00  0.88000000000E+00 0. -1.
        -11    1    4    4    0    0  0.64891160690E-02  0.42121582290E-01  0.77144652776E-02  0.43314090288E-01  0.51100000000E-03 0. -1.
         11    1    4    4    0    0  0.70739581989E-01  0.64696864158E-01 -0.50691825496E-02  0.95998595951E-01  0.51100000000E-03 0.  1.
</event>
<event>
 8    1  0.2846344E+004  0.1043930E+01  0.7957747E-01            NaN
         13   -1    0    0    0    0  0.00000000000E+00  0.00000000000E+00  0.74505805969E-08  0.10566000000E+00  0.10566000000E+00 0.  1.
     999900   -1    0    0    0    0 -0.00000000000E+00 -0.00000000000E+00 -0.74505805969E-08  0.93827000000E+00  0.93827000000E+00 0.  1.
     999902    2    1    2    0    0  0.82155848722E-02 -0.61396519922E-04  0.11712701508E-01  0.10296231142E+01  0.10295237104E+01 0.  0.
     999903    2    3    3    0    0  0.32634825858E-01 -0.12811299304E+00  0.77647570419E-02  0.14001134666E+00  0.45441334676E-01 0.  0.
         14    1    1    2    0    0 -0.82155848722E-02  0.61396519922E-04 -0.11712701508E-01  0.14306885787E-01  0.00000000000E+00 0. -1.
     999901    1    3    3    0    0 -0.24419240986E-01  0.12805159652E+00  0.39479444658E-02  0.88961176755E+00  0.88000000000E+00 0. -1.
        -11    1    4    4    0    0  0.38742312079E-01 -0.11116626781E+00 -0.51547550658E-02  0.11783776332E+00  0.51100000000E-03 0.  1.
         11    1    4    4    0    0 -0.61074862205E-02 -0.16946725233E-01  0.12919512108E-01  0.22173583340E-01  0.51100000000E-03 0. -1.
</event>
<event>
 8    1  0.2846344E+004  0.1043930E+01  0.7957747E-01            NaN
         13   -1    0    0    0    0  0.00000000000E+00  0.00000000000E+00  0.74505805969E-08  0.10566000000E+00  0.10566000000E+00 0. -1.
     999900   -1    0    0    0    0 -0.00000000000E+00 -0.00000000000E+00 -0.74505805969E-08  0.93827000000E+00  0.93827000000E+00 0. -1.
     999902    2    1    2    0    0 -0.11843633627E-01  0.41450059073E-04  0.56450588911E-02  0.10308097841E+01  0.10307262832E+01 0.  0.
     999903    2    3    3    0    0 -0.45080906419E-01  0.10974520628E+00  0.57802404560E-01  0.14184408220E+00  0.51983913457E-01 0.  0.
         14    1    1    2    0    0  0.11843633627E-01 -0.41450059073E-04 -0.56450588911E-02  0.13120215908E-01  0.00000000000E+00 0.  1.
     999901    1    3    3    0    0  0.33237272792E-01 -0.10970375622E+00 -0.52157345669E-01  0.88896570189E+00  0.88000000000E+00 0. -1.
        -11    1    4    4    0    0 -0.42261816591E-01  0.76639848744E-01  0.16887999698E-01  0.89135813295E-01  0.51100000000E-03 0.  1.
         11    1    4    4    0    0 -0.28190898280E-02  0.33105357533E-01  0.40914404862E-01  0.52708268906E-01  0.51100000000E-03 0. -1.
</event>
<event>
 7    1  0.2846344E+004  0.1043930E+01  0.7957747E-01            NaN
         13   -1    0    0    0    0  0.00000000000E+00  0.00000000000E+00  0.74505805969E-08  0.10566000000E+00  0.10566000000E+00 0. -1.
     999900   -1    0    0    0    0 -0.00000000000E+00 -0.00000000000E+00 -0.74505805969E-08  0.93827000000E+00  0.93827000000E+00 0. -1.
     999903    2    1    2    0    0 -0.44975100199E-01  0.59542130846E-01  0.39811705890E-01  0.95299156145E-01  0.43919611253E-01 0.  0.
         14    1    1    2    0    0 -0.23667694186E-01 -0.52490565640E-01  0.26615812683E-01  0.63433592946E-01  0.00000000000E+00 0.  1.
     999901    1    1    2    0    0  0.68642794385E-01 -0.70515652066E-02 -0.66427518573E-01  0.88519725091E+00  0.88000000000E+00 0. -1.
        -11    1    3    3    0    0 -0.19609911986E-01  0.15262657527E-01  0.36500419815E-01  0.44159247395E-01  0.51100000000E-03 0. -1.
         11    1    3    3    0    0 -0.25365188212E-01  0.44279473319E-01  0.33112860757E-02  0.51139908750E-01  0.51100000000E-03 0.  1.
</event>
<event>
 8    1  0.2846344E+004  0.1043930E+01  0.7957747E-01            NaN
         13   -1    0    0    0    0  0.00000000000E+00  0.00000000000E+00  0.74505805969E-08  0.10566000000E+00  0.10566000000E+00 0.  1.
     999900   -1    0    0    0    0 -0.00000000000E+00 -0.00000000000E+00 -0.74505805969E-08  0.93827000000E+00  0.93827000000E+00 0. -1.
     999902    2    1    2    0    0  0.11996274429E-01 -0.32877227804E-03 -0.65116000945E-02  0.10302764427E+01  0.10301859680E+01 0.  0.
     999903    2    3    3    0    0  0.88599991724E-01 -0.83135691181E-01  0.54492204108E-01  0.14098089033E+00  0.46311007853E-01 0.  0.
         14    1    1    2    0    0 -0.11996274429E-01  0.32877227804E-03  0.65116000945E-02  0.13653557309E-01  0.00000000000E+00 0.  1.
     999901    1    3    3    0    0 -0.76603717295E-01  0.82806918903E-01 -0.61003804203E-01  0.88929555236E+00  0.88000000000E+00 0. -1.
        -11    1    4    4    0    0  0.57338535245E-01 -0.41084183776E-01  0.53563543761E-01  0.88571621425E-01  0.51100000000E-03 0. -1.
         11    1    4    4    0    0  0.31261456479E-01 -0.42051507405E-01  0.92866034682E-03  0.52409268906E-01  0.51100000000E-03 0.  1.
</event>
<event>
 8    1  0.2846344E+004  0.1043930E+01  0.7957747E-01            NaN
         13   -1    0    0    0    0  0.00000000000E+00  0.00000000000E+00  0.74505805969E-08  0.10566000000E+00  0.10566000000E+00 0. -1.
     999900   -1    0    0    0    0 -0.00000000000E+00 -0.00000000000E+00 -0.74505805969E-08  0.93827000000E+00  0.93827000000E+00 0.  1.
     999902    2    1    2    0    0  0.38215118746E-03  0.44277008866E-02  0.13083467956E-01  0.10301123407E+01  0.10300196633E+01 0.  0.
     999903    2    3    3    0    0  0.39171511934E-01  0.81655961050E-01  0.99325733627E-01  0.14168308237E+00  0.44792757754E-01 0.  0.
         14    1    1    2    0    0 -0.38215118746E-03 -0.44277008866E-02 -0.13083467956E-01  0.13817659296E-01  0.00000000000E+00 0.  1.
     999901    1    3    3    0    0 -0.38789360747E-01 -0.77228260163E-01 -0.86242265671E-01  0.88842925833E+00  0.88000000000E+00 0.  1.
        -11    1    4    4    0    0  0.47564882886E-01  0.57659521029E-01  0.65641213661E-01  0.99478985224E-01  0.51100000000E-03 0.  1.
         11    1    4    4    0    0 -0.83933709518E-02  0.23996440021E-01  0.33684519966E-01  0.42204097146E-01  0.51100000000E-03 0. -1.
</event>
<event>
 8    1  0.2846344E+004  0.1043930E+01  0.7957747E-01            NaN
         13   -1    0    0    0    0  0.00000000000E+00  0.00000000000E+00  0.74505805969E-08  0.10566000000E+00  0.10566000000E+00 0.  1.
     999900   -1    0    0    0    0 -0.00000000000E+00 -0.00000000000E+00 -0.74505805969E-08  0.93827000000E+00  0.93827000000E+00 0.  1.
     999902    2    1    2    0    0  0.14952976210E-01  0.50362269890E-02 -0.80955181526E-02  0.10261960638E+01  0.10260428202E+01 0.  0.
     999903    2    3    3    0    0 -0.94748699807E-01  0.70094458273E-01  0.49363475526E-01  0.13514692533E+00  0.44015787093E-01 0.  0.
         14    1    1    2    0    0 -0.14952976210E-01 -0.50362269890E-02  0.80955181526E-02  0.17733936223E-01  0.00000000000E+00 0.  1.
     999901    1    3    3    0    0  0.10970167602E+00 -0.65058231284E-01 -0.57458993678E-01  0.89104913845E+00  0.88000000000E+00 0.  1.
        -11    1    4    4    0    0 -0.29361554027E-01  0.13079918937E-01  0.34450156251E-01  0.47119629890E-01  0.51100000000E-03 0.  1.
         11    1    4    4    0    0 -0.65387145780E-01  0.57014539337E-01  0.14913319275E-01  0.88027295436E-01  0.51100000000E-03 0. -1.
</event>
<event>
 8    1  0.2846344E+004  0.1043930E+01  0.7957747E-01            NaN
         13   -1    0    0    0    0  0.00000000000E+00  0.00000000000E+00  0.74505805969E-08  0.10566000000E+00  0.10566000000E+00 0. -1.
     999900   -1    0    0    0    0 -0.00000000000E+00 -0.00000000000E+00 -0.74505805969E-08  0.93827000000E+00  0.93827000000E+00 0.  1.
     999902    2    1    2    0    0  0.47143282581E-02  0.88538239191E-02  0.93799617914E-02  0.10301968732E+01  0.10301053338E+01 0.  0.
     999903    2    3    3    0    0 -0.64490489461E-01 -0.89613887451E-01 -0.68493197207E-01  0.13859750919E+00  0.48252247989E-01 0.  0.
         14    1    1    2    0    0 -0.47143282581E-02 -0.88538239191E-02 -0.93799617914E-02  0.13733126815E-01  0.00000000000E+00 0.  1.
     999901    1    3    3    0    0  0.69204817719E-01  0.98467711370E-01  0.77873158998E-01  0.89159936399E+00  0.88000000000E+00 0. -1.
        -11    1    4    4    0    0 -0.37158601966E-01 -0.76956686851E-01 -0.31946696459E-01  0.91235661266E-01  0.51100000000E-03 0. -1.
         11    1    4    4    0    0 -0.27331887496E-01 -0.12657200600E-01 -0.36546500749E-01  0.47361847927E-01  0.51100000000E-03 0.  1.
</event>
<event>
 8    1  0.2846344E+004  0.1043930E+01  0.7957747E-01            NaN
         13   -1    0    0    0    0  0.00000000000E+00  0.00000000000E+00  0.74505805969E-08  0.10566000000E+00  0.10566000000E+00 0. -1.
     999900   -1    0    0    0    0 -0.00000000000E+00 -0.00000000000E+00 -0.74505805969E-08  0.93827000000E+00  0.93827000000E+00 0. -1.
     999902    2    1    2    0    0  0.89051246583E-02  0.58445407245E-02 -0.71919400522E-02  0.10310776110E+01  0.10309975053E+01 0.  0.
     999903    2    3    3    0    0  0.74501384643E-01 -0.90388528824E-01 -0.65712399308E-01  0.14147752267E+00  0.44466026815E-01 0.  0.
         14    1    1    2    0    0 -0.89051246583E-02 -0.58445407245E-02  0.71919400522E-02  0.12852389007E-01  0.00000000000E+00 0.  1.
     999901    1    3    3    0    0 -0.65596259984E-01  0.96233069548E-01  0.58520459256E-01  0.88960008833E+00  0.88000000000E+00 0.  1.
        -11    1    4    4    0    0  0.70733399072E-01 -0.65712040310E-01 -0.36918030428E-01  0.10336579743E+00  0.51100000000E-03 0.  1.
         11    1    4    4    0    0  0.37679855707E-02 -0.24676488513E-01 -0.28794368880E-01  0.38111725240E-01  0.51100000000E-03 0. -1.
</event>
<event>
 8    1  0.2846344E+004  0.1043930E+01  0.7957747E-01            NaN
         13   -1    0    0    0    0  0.00000000000E+00  0.00000000000E+00  0.74505805969E-08  0.10566000000E+00  0.10566000000E+00 0. -1.
     999900   -1    0    0    0    0 -0.00000000000E+00 -0.00000000000E+00 -0.74505805969E-08  0.93827000000E+00  0.93827000000E+00 0.  1.
     999902    2    1    2    0    0 -0.57581154623E-02 -0.48656321487E-02 -0.56894287534E-02  0.10344854318E+01  0.10344423177E+01 0.  0.
     999903    2    3    3    0    0  0.61041756593E-01  0.87697553938E-01 -0.84498718490E-01  0.14362008251E+00  0.45494369536E-01 0.  0.
         14    1    1    2    0    0  0.57581154623E-02  0.48656321487E-02  0.56894287534E-02  0.94445682497E-02  0.00000000000E+00 0. -1.
     999901    1    3    3    0    0 -0.66799872055E-01 -0.92563186087E-01  0.78809289737E-01  0.89086534924E+00  0.88000000000E+00 0. -1.
        -11    1    4    4    0    0 -0.19958063423E-02  0.22596391254E-01 -0.53763900699E-02  0.23318379700E-01  0.51100000000E-03 0. -1.
         11    1    4    4    0    0  0.63037562935E-01  0.65101162684E-01 -0.79122328420E-01  0.12030170281E+00  0.51100000000E-03 0.  1.
</event>
<event>
 8    1  0.2846344E+004  0.1043930E+01  0.7957747E-01            NaN
         13   -1    0    0    0    0  0.00000000000E+00  0.00000000000E+00  0.74505805969E-08  0.10566000000E+00  0.10566000000E+00 0.  1.
     999900   -1    0    0    0    0 -0.00000000000E+00 -0.00000000000E+00 -0.74505805969E-08  0.93827000000E+00  0.93827000000E+00 0.  1.
     999902    2    1    2    0    0  0.84193494114E-02  0.50552418332E-02 -0.10591777238E-01  0.10294860857E+01  0.10293847551E+01 0.  0.
     999903    2    3    3    0    0  0.88883472406E-01  0.98838902281E-01 -0.19744516392E-01  0.14080525287E+00  0.42034188899E-01 0.  0.
         14    1    1    2    0    0 -0.84193494114E-02 -0.50552418332E-02  0.10591777238E-01  0.14443914274E-01  0.00000000000E+00 0. -1.
     999901    1    3    3    0    0 -0.80464122994E-01 -0.93783660448E-01  0.91527391537E-02  0.88868083286E+00  0.88000000000E+00 0.  1.
        -11    1    4    4    0    0  0.84457541584E-01  0.80364807429E-01 -0.48931489620E-02  0.11668668575E+00  0.51100000000E-03 0. -1.
         11    1    4    4    0    0  0.44259308212E-02  0.18474094852E-01 -0.14851367430E-01  0.24118567117E-01  0.51100000000E-03 0.  1.
</event>
<event>
 8    1  0.2846344E+004  0.1043930E+01  0.7957747E-01            NaN
         13   -1    0    0    0    0  0.00000000000E+00  0.00000000000E+00  0.74505805969E-08  0.10566000000E+00  0.10566000000E+00 0.  1.
     999900   -1    0    0    0    0 -0.00000000000E+00 -0.00000000000E+00 -0.74505805969E-08  0.93827000000E+00  0.93827000000E+00 0. -1.
     999902    2    1    2    0    0  0.72992039030E-02 -0.11496323522E-01  0.30499198152E-02  0.10299748632E+01  0.10298803197E+01 0.  0.
     999903    2    3    3    0    0  0.17824772723E-01  0.10866246371E+00  0.71264069670E-01  0.13913139099E+00  0.46408218995E-01 0.  0.
         14    1    1    2    0    0 -0.72992039030E-02  0.11496323522E-01 -0.30499198152E-02  0.13955136797E-01  0.00000000000E+00 0.  1.
     999901    1    3    3    0    0 -0.10525568820E-01 -0.12015878723E+00 -0.68214149855E-01  0.89084347222E+00  0.88000000000E+00 0. -1.
        -11    1    4    4    0    0 -0.74907250246E-02  0.74937640263E-01  0.57554077566E-01  0.94786570015E-01  0.51100000000E-03 0.  1.
         11    1    4    4    0    0  0.25315497747E-01  0.33724823447E-01  0.13709992104E-01  0.44344820974E-01  0.51100000000E-03 0. -1.
</event>
<event>
 7    1  0.2846344E+004  0.1043930E+01  0.7957747E-01            NaN
         13   -1    0    0    0    0  0.00000000000E+00  0.00000000000E+00  0.74505805969E-08  0.10566000000E+00  0.10566000000E+00 0. -1.
     999900   -1    0    0    0    0 -0.00000000000E+00 -0.00000000000E+00 -0.74505805969E-08  0.93827000000E+00  0.93827000000E+00 0. -1.
     999903    2    1    2    0    0 -0.17242325826E-01 -0.51530871129E-01  0.73102529346E-01  0.10157642566E+00  0.44956222853E-01 0.  0.
         14    1    1    2    0    0 -0.42403519398E-01  0.34286134540E-01  0.12740371330E-01  0.55999236965E-01  0.00000000000E+00 0.  1.
     999901    1    1    2    0    0  0.59645845224E-01  0.17244736589E-01 -0.85842900675E-01  0.88635433738E+00  0.88000000000E+00 0. -1.
        -11    1    3    3    0    0 -0.26640695148E-01 -0.31248636701E-01  0.66681846726E-01  0.78313049599E-01  0.51100000000E-03 0.  1.
         11    1    3    3    0    0  0.93983693220E-02 -0.20282234428E-01  0.64206826194E-02  0.23263376058E-01  0.51100000000E-03 0. -1.
</event>
<event>
 8    1  0.2846344E+004  0.1043930E+01  0.7957747E-01            NaN
         13   -1    0    0    0    0  0.00000000000E+00  0.00000000000E+00  0.74505805969E-08  0.10566000000E+00  0.10566000000E+00 0. -1.
     999900   -1    0    0    0    0 -0.00000000000E+00 -0.00000000000E+00 -0.74505805969E-08  0.93827000000E+00  0.93827000000E+00 0. -1.
     999902    2    1    2    0    0 -0.16598295074E-02 -0.93390665095E-02 -0.11960444722E-01  0.10286648293E+01  0.10285515571E+01 0.  0.
     999903    2    3    3    0    0 -0.73536199222E-02  0.71475225709E-01  0.10744208856E+00  0.13691355571E+00  0.45152361235E-01 0.  0.
         14    1    1    2    0    0  0.16598295074E-02  0.93390665095E-02  0.11960444722E-01  0.15265170658E-01  0.00000000000E+00 0. -1.
     999901    1    3    3    0    0  0.56937904148E-02 -0.80814292219E-01 -0.11940253329E+00  0.89175127364E+00  0.88000000000E+00 0. -1.
        -11    1    4    4    0    0  0.20791947331E-02  0.62822429767E-01  0.10699719280E+00  0.12409529049E+00  0.51100000000E-03 0. -1.
         11    1    4    4    0    0 -0.94328146553E-02  0.86527959419E-02  0.44489575912E-03  0.12818265217E-01  0.51100000000E-03 0.  1.
</event>
<event>
 8    1  0.2846344E+004  0.1043930E+01  0.7957747E-01            NaN
         13   -1    0    0    0    0  0.00000000000E+00  0.00000000000E+00  0.74505805969E-08  0.10566000000E+00  0.10566000000E+00 0. -1.
     999900   -1    0    0    0    0 -0.00000000000E+00 -0.00000000000E+00 -0.74505805969E-08  0.93827000000E+00  0.93827000000E+00 0.  1.
     999902    2    1    2    0    0  0.93835983966E-02  0.11446878546E-01  0.78408320533E-02  0.10271800270E+01  0.10270434491E+01 0.  0.
     999903    2    3    3    0    0  0.97311574651E-02  0.71690773229E-01  0.10949622707E+00  0.13928179695E+00  0.46644751337E-01 0.  0.
         14    1    1    2    0    0 -0.93835983966E-02 -0.11446878546E-01 -0.78408320533E-02  0.16749972973E-01  0.00000000000E+00 0.  1.
     999901    1    3    3    0    0 -0.34755906843E-03 -0.60243894683E-01 -0.10165539501E+00  0.88789823008E+00  0.88000000000E+00 0.  1.
        -11    1    4    4    0    0  0.21651132621E-01  0.13277927344E-01  0.23261717262E-01  0.34444789291E-01  0.51100000000E-03 0.  1.
         11    1    4    4    0    0 -0.11919975156E-01  0.58412845885E-01  0.86234509803E-01  0.10483700766E+00  0.51100000000E-03 0. -1.
</event>
<event>
 8    1  0.2846344E+004  0.1043930E+01  0.7957747E-01            NaN
         13   -1    0    0    0    0  0.00000000000E+00  0.00000000000E+00  0.74505805969E-08  0.10566000000E+00  0.10566000000E+00 0. -1.
     999900   -1    0    0    0    0 -0.00000000000E+00 -0.00000000000E+00 -0.74505805969E-08  0.93827000000E+00  0.93827000000E+00 0. -1.
     999902    2    1    2    0    0  0.93436489647E-02 -0.31907647277E-02  0.96977573832E-02  0.10300905183E+01  0.10299975459E+01 0.  0.
     999903    2    3    3    0    0  0.10942927239E+00  0.75348763551E-01  0.13989173125E-01  0.14093136170E+00  0.44874825015E-01 0.  0.
         14    1    1    2    0    0 -0.93436489647E-02  0.31907647277E-02 -0.96977573832E-02  0.13839481702E-01  0.00000000000E+00 0.  1.
     999901    1    3    3    0    0 -0.10008562343E+00 -0.78539528279E-01 -0.42914157419E-02  0.88915915660E+00  0.88000000000E+00 0. -1.
        -11    1    4    4    0    0  0.51888296853E-01  0.31333888253E-01 -0.15731100120E-01  0.62625366548E-01  0.51100000000E-03 0.  1.
         11    1    4    4    0    0  0.57540975538E-01  0.44014875298E-01  0.29720273245E-01  0.78305995148E-01  0.51100000000E-03 0. -1.
</event>
<event>
 8    1  0.2846344E+004  0.1043930E+01  0.7957747E-01            NaN
         13   -1    0    0    0    0  0.00000000000E+00  0.00000000000E+00  0.74505805969E-08  0.10566000000E+00  0.10566000000E+00 0. -1.
     999900   -1    0    0    0    0 -0.00000000000E+00 -0.00000000000E+00 -0.74505805969E-08  0.93827000000E+00  0.93827000000E+00 0. -1.
     999902    2    1    2    0    0 -0.13750120998E-02 -0.55603017302E-02 -0.11876989966E-01  0.10307440035E+01  0.10306596578E+01 0.  0.
     999903    2    3    3    0    0  0.72218529614E-02 -0.12377347614E+00 -0.53155328312E-01  0.14183896811E+00  0.43826651589E-01 0.  0.
         14    1    1    2    0    0  0.13750120998E-02  0.55603017302E-02  0.11876989966E-01  0.13185996521E-01  0.00000000000E+00 0. -1.
     999901    1    3    3    0    0 -0.85968650612E-02  0.11821317441E+00  0.41278338347E-01  0.88890503537E+00  0.88000000000E+00 0.  1.
        -11    1    4    4    0    0  0.10802509083E-01 -0.12037549006E+00 -0.39248902705E-01  0.12707356253E+00  0.51100000000E-03 0. -1.
         11    1    4    4    0    0 -0.35806561219E-02 -0.33979860806E-02 -0.13906425607E-01  0.14765405576E-01  0.51100000000E-03 0.  1.
</event>
<event>
 8    1  0.2846344E+004  0.1043930E+01  0.7957747E-01            NaN
         13   -1    0    0    0    0  0.00000000000E+00  0.00000000000E+00  0.74505805969E-08  0.10566000000E+00  0.10566000000E+00 0.  1.
     999900   -1    0    0    0    0 -0.00000000000E+00 -0.00000000000E+00 -0.74505805969E-08  0.93827000000E+00  0.93827000000E+00 0.  1.
     999902    2    1    2    0    0 -0.45555798145E-02 -0.29204050412E-02 -0.14162519325E-01  0.10287688976E+01  0.10286571759E+01 0.  0.
     999903    2    3    3    0    0  0.11216173678E+00  0.44954107124E-01  0.48376027321E-01  0.13757533234E+00  0.44560129075E-01 0.  0.
         14    1    1    2    0    0  0.45555798145E-02  0.29204050412E-02  0.14162519325E-01  0.15161102423E-01  0.00000000000E+00 0.  1.
     999901    1    3    3    0    0 -0.11671731660E+00 -0.47874512165E-01 -0.62538546645E-01  0.89119356524E+00  0.88000000000E+00 0.  1.
        -11    1    4    4    0    0  0.55799901277E-02 -0.22745488135E-02  0.15214587798E-01  0.16372375056E-01  0.51100000000E-03 0.  1.
         11    1    4    4    0    0  0.10658174665E+00  0.47228655937E-01  0.33161439523E-01  0.12120295728E+00  0.51100000000E-03 0. -1.
</event>
<event>
 8    1  0.2846344E+004  0.1043930E+01  0.7957747E-01            NaN
         13   -1    0    0    0    0  0.00000000000E+00  0.00000000000E+00  0.74505805969E-08  0.10566000000E+00  0.10566000000E+00 0.  1.
     999900   -1    0    0    0    0 -0.00000000000E+00 -0.00000000000E+00 -0.74505805969E-08  0.93827000000E+00  0.93827000000E+00 0.  1.
     999902    2    1    2    0    0 -0.13074982228E-01  0.65708869949E-03 -0.36725506241E-02  0.10303331418E+01  0.10302434219E+01 0.  0.
     999903    2    3    3    0    0 -0.11833664182E+00  0.37035873193E-01  0.53112355939E-01  0.14149797225E+00  0.42726304532E-01 0.  0.
         14    1    1    2    0    0  0.13074982228E-01 -0.65708869949E-03  0.36725506241E-02  0.13596858237E-01  0.00000000000E+00 0.  1.
     999901    1    3    3    0    0  0.10526165959E+00 -0.36378784493E-01 -0.56784906563E-01  0.88883516951E+00  0.88000000000E+00 0. -1.
        -11    1    4    4    0    0 -0.53345013385E-01 -0.49999710665E-02  0.18222340570E-01  0.56595096789E-01  0.51100000000E-03 0.  1.
         11    1    4    4    0    0 -0.64991628433E-01  0.42035844259E-01  0.34890015369E-01  0.84902875466E-01  0.51100000000E-03 0. -1.
</event>
<event>
 7    1  0.2846344E+004  0.1043930E+01  0.7957747E-01            NaN
         13   -1    0    0    0    0  0.00000000000E+00  0.00000000000E+00  0.74505805969E-08  0.10566000000E+00  0.10566000000E+00 0. -1.
     999900   -1    0    0    0    0 -0.00000000000E+00 -0.00000000000E+00 -0.74505805969E-08  0.93827000000E+00  0.93827000000E+00 0.  1.
     999903    2    1    2    0    0  0.61239743130E-01  0.35717329285E-01 -0.17703746643E-02  0.84171851384E-01  0.45340187353E-01 0.  0.
         14    1    1    2    0    0  0.10749829019E-01 -0.26931403262E-01  0.68371477301E-01  0.74266534953E-01  0.00000000000E+00 0. -1.
     999901    1    1    2    0    0 -0.71989572149E-01 -0.87859260231E-02 -0.66601102637E-01  0.88549161366E+00  0.88000000000E+00 0.  1.
        -11    1    3    3    0    0  0.61568218685E-01  0.27221653476E-01  0.11607241661E-01  0.68312906174E-01  0.51100000000E-03 0.  1.
         11    1    3    3    0    0 -0.32847555536E-03  0.84956758088E-02 -0.13377616325E-01  0.15858945210E-01  0.51100000000E-03 0. -1.
</event>
<event>
 8    1  0.2846344E+004  0.1043930E+01  0.7957747E-01            NaN
         13   -1    0    0    0    0  0.00000000000E+00  0.00000000000E+00  0.74505805969E-08  0.10566000000E+00  0.10566000000E+00 0. -1.
     999900   -1    0    0    0    0 -0.00000000000E+00 -0.00000000000E+00 -0.74505805969E-08  0.93827000000E+00  0.93827000000E+00 0.  1.
     999902    2    1    2    0    0  0.62483798732E-02  0.10698978865E-01  0.63966867257E-02  0.10299862559E+01  0.10298918677E+01 0.  0.
     999903    2    3    3    0    0  0.27917198986E-01 -0.48791818470E-01 -0.11907334256E+00  0.13883451740E+00  0.44006258249E-01 0.  0.
         14    1    1    2    0    0 -0.62483798732E-02 -0.10698978865E-01 -0.63966867257E-02  0.13943744148E-01  0.00000000000E+00 0.  1.
     999901    1    3    3    0    0 -0.21668819113E-01  0.59490797335E-01  0.12547002929E+00  0.89115173845E+00  0.88000000000E+00 0. -1.
        -11    1    4    4    0    0  0.17865146189E-01 -0.47615264030E-01 -0.58923853396E-01  0.77837384572E-01  0.51100000000E-03 0. -1.
         11    1    4    4    0    0  0.10052052798E-01 -0.11765544399E-02 -0.60149489166E-01  0.60997132832E-01  0.51100000000E-03 0.  1.
</event>
<event>
 8    1  0.2846344E+004  0.1043930E+01  0.7957747E-01            NaN
         13   -1    0    0    0    0  0.00000000000E+00  0.00000000000E+00  0.74505805969E-08  0.10566000000E+00  0.10566000000E+00 0.  1.
     999900   -1    0    0    0    0 -0.00000000000E+00 -0.00000000000E+00 -0.74505805969E-08  0.93827000000E+00  0.93827000000E+00 0.  1.
     999902    2    1    2    0    0  0.11140112848E-01  0.50451586951E-02  0.67100438317E-02  0.10299807911E+01  0.10298863285E+01 0.  0.
     999903    2    3    3    0    0  0.12561611010E+00  0.24576022177E-01  0.40474852452E-01  0.14170928370E+00  0.45386335177E-01 0.  0.
         14    1    1    2    0    0 -0.11140112848E-01 -0.50451586951E-02 -0.67100438317E-02  0.13949208893E-01  0.00000000000E+00 0. -1.
     999901    1    3    3    0    0 -0.11447599726E+00 -0.19530863482E-01 -0.33764808621E-01  0.88827150741E+00  0.88000000000E+00 0. -1.
        -11    1    4    4    0    0  0.50564637386E-01 -0.35390181293E-02  0.34547369835E-01  0.61344022421E-01  0.51100000000E-03 0. -1.
         11    1    4    4    0    0  0.75051472718E-01  0.28115040306E-01  0.59274826176E-02  0.80365261275E-01  0.51100000000E-03 0.  1.
</event>
<event>
 8    1  0.2846344E+004  0.1043930E+01  0.7957747E-01            NaN
         13   -1    0    0    0    0  0.00000000000E+00  0.00000000000E+00  0.74505805969E-08  0.10566000000E+00  0.10566000000E+00 0.  1.
     999900   -1    0    0    0    0 -0.00000000000E+00 -0.00000000000E+00 -0.74505805969E-08  0.93827000000E+00  0.93827000000E+00 0.  1.
     999902    2    1    2    0    0  0.90035416360E-02 -0.92998935053E-02 -0.22240098441E-02  0.10307961506E+01  0.10307124750E+01 0.  0.
     999903    2    3    3    0    0  0.73686533279E-01 -0.68125621830E-01  0.89465870137E-01  0.14172281849E+00  0.44837593870E-01 0.  0.
         14    1    1    2    0    0 -0.90035416360E-02  0.92998935053E-02  0.22240098441E-02  0.13133849435E-01  0.00000000000E+00 0.  1.
     999901    1    3    3    0    0 -0.64682991643E-01  0.58825728324E-01 -0.91689879981E-01  0.88907333208E+00  0.88000000000E+00 0.  1.
        -11    1    4    4    0    0  0.51409094649E-01 -0.54355461459E-01  0.37864392198E-01  0.83853351278E-01  0.51100000000E-03 0. -1.
         11    1    4    4    0    0  0.22277438631E-01 -0.13770160371E-01  0.51601477939E-01  0.57869467209E-01  0.51100000000E-03 0.  1.
</event>
<event>
 8    1  0.2846344E+004  0.1043930E+01  0.7957747E-01            NaN
         13   -1    0    0    0    0  0.00000000000E+00  0.00000000000E+00  0.74505805969E-08  0.10566000000E+00  0.10566000000E+00 0.  1.
     999900   -1    0    0    0    0 -0.00000000000E+00 -0.00000000000E+00 -0.74505805969E-08  0.93827000000E+00  0.93827000000E+00 0.  1.
     999902    2    1    2    0    0  0.20187119559E-02 -0.12672802052E-01  0.46803314450E-02  0.10302705486E+01  0.10301799953E+01 0.  0.
     999903    2    3    3    0    0  0.41641919307E-01  0.12438991660E+00 -0.37814999283E-03  0.13876520615E+00  0.45262994193E-01 0.  0.
         14    1    1    2    0    0 -0.20187119559E-02  0.12672802052E-01 -0.46803314450E-02  0.13659451389E-01  0.00000000000E+00 0.  1.
     999901    1    3    3    0    0 -0.39623207351E-01 -0.13706271866E+00  0.50584814378E-02  0.89150534246E+00  0.88000000000E+00 0.  1.
        -11    1    4    4    0    0  0.26017680123E-01  0.19596272744E-01 -0.35185439840E-02  0.32765452190E-01  0.51100000000E-03 0.  1.
         11    1    4    4    0    0  0.15624239184E-01  0.10479364386E+00  0.31403939912E-02  0.10599975396E+00  0.51100000000E-03 0. -1.
</event>
<event>
 8    1  0.2846344E+004  0.1043930E+01  0.7957747E-01            NaN
         13   -1    0    0    0    0  0.00000000000E+00  0.00000000000E+00  0.74505805969E-08  0.10566000000E+00  0.10566000000E+00 0.  1.
     999900   -1    0    0    0    0 -0.00000000000E+00 -0.00000000000E+00 -0.74505805969E-08  0.93827000000E+00  0.93827000000E+00 0. -1.
     999902    2    1    2    0    0 -0.65477712345E-02 -0.78984638538E-02 -0.95631914810E-02  0.10299045349E+01  0.10298090296E+01 0.  0.
     999903    2    3    3    0    0 -0.36537290249E-02 -0.12215816984E+00 -0.55485942996E-01  0.14132558232E+00  0.44252255917E-01 0.  0.
         14    1    1    2    0    0  0.65477712345E-02  0.78984638538E-02  0.95631914810E-02  0.14025465079E-01  0.00000000000E+00 0. -1.
     999901    1    3    3    0    0 -0.28940422096E-02  0.11425970599E+00  0.45922751515E-01  0.88857895260E+00  0.88000000000E+00 0.  1.
        -11    1    4    4    0    0  0.17166749316E-01 -0.80631392625E-01 -0.26620779071E-01  0.86631667178E-01  0.51100000000E-03 0. -1.
         11    1    4    4    0    0 -0.20820478341E-01 -0.41526777217E-01 -0.28865163925E-01  0.54693915145E-01  0.51100000000E-03 0.  1.
</event>
<event>
 8    1  0.2846344E+004  0.1043930E+01  0.7957747E-01            NaN
         13   -1    0    0    0    0  0.00000000000E+00  0.00000000000E+00  0.74505805969E-08  0.10566000000E+00  0.10566000000E+00 0.  1.
     999900   -1    0    0    0    0 -0.00000000000E+00 -0.00000000000E+00 -0.74505805969E-08  0.93827000000E+00  0.93827000000E+00 0.  1.
     999902    2    1    2    0    0  0.35815856358E-02  0.10834331482E-01 -0.83568104532E-02  0.10297862107E+01  0.10296890759E+01 0.  0.
     999903    2    3    3    0    0 -0.60736489983E-01  0.86204385502E-01  0.79902919243E-01  0.13983832473E+00  0.45278728597E-01 0.  0.
         14    1    1    2    0    0 -0.35815856358E-02 -0.10834331482E-01  0.83568104532E-02  0.14143789283E-01  0.00000000000E+00 0.  1.
     999901    1    3    3    0    0  0.64318075619E-01 -0.75370054021E-01 -0.88259729696E-01  0.88994788599E+00  0.88000000000E+00 0.  1.
        -11    1    4    4    0    0 -0.58930831849E-01  0.46859408903E-01  0.54920310925E-01  0.93194145836E-01  0.51100000000E-03 0.  1.
         11    1    4    4    0    0 -0.18056581344E-02  0.39344976600E-01  0.24982608318E-01  0.46644178890E-01  0.51100000000E-03 0. -1.
</event>
<event>
 7    1  0.2846344E+004  0.1043930E+01  0.7957747E-01            NaN
         13   -1    0    0    0    0  0.00000000000E+00  0.00000000000E+00  0.74505805969E-08  0.10566000000E+00  0.10566000000E+00 0.  1.
     999900   -1    0    0    0    0 -0.00000000000E+00 -0.00000000000E+00 -0.74505805969E-08  0.93827000000E+00  0.93827000000E+00 0. -1.
     999903    2    1    2    0    0  0.77730599971E-01  0.52905265200E-01  0.57402292056E-01  0.11942921567E+00  0.46122675174E-01 0.  0.
         14    1    1    2    0    0 -0.14418629555E-01 -0.34950105356E-01 -0.16055691396E-01  0.41075442406E-01  0.00000000000E+00 0. -1.
     999901    1    1    2    0    0 -0.63311970416E-01 -0.17955159844E-01 -0.41346600661E-01  0.88342534192E+00  0.88000000000E+00 0. -1.
        -11    1    3    3    0    0  0.83751464749E-02 -0.51417915153E-03 -0.68437041409E-02  0.10839966146E-01  0.51100000000E-03 0. -1.
         11    1    3    3    0    0  0.69355453496E-01  0.53419444352E-01  0.64245996197E-01  0.10858924953E+00  0.51100000000E-03 0.  1.
</event>
<event>
 8    1  0.2846344E+004  0.1043930E+01  0.7957747E-01            NaN
         13   -1    0    0    0    0  0.00000000000E+00  0.00000000000E+00  0.74505805969E-08  0.10566000000E+00  0.10566000000E+00 0.  1.
     999900   -1    0    0    0    0 -0.00000000000E+00 -0.00000000000E+00 -0.74505805969E-08  0.93827000000E+00  0.93827000000E+00 0. -1.
     999902    2    1    2    0    0  0.25983603520E-02 -0.95103465042E-02 -0.97525084362E-02  0.10300624267E+01  0.10299690740E+01 0.  0.
     999903    2    3    3    0    0  0.70125578954E-01 -0.97134202806E-01 -0.60515502287E-01  0.14168483417E+00  0.45385196248E-01 0.  0.
         14    1    1    2    0    0 -0.25983603520E-02  0.95103465042E-02  0.97525084362E-02  0.13867573254E-01  0.00000000000E+00 0.  1.
     999901    1    3    3    0    0 -0.67527218602E-01  0.87623856302E-01  0.50762993851E-01  0.88837759258E+00  0.88000000000E+00 0.  1.
        -11    1    4    4    0    0  0.21317997989E-01 -0.19899374412E-01  0.45491758428E-02  0.29519455654E-01  0.51100000000E-03 0.  1.
         11    1    4    4    0    0  0.48807580966E-01 -0.77234828394E-01 -0.65064678130E-01  0.11216537852E+00  0.51100000000E-03 0. -1.
</event>
<event>
 8    1  0.2846344E+004  0.1043930E+01  0.7957747E-01            NaN
         13   -1    0    0    0    0  0.00000000000E+00  0.00000000000E+00  0.74505805969E-08  0.10566000000E+00  0.10566000000E+00 0.  1.
     999900   -1    0    0    0    0 -0.00000000000E+00 -0.00000000000E+00 -0.74505805969E-08  0.93827000000E+00  0.93827000000E+00 0.  1.
     999902    2    1    2    0    0 -0.71342546712E-02 -0.63945594504E-02  0.10049888035E-01  0.10300451799E+01  0.10299515932E+01 0.  0.
     999903    2    3    3    0    0  0.55390234660E-01 -0.67849833170E-01  0.10015066988E+00  0.14111086660E+00  0.47015338327E-01 0.  0.
         14    1    1    2    0    0  0.71342546712E-02  0.63945594504E-02 -0.10049888035E-01  0.13884820121E-01  0.00000000000E+00 0. -1.
     999901    1    3    3    0    0 -0.62524489331E-01  0.61455273719E-01 -0.90100781848E-01  0.88893431328E+00  0.88000000000E+00 0.  1.
        -11    1    4    4    0    0  0.11721801822E-01 -0.49688871518E-01  0.41696782848E-01  0.65918642367E-01  0.51100000000E-03 0.  1.
         11    1    4    4    0    0  0.43668432838E-01 -0.18160961652E-01  0.58453887035E-01  0.75192224233E-01  0.51100000000E-03 0. -1.
</event>
<event>
 8    1  0.2846344E+004  0.1043930E+01  0.7957747E-01            NaN
         13   -1    0    0    0    0  0.00000000000E+00  0.00000000000E+00  0.74505805969E-08  0.10566000000E+00  0.10566000000E+00 0.  1.
     999900   -1    0    0    0    0 -0.00000000000E+00 -0.00000000000E+00 -0.74505805969E-08  0.93827000000E+00  0.93827000000E+00 0.  1.
     999902    2    1    2    0    0 -0.96943307303E-02  0.80979891146E-02  0.59348090704E-02  0.10299736597E+01  0.10298790998E+01 0.  0.
     999903    2    3    3    0    0 -0.46828678439E-01 -0.24150641950E-01 -0.12162803969E+00  0.13941697179E+00  0.43214966767E-01 0.  0.
         14    1    1    2    0    0  0.96943307303E-02 -0.80979891146E-02 -0.59348090704E-02  0.13956340305E-01  0.00000000000E+00 0.  1.
     999901    1    3    3    0    0  0.37134347708E-01  0.32248631065E-01  0.12756284876E+00  0.89055668790E+00  0.88000000000E+00 0. -1.
        -11    1    4    4    0    0 -0.50676356844E-04 -0.16167772519E-01 -0.12586456626E-01  0.20495839766E-01  0.51100000000E-03 0.  1.
         11    1    4    4    0    0 -0.46778002082E-01 -0.79828694311E-02 -0.10904158307E+00  0.11892113202E+00  0.51100000000E-03 0. -1.
</event>
<event>
 7    1  0.2846344E+004  0.1043930E+01  0.7957747E-01            NaN
         13   -1    0    0    0    0  0.00000000000E+00  0.00000000000E+00  0.74505805969E-08  0.10566000000E+00  0.10566000000E+00 0. -1.
     999900   -1    0    0    0    0 -0.00000000000E+00 -0.00000000000E+00 -0.74505805969E-08  0.93827000000E+00  0.93827000000E+00 0.  1.
     999902    2    1    2    0    0  0.18992017490E-02 -0.22670480990E-01  0.38605329985E-02  0.10208548751E+01  0.10205940498E+01 0.  0.
         14    1    1    2    0    0 -0.18992017490E-02  0.22670480990E-01 -0.38605329985E-02  0.23075124932E-01  0.00000000000E+00 0.  1.
     999901    1    3    3    0    0 -0.92289947357E-01 -0.68041067944E-01  0.38398671527E-01  0.88826881026E+00  0.88000000000E+00 0.  1.
        -11    1    3    3    0    0  0.63182892484E-01  0.60665886420E-01 -0.42108619336E-01  0.97189632272E-01  0.51100000000E-03 0.  1.
         11    1    3    3    0    0  0.31006256622E-01 -0.15295299465E-01  0.75704808079E-02  0.35396432534E-01  0.51100000000E-03 0. -1.
</event>
<event>
 8    1  0.2846344E+004  0.1043930E+01  0.7957747E-01            NaN
         13   -1    0    0    0    0  0.00000000000E+00  0.00000000000E+00  0.74505805969E-08  0.10566000000E+00  0.10566000000E+00 0. -1.
     999900   -1    0    0    0    0 -0.00000000000E+00 -0.00000000000E+00 -0.74505805969E-08  0.93827000000E+00  0.93827000000E+00 0. -1.
     999902    2    1    2    0    0 -0.99209825228E-02  0.20626839298E-02 -0.97433160189E-02  0.10298725192E+01  0.10297765743E+01 0.  0.
     999903    2    3    3    0    0 -0.12446174126E-01  0.13186311138E+00  0.78964690552E-02  0.14017274424E+00  0.45202396083E-01 0.  0.
         14    1    1    2    0    0  0.99209825228E-02 -0.20626839298E-02  0.97433160189E-02  0.14057480793E-01  0.00000000000E+00 0. -1.
     999901    1    3    3    0    0  0.25251916031E-02 -0.12980042745E+00 -0.17639785074E-01  0.88969977497E+00  0.88000000000E+00 0. -1.
        -11    1    4    4    0    0 -0.26875915132E-01  0.71992789418E-01 -0.58520815079E-02  0.77069997543E-01  0.51100000000E-03 0. -1.
         11    1    4    4    0    0  0.14429741006E-01  0.59870321960E-01  0.13748550563E-01  0.63102746696E-01  0.51100000000E-03 0.  1.
</event>
<event>
 8    1  0.2846344E+004  0.1043930E+01  0.7957747E-01            NaN
         13   -1    0    0    0    0  0.00000000000E+00  0.00000000000E+00  0.74505805969E-08  0.10566000000E+00  0.10566000000E+00 0. -1.
     999900   -1    0    0    0    0 -0.00000000000E+00 -0.00000000000E+00 -0.74505805969E-08  0.93827000000E+00  0.93827000000E+00 0.  1.
     999902    2    1    2    0    0  0.11498496040E-01  0.45894956107E-02  0.45858740009E-02  0.10307273820E+01  0.10306428222E+01 0.  0.
     999903    2    3    3    0    0  0.57060642559E-01 -0.62410753020E-01  0.10010729426E+00  0.14185771540E+00  0.54324230630E-01 0.  0.
         14    1    1    2    0    0 -0.11498496040E-01 -0.45894956107E-02 -0.45858740009E-02  0.13202617979E-01  0.00000000000E+00 0.  1.
     999901    1    3    3    0    0 -0.45562146519E-01  0.67000248631E-01 -0.95521420254E-01  0.88886966662E+00  0.88000000000E+00 0.  1.
        -11    1    4    4    0    0  0.24002222702E-01 -0.44797127894E-01  0.89498715748E-01  0.10292312959E+00  0.51100000000E-03 0.  1.
         11    1    4    4    0    0  0.33058419857E-01 -0.17613625126E-01  0.10608578507E-01  0.38934585814E-01  0.51100000000E-03 0. -1.
</event>
<event>
 8    1  0.2846344E+004  0.1043930E+01  0.7957747E-01            NaN
         13   -1    0    0    0    0  0.00000000000E+00  0.00000000000E+00  0.74505805969E-08  0.10566000000E+00  0.10566000000E+00 0.  1.
     999900   -1    0    0    0    0 -0.00000000000E+00 -0.00000000000E+00 -0.74505805969E-08  0.93827000000E+00  0.93827000000E+00 0. -1.
     999902    2    1    2    0    0  0.13627209138E-01  0.23356730879E-01  0.77626587250E-02  0.10157964510E+01  0.10154067822E+01 0.  0.
     999903    2    3    3    0    0 -0.11234419249E+00  0.23114757527E-01 -0.26889138010E-01  0.12615067907E+00  0.45116055749E-01 0.  0.
         14    1    1    2    0    0 -0.13627209138E-01 -0.23356730879E-01 -0.77626587250E-02  0.28133548954E-01  0.00000000000E+00 0.  1.
     999901    1    3    3    0    0  0.12597140162E+00  0.24197335236E-03  0.34651796735E-01  0.88964577198E+00  0.88000000000E+00 0. -1.
        -11    1    4    4    0    0 -0.52914730753E-01  0.15387533131E-01 -0.35572861484E-01  0.65592945518E-01  0.51100000000E-03 0. -1.
         11    1    4    4    0    0 -0.59429461732E-01  0.77272243956E-02  0.86837234746E-02  0.60557733553E-01  0.51100000000E-03 0.  1.
</event>
<event>
 8    1  0.2846344E+004  0.1043930E+01  0.7957747E-01            NaN
         13   -1    0    0    0    0  0.00000000000E+00  0.00000000000E+00  0.74505805969E-08  0.10566000000E+00  0.10566000000E+00 0. -1.
     999900   -1    0    0    0    0 -0.00000000000E+00 -0.00000000000E+00 -0.74505805969E-08  0.93827000000E+00  0.93827000000E+00 0. -1.
     999902    2    1    2    0    0  0.83489738132E-03  0.14629974226E-01 -0.95443752856E-02  0.10264420527E+01  0.10262930670E+01 0.  0.
     999903    2    3    3    0    0 -0.60777976493E-01  0.49891489587E-01  0.10235286294E+00  0.13652041990E+00  0.44481381917E-01 0.  0.
         14    1    1    2    0    0 -0.83489738132E-03 -0.14629974226E-01  0.95443752856E-02  0.17487947252E-01  0.00000000000E+00 0. -1.
     999901    1    3    3    0    0  0.61612873874E-01 -0.35261515361E-01 -0.11189723823E+00  0.88992163285E+00  0.88000000000E+00 0. -1.
        -11    1    4    4    0    0 -0.24124120225E-01  0.45326632203E-01  0.44870659672E-01  0.68191744250E-01  0.51100000000E-03 0. -1.
         11    1    4    4    0    0 -0.36653856268E-01  0.45648573846E-02  0.57482203268E-01  0.68328675648E-01  0.51100000000E-03 0.  1.
</event>
<event>
 8    1  0.2846344E+004  0.1043930E+01  0.7957747E-01            NaN
         13   -1    0    0    0    0  0.00000000000E+00  0.00000000000E+00  0.74505805969E-08  0.10566000000E+00  0.10566000000E+00 0. -1.
     999900   -1    0    0    0    0 -0.00000000000E+00 -0.00000000000E+00 -0.74505805969E-08  0.93827000000E+00  0.93827000000E+00 0.  1.
     999902    2    1    2    0    0  0.76303235099E-02 -0.10787477351E-01  0.21494543167E-02  0.10305430041E+01  0.10304560504E+01 0.  0.
     999903    2    3    3    0    0  0.88035229225E-01  0.29541104519E-01  0.97137118914E-01  0.14087227864E+00  0.42267015233E-01 0.  0.
         14    1    1    2    0    0 -0.76303235099E-02  0.10787477351E-01 -0.21494543167E-02  0.13386995866E-01  0.00000000000E+00 0. -1.
     999901    1    3    3    0    0 -0.80404905715E-01 -0.40328581870E-01 -0.94987664597E-01  0.88967072550E+00  0.88000000000E+00 0.  1.
        -11    1    4    4    0    0  0.14273579774E-01  0.98074246682E-02  0.12032812739E-04  0.17325758972E-01  0.51100000000E-03 0.  1.
         11    1    4    4    0    0  0.73761649452E-01  0.19733679851E-01  0.97125086101E-01  0.12354651967E+00  0.51100000000E-03 0. -1.
</event>
<event>
 8    1  0.2846344E+004  0.1043930E+01  0.7957747E-01            NaN
         13   -1    0    0    0    0  0.00000000000E+00  0.00000000000E+00  0.74505805969E-08  0.10566000000E+00  0.10566000000E+00 0. -1.
     999900   -1    0    0    0    0 -0.00000000000E+00 -0.00000000000E+00 -0.74505805969E-08  0.93827000000E+00  0.93827000000E+00 0. -1.
     999902    2    1    2    0    0 -0.86343371734E-02  0.82534176477E-02 -0.12966793048E-01  0.10263002410E+01  0.10261488080E+01 0.  0.
     999903    2    3    3    0    0  0.31088645732E-01  0.11610316135E+00  0.44321389332E-01  0.13697947858E+00  0.48503031150E-01 0.  0.
         14    1    1    2    0    0  0.86343371734E-02 -0.82534176477E-02  0.12966793048E-01  0.17629759024E-01  0.00000000000E+00 0. -1.
     999901    1    3    3    0    0 -0.39722982906E-01 -0.10784974370E+00 -0.57288182380E-01  0.88932076240E+00  0.88000000000E+00 0. -1.
        -11    1    4    4    0    0  0.22000252868E-01  0.54905443111E-01  0.46237933075E-01  0.75078801172E-01  0.51100000000E-03 0. -1.
         11    1    4    4    0    0  0.90883928645E-02  0.61197718240E-01 -0.19165437430E-02  0.61900677408E-01  0.51100000000E-03 0.  1.
</event>
<event>
 8    1  0.2846344E+004  0.1043930E+01  0.7957747E-01            NaN
         13   -1    0    0    0    0  0.00000000000E+00  0.00000000000E+00  0.74505805969E-08  0.10566000000E+00  0.10566000000E+00 0.  1.
     999900   -1    0    0    0    0 -0.00000000000E+00 -0.00000000000E+00 -0.74505805969E-08  0.93827000000E+00  0.93827000000E+00 0.  1.
     999902    2    1    2    0    0 -0.12296786223E-01  0.68128679919E-03  0.20958641763E-02  0.10314372921E+01  0.10313616339E+01 0.  0.
     999903    2    3    3    0    0  0.66896610856E-01  0.10741062861E+00 -0.42994397770E-01  0.14031671765E+00  0.42755857266E-01 0.  0.
         14    1    1    2    0    0  0.12296786223E-01 -0.68128679919E-03 -0.20958641763E-02  0.12492707864E-01  0.00000000000E+00 0. -1.
     999901    1    3    3    0    0 -0.79193397079E-01 -0.10672934181E+00  0.45090261946E-01  0.89112057448E+00  0.88000000000E+00 0.  1.
        -11    1    4    4    0    0  0.57655096875E-01  0.83947848824E-01 -0.50942523726E-01  0.11387165302E+00  0.51100000000E-03 0.  1.
         11    1    4    4    0    0  0.92415139803E-02  0.23462779788E-01  0.79481259556E-02  0.26445064629E-01  0.51100000000E-03 0. -1.
</event>
<event>
 8    1  0.2846344E+004  0.1043930E+01  0.7957747E-01            NaN
         13   -1    0    0    0    0  0.00000000000E+00  0.00000000000E+00  0.74505805969E-08  0.10566000000E+00  0.10566000000E+00 0. -1.
     999900   -1    0    0    0    0 -0.00000000000E+00 -0.00000000000E+00 -0.74505805969E-08  0.93827000000E+00  0.93827000000E+00 0.  1.
     999902    2    1    2    0    0  0.71816240789E-02  0.91413167432E-02 -0.89209226775E-02  0.10292765957E+01  0.10291722830E+01 0.  0.
     999903    2    3    3    0    0 -0.49310800169E-01  0.64634125401E-01 -0.10533167354E+00  0.14047634891E+00  0.45052391424E-01 0.  0.
         14    1    1    2    0    0 -0.71816240789E-02 -0.91413167432E-02  0.89209226775E-02  0.14653404302E-01  0.00000000000E+00 0. -1.
     999901    1    3    3    0    0  0.56492424248E-01 -0.55492808658E-01  0.96410750861E-01  0.88880024679E+00  0.88000000000E+00 0. -1.
        -11    1    4    4    0    0 -0.98803200599E-02  0.37876210781E-01 -0.23157273442E-01  0.45483497028E-01  0.51100000000E-03 0.  1.
         11    1    4    4    0    0 -0.39430480109E-01  0.26757914619E-01 -0.82174400096E-01  0.94992851882E-01  0.51100000000E-03 0. -1.
</event>
<event>
 8    1  0.2846344E+004  0.1043930E+01  0.7957747E-01            NaN
         13   -1    0    0    0    0  0.00000000000E+00  0.00000000000E+00  0.74505805969E-08  0.10566000000E+00  0.10566000000E+00 0.  1.
     999900   -1    0    0    0    0 -0.00000000000E+00 -0.00000000000E+00 -0.74505805969E-08  0.93827000000E+00  0.93827000000E+00 0.  1.
     999902    2    1    2    0    0 -0.30146304371E-02 -0.12120142044E-01  0.44700324823E-02  0.10306647435E+01  0.10305793742E+01 0.  0.
     999903    2    3    3    0    0 -0.95812592966E-01 -0.59871472849E-01  0.73000343061E-01  0.14185202142E+00  0.45036647994E-01 0.  0.
         14    1    1    2    0    0  0.30146304371E-02  0.12120142044E-01 -0.44700324823E-02  0.13265256509E-01  0.00000000000E+00 0. -1.
     999901    1    3    3    0    0  0.92797962529E-01  0.47751330805E-01 -0.68530310579E-01  0.88881272207E+00  0.88000000000E+00 0. -1.
        -11    1    4    4    0    0 -0.98196834656E-01 -0.49718825159E-01  0.60620975998E-01  0.12565724716E+00  0.51100000000E-03 0.  1.
         11    1    4    4    0    0  0.23842416899E-02 -0.10152647690E-01  0.12379367063E-01  0.16194774263E-01  0.51100000000E-03 0. -1.
</event>
<event>
 8    1  0.2846344E+004  0.1043930E+01  0.7957747E-01            NaN
         13   -1    0    0    0    0  0.00000000000E+00  0.00000000000E+00  0.74505805969E-08  0.10566000000E+00  0.10566000000E+00 0. -1.
     999900   -1    0    0    0    0 -0.00000000000E+00 -0.00000000000E+00 -0.74505805969E-08  0.93827000000E+00  0.93827000000E+00 0. -1.
     999902    2    1    2    0    0 -0.18959383361E-02  0.92852966873E-02 -0.87205551665E-02  0.10310513588E+01  0.10309709235E+01 0.  0.
     999903    2    3    3    0    0  0.11278194994E-02 -0.13194906187E+00  0.70280709220E-02  0.13964555538E+00  0.45162600149E-01 0.  0.
         14    1    1    2    0    0  0.18959383361E-02 -0.92852966873E-02  0.87205551665E-02  0.12878641200E-01  0.00000000000E+00 0. -1.
     999901    1    3    3    0    0 -0.30237578355E-02  0.14123435855E+00 -0.15748626089E-01  0.89140580342E+00  0.88000000000E+00 0. -1.
        -11    1    4    4    0    0 -0.25362505493E-02 -0.11390675070E+00  0.21840334972E-01  0.11601052441E+00  0.51100000000E-03 0.  1.
         11    1    4    4    0    0  0.36640700488E-02 -0.18042311171E-01 -0.14812264050E-01  0.23635030971E-01  0.51100000000E-03 0. -1.
</event>
<event>
 8    1  0.2846344E+004  0.1043930E+01  0.7957747E-01            NaN
         13   -1    0    0    0    0  0.00000000000E+00  0.00000000000E+00  0.74505805969E-08  0.10566000000E+00  0.10566000000E+00 0.  1.
     999900   -1    0    0    0    0 -0.00000000000E+00 -0.00000000000E+00 -0.74505805969E-08  0.93827000000E+00  0.93827000000E+00 0.  1.
     999902    2    1    2    0    0  0.13458078549E-01 -0.14464284994E-02  0.64025654579E-02  0.10289565275E+01  0.10288475741E+01 0.  0.
     999903    2    3    3    0    0 -0.94876409894E-01 -0.62519617503E-01 -0.62001331998E-01  0.13758377217E+00  0.46635753099E-01 0.  0.
         14    1    1    2    0    0 -0.13458078549E-01  0.14464284994E-02 -0.64025654579E-02  0.14973472479E-01  0.00000000000E+00 0. -1.
     999901    1    3    3    0    0  0.10833448844E+00  0.61073189003E-01  0.68403897455E-01  0.89137275535E+00  0.88000000000E+00 0. -1.
        -11    1    4    4    0    0 -0.17616834392E-01 -0.21944883621E-01 -0.37602704035E-01  0.46969726877E-01  0.51100000000E-03 0. -1.
         11    1    4    4    0    0 -0.77259575502E-01 -0.40574733881E-01 -0.24398627962E-01  0.90614045290E-01  0.51100000000E-03 0.  1.
</event>
<event>
 8    1  0.2846344E+004  0.1043930E+01  0.7957747E-01            NaN
         13   -1    0    0    0    0  0.00000000000E+00  0.00000000000E+00  0.74505805969E-08  0.10566000000E+00  0.10566000000E+00 0.  1.
     999900   -1    0    0    0    0 -0.00000000000E+00 -0.00000000000E+00 -0.74505805969E-08  0.93827000000E+00  0.93827000000E+00 0. -1.
     999902    2    1    2    0    0  0.13616614586E-01  0.37176929875E-02 -0.42531321545E-03  0.10298085863E+01  0.10297117607E+01 0.  0.
     999903    2    3    3    0    0  0.68889786810E-01  0.58432635854E-01  0.98870170553E-01  0.14081564951E+00  0.43515064777E-01 0.  0.
         14    1    1    2    0    0 -0.13616614586E-01 -0.37176929875E-02  0.42531321545E-03  0.14121413713E-01  0.00000000000E+00 0. -1.
     999901    1    3    3    0    0 -0.55273172224E-01 -0.54714942866E-01 -0.99295483768E-01  0.88899293678E+00  0.88000000000E+00 0. -1.
        -11    1    4    4    0    0 -0.31237122372E-02  0.13580997687E-01  0.23530457613E-01  0.27352232684E-01  0.51100000000E-03 0.  1.
         11    1    4    4    0    0  0.72013499047E-01  0.44851638167E-01  0.75339712940E-01  0.11346341683E+00  0.51100000000E-03 0. -1.
</event>
<event>
 8    1  0.2846344E+004  0.1043930E+01  0.7957747E-01            NaN
         13   -1    0    0    0    0  0.00000000000E+00  0.00000000000E+00  0.74505805969E-08  0.10566000000E+00  0.10566000000E+00 0. -1.
     999900   -1    0    0    0    0 -0.00000000000E+00 -0.00000000000E+00 -0.74505805969E-08  0.93827000000E+00  0.93827000000E+00 0.  1.
     999902    2    1    2    0    0  0.17888885420E-02  0.24571197929E-03  0.13221428131E-01  0.10305858380E+01  0.10304994434E+01 0.  0.
     999903    2    3    3    0    0 -0.74062813880E-01 -0.84857217764E-01 -0.66501402752E-01  0.13965838916E+00  0.48948761855E-01 0.  0.
         14    1    1    2    0    0 -0.17888885420E-02 -0.24571197929E-03 -0.13221428131E-01  0.13344161960E-01  0.00000000000E+00 0.  1.
     999901    1    3    3    0    0  0.75851702422E-01  0.85102929744E-01  0.79722830883E-01  0.89092744888E+00  0.88000000000E+00 0. -1.
        -11    1    4    4    0    0 -0.38730012356E-01 -0.35705121260E-01 -0.42885126993E-02  0.52853779463E-01  0.51100000000E-03 0. -1.
         11    1    4    4    0    0 -0.35332801523E-01 -0.49152096505E-01 -0.62212890052E-01  0.86804609693E-01  0.51100000000E-03 0.  1.
</event>
<event>
 8    1  0.2846344E+004  0.1043930E+01  0.7957747E-01            NaN
         13   -1    0    0    0    0  0.00000000000E+00  0.00000000000E+00  0.74505805969E-08  0.10566000000E+00  0.10566000000E+00 0. -1.
     999900   -1    0    0    0    0 -0.00000000000E+00 -0.00000000000E+00 -0.74505805969E-08  0.93827000000E+00  0.93827000000E+00 0. -1.
     999902    2    1    2    0    0  0.91904583878E-02  0.93259143534E-02 -0.57940148210E-02  0.10296119061E+01  0.10295123455E+01 0.  0.
     999903    2    3    3    0    0  0.20766159164E-01  0.81561602743E-01  0.10241335364E+00  0.13997106507E+00  0.44943026639E-01 0.  0.
         14    1    1    2    0    0 -0.91904583878E-02 -0.93259143534E-02  0.57940148210E-02  0.14318093855E-01  0.00000000000E+00 0.  1.
     999901    1    3    3    0    0 -0.11575700776E-01 -0.72235688390E-01 -0.10820736846E+00  0.88964084108E+00  0.88000000000E+00 0. -1.
        -11    1    4    4    0    0 -0.21505483999E-02  0.30906657533E-01  0.10815037287E-01  0.32818782591E-01  0.51100000000E-03 0. -1.
         11    1    4    4    0    0  0.22916707563E-01  0.50654945210E-01  0.91598316353E-01  0.10715228247E+00  0.51100000000E-03 0.  1.
</event>
<event>
 8    1  0.2846344E+004  0.1043930E+01  0.7957747E-01            NaN
         13   -1    0    0    0    0  0.00000000000E+00  0.00000000000E+00  0.74505805969E-08  0.10566000000E+00  0.10566000000E+00 0.  1.
     999900   -1    0    0    0    0 -0.00000000000E+00 -0.00000000000E+00 -0.74505805969E-08  0.93827000000E+00  0.93827000000E+00 0.  1.
     999902    2    1    2    0    0  0.21213860375E-02  0.99131258823E-02  0.10372179327E-02  0.10337395062E+01  0.10336892765E+01 0.  0.
     999903    2    3    3    0    0 -0.10683853079E+00 -0.51918762971E-01 -0.64609422568E-01  0.14244554380E+00  0.44792028900E-01 0.  0.
         14    1    1    2    0    0 -0.21213860375E-02 -0.99131258823E-02 -0.10372179327E-02  0.10190493831E-01  0.00000000000E+00 0. -1.
     999901    1    3    3    0    0  0.10895991683E+00  0.61831888853E-01  0.65646640500E-01  0.89129396237E+00  0.88000000000E+00 0. -1.
        -11    1    4    4    0    0 -0.27888548585E-01 -0.34826541403E-01 -0.33850899910E-01  0.56007175201E-01  0.51100000000E-03 0.  1.
         11    1    4    4    0    0 -0.78949982205E-01 -0.17092221568E-01 -0.30758522657E-01  0.86438368595E-01  0.51100000000E-03 0. -1.
</event>
<event>
 8    1  0.2846344E+004  0.1043930E+01  0.7957747E-01            NaN
         13   -1    0    0    0    0  0.00000000000E+00  0.00000000000E+00  0.74505805969E-08  0.10566000000E+00  0.10566000000E+00 0. -1.
     999900   -1    0    0    0    0 -0.00000000000E+00 -0.00000000000E+00 -0.74505805969E-08  0.93827000000E+00  0.93827000000E+00 0. -1.
     999902    2    1    2    0    0  0.88039822625E-03  0.12252768965E-01  0.12467956038E-01  0.10264269895E+01  0.10262777448E+01 0.  0.
     999903    2    3    3    0    0 -0.95899692375E-01  0.52572723184E-02  0.89799719176E-01  0.13772258168E+00  0.40977189151E-01 0.  0.
         14    1    1    2    0    0 -0.88039822625E-03 -0.12252768965E-01 -0.12467956038E-01  0.17503010487E-01  0.00000000000E+00 0.  1.
     999901    1    3    3    0    0  0.96780090602E-01  0.69954966465E-02 -0.77331763138E-01  0.88870440783E+00  0.88000000000E+00 0. -1.
        -11    1    4    4    0    0 -0.22249697707E-02 -0.90492613839E-02  0.11401017086E-01  0.14733768482E-01  0.51100000000E-03 0.  1.
         11    1    4    4    0    0 -0.93674722605E-01  0.14306533702E-01  0.78398702090E-01  0.12298881320E+00  0.51100000000E-03 0. -1.
</event>
<event>
 8    1  0.2846344E+004  0.1043930E+01  0.7957747E-01            NaN
         13   -1    0    0    0    0  0.00000000000E+00  0.00000000000E+00  0.74505805969E-08  0.10566000000E+00  0.10566000000E+00 0.  1.
     999900   -1    0    0    0    0 -0.00000000000E+00 -0.00000000000E+00 -0.74505805969E-08  0.93827000000E+00  0.93827000000E+00 0.  1.
     999902    2    1    2    0    0  0.55137259304E-02  0.13622142268E-02  0.13971994860E-01  0.10288477773E+01  0.10287372237E+01 0.  0.
     999903    2    3    3    0    0  0.61690304517E-01  0.97721892564E-01  0.63460389855E-01  0.14042777706E+00  0.48347466647E-01 0.  0.
         14    1    1    2    0    0 -0.55137259304E-02 -0.13622142268E-02 -0.13971994860E-01  0.15082222701E-01  0.00000000000E+00 0. -1.
     999901    1    3    3    0    0 -0.56176578586E-01 -0.96359678337E-01 -0.49488394995E-01  0.88842000024E+00  0.88000000000E+00 0.  1.
        -11    1    4    4    0    0  0.13475173822E-01  0.28486462427E-01  0.43517407649E-01  0.53731599089E-01  0.51100000000E-03 0. -1.
         11    1    4    4    0    0  0.48215130694E-01  0.69235430137E-01  0.19942982206E-01  0.86696177969E-01  0.51100000000E-03 0.  1.
</event>
<event>
 8    1  0.2846344E+004  0.1043930E+01  0.7957747E-01            NaN
         13   -1    0    0    0    0  0.00000000000E+00  0.00000000000E+00  0.74505805969E-08  0.10566000000E+00  0.10566000000E+00 0. -1.
     999900   -1    0    0    0    0 -0.00000000000E+00 -0.00000000000E+00 -0.74505805969E-08  0.93827000000E+00  0.93827000000E+00 0. -1.
     999902    2    1    2    0    0  0.92939815157E-02  0.88573108268E-02  0.56562447930E-02  0.10299006325E+01  0.10298050736E+01 0.  0.
     999903    2    3    3    0    0  0.64093609619E-01 -0.42955420611E-01 -0.10710188013E+00  0.13950636414E+00  0.45144810942E-01 0.  0.
         14    1    1    2    0    0 -0.92939815157E-02 -0.88573108268E-02 -0.56562447930E-02  0.14029367507E-01  0.00000000000E+00 0. -1.
     999901    1    3    3    0    0 -0.54799628103E-01  0.51812731438E-01  0.11275812492E+00  0.89039426835E+00  0.88000000000E+00 0.  1.
        -11    1    4    4    0    0  0.13519258477E-01 -0.12197859683E-01 -0.63296677208E-01  0.65865686037E-01  0.51100000000E-03 0. -1.
         11    1    4    4    0    0  0.50574351142E-01 -0.30757560928E-01 -0.43805202920E-01  0.73640678103E-01  0.51100000000E-03 0.  1.
</event>
<event>
 8    1  0.2846344E+004  0.1043930E+01  0.7957747E-01            NaN
         13   -1    0    0    0    0  0.00000000000E+00  0.00000000000E+00  0.74505805969E-08  0.10566000000E+00  0.10566000000E+00 0.  1.
     999900   -1    0    0    0    0 -0.00000000000E+00 -0.00000000000E+00 -0.74505805969E-08  0.93827000000E+00  0.93827000000E+00 0.  1.
     999902    2    1    2    0    0  0.71358602288E-03  0.13341974508E-01  0.33972727708E-02  0.10301438130E+01  0.10300515602E+01 0.  0.
     999903    2    3    3    0    0  0.42659650899E-01  0.86089078991E-01 -0.93096933207E-01  0.14089539703E+00  0.44196137803E-01 0.  0.
         14    1    1    2    0    0 -0.71358602288E-03 -0.13341974508E-01 -0.33972727708E-02  0.13786186966E-01  0.00000000000E+00 0. -1.
     999901    1    3    3    0    0 -0.41946064876E-01 -0.72747104483E-01  0.96494205978E-01  0.88924841600E+00  0.88000000000E+00 0.  1.
        -11    1    4    4    0    0 -0.27435103547E-02 -0.60061594100E-03 -0.16165080916E-01  0.16415192676E-01  0.51100000000E-03 0. -1.
         11    1    4    4    0    0  0.45403161254E-01  0.86689694932E-01 -0.76931852291E-01  0.12448020436E+00  0.51100000000E-03 0.  1.
</event>
<event>
 8    1  0.2846344E+004  0.1043930E+01  0.7957747E-01            NaN
         13   -1    0    0    0    0  0.00000000000E+00  0.00000000000E+00  0.74505805969E-08  0.10566000000E+00  0.10566000000E+00 0.  1.
     999900   -1    0    0    0    0 -0.00000000000E+00 -0.00000000000E+00 -0.74505805969E-08  0.93827000000E+00  0.93827000000E+00 0. -1.
     999902    2    1    2    0    0  0.13627997454E-01 -0.35519499828E-02  0.34208576921E-02  0.10294372111E+01  0.10293351887E+01 0.  0.
     999903    2    3    3    0    0  0.12054293487E-01 -0.10497903334E+00 -0.79294548219E-01  0.13975649973E+00  0.45588928539E-01 0.  0.
         14    1    1    2    0    0 -0.13627997454E-01  0.35519499828E-02 -0.34208576921E-02  0.14492788918E-01  0.00000000000E+00 0. -1.
     999901    1    3    3    0    0  0.15737039660E-02  0.10142708336E+00  0.82715405911E-01  0.88968071136E+00  0.88000000000E+00 0.  1.
        -11    1    4    4    0    0  0.53757079984E-02 -0.10037487401E+00 -0.55960055374E-01  0.11504695775E+00  0.51100000000E-03 0. -1.
         11    1    4    4    0    0  0.66785854890E-02 -0.46041593319E-02 -0.23334492846E-01  0.24709541976E-01  0.51100000000E-03 0.  1.
</event>
<event>
 8    1  0.2846344E+004  0.1043930E+01  0.7957747E-01            NaN
         13   -1    0    0    0    0  0.00000000000E+00  0.00000000000E+00  0.74505805969E-08  0.10566000000E+00  0.10566000000E+00 0. -1.
     999900   -1    0    0    0    0 -0.00000000000E+00 -0.00000000000E+00 -0.74505805969E-08  0.93827000000E+00  0.93827000000E+00 0.  1.
     999902    2    1    2    0    0 -0.85517609335E-02  0.15982160643E-02  0.19981980707E-01  0.10221362747E+01  0.10219039082E+01 0.  0.
     999903    2    3    3    0    0  0.10041150535E+00 -0.71669524373E-01  0.18296341979E-01  0.13239249328E+00  0.44430001308E-01 0.  0.
         14    1    1    2    0    0  0.85517609335E-02 -0.15982160643E-02 -0.19981980707E-01  0.21793725304E-01  0.00000000000E+00 0.  1.
     999901    1    3    3    0    0 -0.10896326629E+00  0.73267740437E-01  0.16856387281E-02  0.88974378141E+00  0.88000000000E+00 0. -1.
        -11    1    4    4    0    0  0.48454675087E-01 -0.14568915412E-01 -0.71534073139E-02  0.51103240517E-01  0.51100000000E-03 0. -1.
         11    1    4    4    0    0  0.51956830266E-01 -0.57100608960E-01  0.25449749293E-01  0.81289252764E-01  0.51100000000E-03 0.  1.
</event>
<event>
 8    1  0.2846344E+004  0.1043930E+01  0.7957747E-01            NaN
         13   -1    0    0    0    0  0.00000000000E+00  0.00000000000E+00  0.74505805969E-08  0.10566000000E+00  0.10566000000E+00 0. -1.
     999900   -1    0    0    0    0 -0.00000000000E+00 -0.00000000000E+00 -0.74505805969E-08  0.93827000000E+00  0.93827000000E+00 0.  1.
     999902    2    1    2    0    0  0.81946673980E-02  0.92813435454E-02  0.75197355284E-02  0.10294440643E+01  0.10293421390E+01 0.  0.
     999903    2    3    3    0    0  0.55480684935E-01 -0.69619903688E-01  0.97720987143E-01  0.14006358322E+00  0.46296637303E-01 0.  0.
         14    1    1    2    0    0 -0.81946673980E-02 -0.92813435454E-02 -0.75197355284E-02  0.14485935737E-01  0.00000000000E+00 0.  1.
     999901    1    3    3    0    0 -0.47286017537E-01  0.78901247233E-01 -0.90201251614E-01  0.88938048104E+00  0.88000000000E+00 0.  1.
        -11    1    4    4    0    0  0.29586366443E-01 -0.66599918978E-01  0.81606659169E-01  0.10941119791E+00  0.51100000000E-03 0.  1.
         11    1    4    4    0    0  0.25894318493E-01 -0.30199847096E-02  0.16114327974E-01  0.30652385305E-01  0.51100000000E-03 0. -1.
</event>
<event>
 8    1  0.2846344E+004  0.1043930E+01  0.7957747E-01            NaN
         13   -1    0    0    0    0  0.00000000000E+00  0.00000000000E+00  0.74505805969E-08  0.10566000000E+00  0.10566000000E+00 0. -1.
     999900   -1    0    0    0    0 -0.00000000000E+00 -0.00000000000E+00 -0.74505805969E-08  0.93827000000E+00  0.93827000000E+00 0.  1.
     999902    2    1    2    0    0  0.67894173859E-02  0.79139376323E-02 -0.84076517247E-02  0.10305354039E+01  0.10304483507E+01 0.  0.
     999903    2    3    3    0    0 -0.47117380621E-01 -0.66579573508E-01  0.10288241811E+00  0.13877270804E+00  0.44946472351E-01 0.  0.
         14    1    1    2    0    0 -0.67894173859E-02 -0.79139376323E-02  0.84076517247E-02  0.13394596105E-01  0.00000000000E+00 0. -1.
     999901    1    3    3    0    0  0.53906798007E-01  0.74493511140E-01 -0.11129006983E+00  0.89176269585E+00  0.88000000000E+00 0.  1.
        -11    1    4    4    0    0 -0.55437619272E-01 -0.56095416143E-01  0.93985255594E-01  0.12269276561E+00  0.51100000000E-03 0.  1.
         11    1    4    4    0    0  0.83202386509E-02 -0.10484157365E-01  0.88971625111E-02  0.16079942432E-01  0.51100000000E-03 0. -1.
</event>
<event>
 8    1  0.2846344E+004  0.1043930E+01  0.7957747E-01            NaN
         13   -1    0    0    0    0  0.00000000000E+00  0.00000000000E+00  0.74505805969E-08  0.10566000000E+00  0.10566000000E+00 0.  1.
     999900   -1    0    0    0    0 -0.00000000000E+00 -0.00000000000E+00 -0.74505805969E-08  0.93827000000E+00  0.93827000000E+00 0.  1.
     999902    2    1    2    0    0  0.41873463673E-02 -0.11723181643E-01  0.69282976960E-02  0.10296833103E+01  0.10295847471E+01 0.  0.
     999903    2    3    3    0    0  0.46627337210E-01 -0.12193947742E+00 -0.13270235110E-01  0.14156351808E+00  0.53111070234E-01 0.  0.
         14    1    1    2    0    0 -0.41873463673E-02  0.11723181643E-01 -0.69282976960E-02  0.14246689664E-01  0.00000000000E+00 0. -1.
     999901    1    3    3    0    0 -0.42439990842E-01  0.11021629578E+00  0.20198532806E-01  0.88811979226E+00  0.88000000000E+00 0. -1.
        -11    1    4    4    0    0 -0.78082744103E-02 -0.32241994093E-01 -0.15489586615E-01  0.36615621623E-01  0.51100000000E-03 0. -1.
         11    1    4    4    0    0  0.54435611620E-01 -0.89697483327E-01  0.22193515055E-02  0.10494789645E+00  0.51100000000E-03 0.  1.
</event>
<event>
 8    1  0.2846344E+004  0.1043930E+01  0.7957747E-01            NaN
         13   -1    0    0    0    0  0.00000000000E+00  0.00000000000E+00  0.74505805969E-08  0.10566000000E+00  0.10566000000E+00 0. -1.
     999900   -1    0    0    0    0 -0.00000000000E+00 -0.00000000000E+00 -0.74505805969E-08  0.93827000000E+00  0.93827000000E+00 0.  1.
     999902    2    1    2    0    0 -0.15847792822E-01  0.88885422678E-02 -0.56924347504E-04  0.10257596406E+01  0.10255986926E+01 0.  0.
     999903    2    3    3    0    0 -0.19292519329E-01  0.49917582371E-01 -0.11850126929E+00  0.13687027113E+00  0.42742882051E-01 0.  0.
         14    1    1    2    0    0  0.15847792822E-01 -0.88885422678E-02  0.56924347504E-04  0.18170359418E-01  0.00000000000E+00 0.  1.
     999901    1    3    3    0    0  0.34447265070E-02 -0.41029040103E-01  0.11844434494E+00  0.88888936945E+00  0.88000000000E+00 0. -1.
        -11    1    4    4    0    0  0.19041367673E-02  0.19017498656E-01 -0.89958825345E-02  0.21130026396E-01  0.51100000000E-03 0. -1.
         11    1    4    4    0    0 -0.21196656096E-01  0.30900083715E-01 -0.10950538675E+00  0.11574024474E+00  0.51100000000E-03 0.  1.
</event>
<event>
 8    1  0.2846344E+004  0.1043930E+01  0.7957747E-01            NaN
         13   -1    0    0    0    0  0.00000000000E+00  0.00000000000E+00  0.74505805969E-08  0.10566000000E+00  0.10566000000E+00 0. -1.
     999900   -1    0    0    0    0 -0.00000000000E+00 -0.00000000000E+00 -0.74505805969E-08  0.93827000000E+00  0.93827000000E+00 0.  1.
     999902    2    1    2    0    0  0.45309211552E-03  0.66491945235E-02  0.10553905474E-01  0.10314479328E+01  0.10313724042E+01 0.  0.
     999903    2    3    3    0    0  0.83981612448E-01  0.87308323975E-01 -0.55697014907E-01  0.14135125643E+00  0.46929367781E-01 0.  0.
         14    1    1    2    0    0 -0.45309211552E-03 -0.66491945235E-02 -0.10553905474E-01  0.12482067177E-01  0.00000000000E+00 0.  1.
     999901    1    3    3    0    0 -0.83528520332E-01 -0.80659129451E-01  0.66250920381E-01  0.89009667639E+00  0.88000000000E+00 0. -1.
        -11    1    4    4    0    0  0.24780335052E-01  0.39393206351E-01  0.75420074459E-03  0.46548035960E-01  0.51100000000E-03 0.  1.
         11    1    4    4    0    0  0.59201277396E-01  0.47915117623E-01 -0.56451215651E-01  0.94803220471E-01  0.51100000000E-03 0. -1.
</event>
<event>
 8    1  0.2846344E+004  0.1043930E+01  0.7957747E-01            NaN
         13   -1    0    0    0    0  0.00000000000E+00  0.00000000000E+00  0.74505805969E-08  0.10566000000E+00  0.10566000000E+00 0. -1.
     999900   -1    0    0    0    0 -0.00000000000E+00 -0.00000000000E+00 -0.74505805969E-08  0.93827000000E+00  0.93827000000E+00 0.  1.
     999902    2    1    2    0    0 -0.62171706701E-02 -0.22898279758E-02 -0.12537166537E-01  0.10297498354E+01  0.10296521968E+01 0.  0.
     999903    2    3    3    0    0  0.13018607223E+00 -0.14728241504E-01 -0.90611365572E-02  0.13914743164E+00  0.45984443413E-01 0.  0.
         14    1    1    2    0    0  0.62171706701E-02  0.22898279758E-02  0.12537166537E-01  0.14180164600E-01  0.00000000000E+00 0. -1.
     999901    1    3    3    0    0 -0.13640324290E+00  0.12438413528E-01 -0.34760299801E-02  0.89060240376E+00  0.88000000000E+00 0.  1.
        -11    1    4    4    0    0  0.11282401212E+00 -0.23856659078E-02 -0.20902679405E-01  0.11476990999E+00  0.51100000000E-03 0.  1.
         11    1    4    4    0    0  0.17362060108E-01 -0.12342575596E-01  0.11841542847E-01  0.24377521645E-01  0.51100000000E-03 0. -1.
</event>
<event>
 8    1  0.2846344E+004  0.1043930E+01  0.7957747E-01            NaN
         13   -1    0    0    0    0  0.00000000000E+00  0.00000000000E+00  0.74505805969E-08  0.10566000000E+00  0.10566000000E+00 0. -1.
     999900   -1    0    0    0    0 -0.00000000000E+00 -0.00000000000E+00 -0.74505805969E-08  0.93827000000E+00  0.93827000000E+00 0.  1.
     999902    2    1    2    0    0 -0.20069193470E-02  0.60692516856E-02  0.13256316403E-01  0.10292128853E+01  0.10291076570E+01 0.  0.
     999903    2    3    3    0    0 -0.32926215397E-01 -0.67198285312E-01  0.10827655258E+00  0.14053241394E+00  0.49252434649E-01 0.  0.
         14    1    1    2    0    0  0.20069193470E-02 -0.60692516856E-02 -0.13256316403E-01  0.14717114726E-01  0.00000000000E+00 0. -1.
     999901    1    3    3    0    0  0.30919296050E-01  0.73267536998E-01 -0.95020236182E-01  0.88868047133E+00  0.88000000000E+00 0.  1.
        -11    1    4    4    0    0 -0.28661568640E-01 -0.16970672069E-01  0.69021402172E-01  0.76640095943E-01  0.51100000000E-03 0. -1.
         11    1    4    4    0    0 -0.42646467571E-02 -0.50227613243E-01  0.39255150413E-01  0.63892317997E-01  0.51100000000E-03 0.  1.
</event>
<event>
 8    1  0.2846344E+004  0.1043930E+01  0.7957747E-01            NaN
         13   -1    0    0    0    0  0.00000000000E+00  0.00000000000E+00  0.74505805969E-08  0.10566000000E+00  0.10566000000E+00 0. -1.
     999900   -1    0    0    0    0 -0.00000000000E+00 -0.00000000000E+00 -0.74505805969E-08  0.93827000000E+00  0.93827000000E+00 0. -1.
     999902    2    1    2    0    0 -0.25017625385E-02 -0.21029149587E-02 -0.13523498491E-01  0.10300171973E+01  0.10299232305E+01 0.  0.
     999903    2    3    3    0    0  0.10438381717E+00  0.79617642980E-01  0.13415743741E-01  0.13938343447E+00  0.44864342912E-01 0.  0.
         14    1    1    2    0    0  0.25017625385E-02  0.21029149587E-02  0.13523498491E-01  0.13912802686E-01  0.00000000000E+00 0. -1.
     999901    1    3    3    0    0 -0.10688557971E+00 -0.81720557939E-01 -0.26939242232E-01  0.89063376284E+00  0.88000000000E+00 0. -1.
        -11    1    4    4    0    0  0.30522531688E-01  0.35072407950E-01  0.24266032572E-01  0.52448071441E-01  0.51100000000E-03 0.  1.
         11    1    4    4    0    0  0.73861285483E-01  0.44545235029E-01 -0.10850288831E-01  0.86935363033E-01  0.51100000000E-03 0. -1.
</event>
<event>
 8    1  0.2846344E+004  0.1043930E+01  0.7957747E-01            NaN
         13   -1    0    0    0    0  0.00000000000E+00  0.00000000000E+00  0.74505805969E-08  0.10566000000E+00  0.10566000000E+00 0. -1.
     999900   -1    0    0    0    0 -0.00000000000E+00 -0.00000000000E+00 -0.74505805969E-08  0.93827000000E+00  0.93827000000E+00 0. -1.
     999902    2    1    2    0    0  0.12572706918E-02 -0.56747067325E-02  0.12450897263E-01  0.10301892624E+01  0.10300976209E+01 0.  0.
     999903    2    3    3    0    0  0.60474754755E-01 -0.13141011717E-01 -0.11552665226E+00  0.13893132597E+00  0.46104487883E-01 0.  0.
         14    1    1    2    0    0 -0.12572706918E-02  0.56747067325E-02 -0.12450897263E-01  0.13740737562E-01  0.00000000000E+00 0.  1.
     999901    1    3    3    0    0 -0.59217484063E-01  0.74663049845E-02  0.12797754952E+00  0.89125793646E+00  0.88000000000E+00 0.  1.
        -11    1    4    4    0    0  0.45753366268E-01  0.28517068572E-02 -0.41712241853E-01  0.61981247150E-01  0.51100000000E-03 0.  1.
         11    1    4    4    0    0  0.14721388487E-01 -0.15992718574E-01 -0.73814410406E-01  0.76950078823E-01  0.51100000000E-03 0. -1.
</event>
<event>
 8    1  0.2846344E+004  0.1043930E+01  0.7957747E-01            NaN
         13   -1    0    0    0    0  0.00000000000E+00  0.00000000000E+00  0.74505805969E-08  0.10566000000E+00  0.10566000000E+00 0. -1.
     999900   -1    0    0    0    0 -0.00000000000E+00 -0.00000000000E+00 -0.74505805969E-08  0.93827000000E+00  0.93827000000E+00 0. -1.
     999902    2    1    2    0    0 -0.96165646674E-02  0.72474684274E-02  0.58114058144E-02  0.10305592651E+01  0.10304725238E+01 0.  0.
     999903    2    3    3    0    0 -0.29842765191E-01 -0.12366348843E+00 -0.35732742083E-01  0.13967616723E+00  0.45269789393E-01 0.  0.
         14    1    1    2    0    0  0.96165646674E-02 -0.72474684274E-02 -0.58114058144E-02  0.13370734914E-01  0.00000000000E+00 0.  1.
     999901    1    3    3    0    0  0.20226200524E-01  0.13091095686E+00  0.41544147898E-01  0.89088309785E+00  0.88000000000E+00 0.  1.
        -11    1    4    4    0    0 -0.30301922693E-01 -0.48010551735E-01 -0.28911928748E-01  0.63713266608E-01  0.51100000000E-03 0. -1.
         11    1    4    4    0    0  0.45915750252E-03 -0.75652936694E-01 -0.68208133347E-02  0.75962900627E-01  0.51100000000E-03 0.  1.
</event>
<event>
 8    1  0.2846344E+004  0.1043930E+01  0.7957747E-01            NaN
         13   -1    0    0    0    0  0.00000000000E+00  0.00000000000E+00  0.74505805969E-08  0.10566000000E+00  0.10566000000E+00 0. -1.
     999900   -1    0    0    0    0 -0.00000000000E+00 -0.00000000000E+00 -0.74505805969E-08  0.93827000000E+00  0.93827000000E+00 0. -1.
     999902    2    1    2    0    0  0.12718999826E-01 -0.49266924184E-02 -0.68433600813E-02  0.10286696975E+01  0.10285564981E+01 0.  0.
     999903    2    3    3    0    0  0.37991470664E-01 -0.12421196101E+00  0.23360129456E-01  0.13974904646E+00  0.45957994267E-01 0.  0.
         14    1    1    2    0    0 -0.12718999826E-01  0.49266924184E-02  0.68433600813E-02  0.15260302486E-01  0.00000000000E+00 0. -1.
     999901    1    3    3    0    0 -0.25272470838E-01  0.11928526859E+00 -0.30203489537E-01  0.88892065105E+00  0.88000000000E+00 0. -1.
        -11    1    4    4    0    0  0.24918198561E-02 -0.33705537439E-01 -0.12624926118E-01  0.36082160422E-01  0.51100000000E-03 0.  1.
         11    1    4    4    0    0  0.35499650808E-01 -0.90506423575E-01  0.35985055574E-01  0.10366688604E+00  0.51100000000E-03 0. -1.
</event>
<event>
 8    1  0.2846344E+004  0.1043930E+01  0.7957747E-01            NaN
         13   -1    0    0    0    0  0.00000000000E+00  0.00000000000E+00  0.74505805969E-08  0.10566000000E+00  0.10566000000E+00 0.  1.
     999900   -1    0    0    0    0 -0.00000000000E+00 -0.00000000000E+00 -0.74505805969E-08  0.93827000000E+00  0.93827000000E+00 0. -1.
     999902    2    1    2    0    0  0.16093514483E-01  0.71152579636E-03  0.81117133475E-03  0.10278003541E+01  0.10276737821E+01 0.  0.
     999903    2    3    3    0    0 -0.75044927620E-02  0.75279658892E-01  0.10723874280E+00  0.13794412956E+00  0.42486356260E-01 0.  0.
         14    1    1    2    0    0 -0.16093514483E-01 -0.71152579636E-03 -0.81117133475E-03  0.16129645883E-01  0.00000000000E+00 0.  1.
     999901    1    3    3    0    0  0.23598007245E-01 -0.74568133096E-01 -0.10642757146E+00  0.88985622456E+00  0.88000000000E+00 0. -1.
        -11    1    4    4    0    0 -0.24706918246E-01  0.34271983278E-01  0.50113772904E-01  0.65548852031E-01  0.51100000000E-03 0. -1.
         11    1    4    4    0    0  0.17202425484E-01  0.41007675614E-01  0.57124969894E-01  0.72395277527E-01  0.51100000000E-03 0.  1.
</event>
<event>
 8    1  0.2846344E+004  0.1043930E+01  0.7957747E-01            NaN
         13   -1    0    0    0    0  0.00000000000E+00  0.00000000000E+00  0.74505805969E-08  0.10566000000E+00  0.10566000000E+00 0. -1.
     999900   -1    0    0    0    0 -0.00000000000E+00 -0.00000000000E+00 -0.74505805969E-08  0.93827000000E+00  0.93827000000E+00 0. -1.
     999902    2    1    2    0    0 -0.27483115450E-02  0.40354564184E-03  0.13199569283E-01  0.10304413123E+01  0.10303530237E+01 0.  0.
     999903    2    3    3    0    0  0.10942753249E-01  0.73703967542E-01  0.11193919256E+00  0.14178507380E+00  0.44951147253E-01 0.  0.
         14    1    1    2    0    0  0.27483115450E-02 -0.40354564184E-03 -0.13199569283E-01  0.13488687656E-01  0.00000000000E+00 0.  1.
     999901    1    3    3    0    0 -0.13691064794E-01 -0.73300421900E-01 -0.98739623280E-01  0.88865623855E+00  0.88000000000E+00 0. -1.
        -11    1    4    4    0    0 -0.11930456383E-01  0.24404783116E-01  0.16027220448E-01  0.31544605636E-01  0.51100000000E-03 0. -1.
         11    1    4    4    0    0  0.22873209632E-01  0.49299184426E-01  0.95911972115E-01  0.11024046816E+00  0.51100000000E-03 0.  1.
</event>
<event>
 8    1  0.2846344E+004  0.1043930E+01  0.7957747E-01            NaN
         13   -1    0    0    0    0  0.00000000000E+00  0.00000000000E+00  0.74505805969E-08  0.10566000000E+00  0.10566000000E+00 0.  1.
     999900   -1    0    0    0    0 -0.00000000000E+00 -0.00000000000E+00 -0.74505805969E-08  0.93827000000E+00  0.93827000000E+00 0. -1.
     999902    2    1    2    0    0  0.89143304755E-02  0.95105337751E-02 -0.10152496355E-01  0.10274076296E+01  0.10272747679E+01 0.  0.
     999903    2    3    3    0    0 -0.14037040859E-01  0.13093929744E+00  0.43273639852E-02  0.13865492136E+00  0.43177806900E-01 0.  0.
         14    1    1    2    0    0 -0.89143304755E-02 -0.95105337751E-02  0.10152496355E-01  0.16522370373E-01  0.00000000000E+00 0.  1.
     999901    1    3    3    0    0  0.22951371334E-01 -0.12142876367E+00 -0.14479860340E-01  0.88875270826E+00  0.88000000000E+00 0.  1.
        -11    1    4    4    0    0 -0.17235350613E-01  0.58576984331E-01  0.20547030736E-01  0.64426407607E-01  0.51100000000E-03 0.  1.
         11    1    4    4    0    0  0.31983097537E-02  0.72362313109E-01 -0.16219666751E-01  0.74228513755E-01  0.51100000000E-03 0. -1.
</event>
<event>
 8    1  0.2846344E+004  0.1043930E+01  0.7957747E-01            NaN
         13   -1    0    0    0    0  0.00000000000E+00  0.00000000000E+00  0.74505805969E-08  0.10566000000E+00  0.10566000000E+00 0.  1.
     999900   -1    0    0    0    0 -0.00000000000E+00 -0.00000000000E+00 -0.74505805969E-08  0.93827000000E+00  0.93827000000E+00 0. -1.
     999902    2    1    2    0    0 -0.38263226492E-02 -0.16181638354E-02  0.13292446894E-01  0.10300034662E+01  0.10299093125E+01 0.  0.
     999903    2    3    3    0    0  0.30164205173E-01  0.67750675603E-01 -0.10800070995E+00  0.13833120479E+00  0.44399724676E-01 0.  0.
         14    1    1    2    0    0  0.38263226492E-02  0.16181638354E-02 -0.13292446894E-01  0.13926533798E-01  0.00000000000E+00 0. -1.
     999901    1    3    3    0    0 -0.33990527822E-01 -0.69368839438E-01  0.12129315685E+00  0.89167226141E+00  0.88000000000E+00 0.  1.
        -11    1    4    4    0    0  0.19121111228E-01  0.64281987252E-01 -0.10753532129E+00  0.12673554050E+00  0.51100000000E-03 0.  1.
         11    1    4    4    0    0  0.11043093945E-01  0.34686883502E-02 -0.46538865776E-03  0.11595664291E-01  0.51100000000E-03 0. -1.
</event>
<event>
 8    1  0.2846344E+004  0.1043930E+01  0.7957747E-01            NaN
         13   -1    0    0    0    0  0.00000000000E+00  0.00000000000E+00  0.74505805969E-08  0.10566000000E+00  0.10566000000E+00 0. -1.
     999900   -1    0    0    0    0 -0.00000000000E+00 -0.00000000000E+00 -0.74505805969E-08  0.93827000000E+00  0.93827000000E+00 0. -1.
     999902    2    1    2    0    0  0.47940866560E-02  0.86309768086E-02 -0.27902075776E-02  0.10336702590E+01  0.10336193410E+01 0.  0.
     999903    2    3    3    0    0  0.60791606651E-04 -0.60824252706E-01  0.12056011529E+00  0.14234442902E+00  0.45028898085E-01 0.  0.
         14    1    1    2    0    0 -0.47940866560E-02 -0.86309768086E-02  0.27902075776E-02  0.10259741023E-01  0.00000000000E+00 0. -1.
     999901    1    3    3    0    0  0.47332950493E-02  0.69455229514E-01 -0.12335032287E+00  0.89132582995E+00  0.88000000000E+00 0. -1.
        -11    1    4    4    0    0  0.95436077206E-02 -0.15508128879E-01  0.75754609644E-01  0.77914084176E-01  0.51100000000E-03 0.  1.
         11    1    4    4    0    0 -0.94828161139E-02 -0.45316123826E-01  0.44805505646E-01  0.64430344849E-01  0.51100000000E-03 0. -1.
</event>
<event>
 8    1  0.2846344E+004  0.1043930E+01  0.7957747E-01            NaN
         13   -1    0    0    0    0  0.00000000000E+00  0.00000000000E+00  0.74505805969E-08  0.10566000000E+00  0.10566000000E+00 0.  1.
     999900   -1    0    0    0    0 -0.00000000000E+00 -0.00000000000E+00 -0.74505805969E-08  0.93827000000E+00  0.93827000000E+00 0. -1.
     999902    2    1    2    0    0  0.11100067358E-01  0.43881341637E-02 -0.63342261926E-02  0.10304174267E+01  0.10303288230E+01 0.  0.
     999903    2    3    3    0    0 -0.10526471007E+00  0.66075966311E-01 -0.45314341940E-01  0.13976283621E+00  0.45095102726E-01 0.  0.
         14    1    1    2    0    0 -0.11100067358E-01 -0.43881341637E-02  0.63342261926E-02  0.13512573339E-01  0.00000000000E+00 0.  1.
     999901    1    3    3    0    0  0.11636477743E+00 -0.61687832147E-01  0.38980115747E-01  0.89065459045E+00  0.88000000000E+00 0. -1.
        -11    1    4    4    0    0 -0.64761395250E-01  0.28009437067E-01 -0.43162538720E-02  0.70692701519E-01  0.51100000000E-03 0.  1.
         11    1    4    4    0    0 -0.40503314824E-01  0.38066529243E-01 -0.40998088068E-01  0.69070134694E-01  0.51100000000E-03 0. -1.
</event>
<event>
 8    1  0.2846344E+004  0.1043930E+01  0.7957747E-01            NaN
         13   -1    0    0    0    0  0.00000000000E+00  0.00000000000E+00  0.74505805969E-08  0.10566000000E+00  0.10566000000E+00 0. -1.
     999900   -1    0    0    0    0 -0.00000000000E+00 -0.00000000000E+00 -0.74505805969E-08  0.93827000000E+00  0.93827000000E+00 0.  1.
     999902    2    1    2    0    0  0.92701468512E-03  0.39775561711E-03  0.14159196964E-01  0.10297349155E+01  0.10296370699E+01 0.  0.
     999903    2    3    3    0    0 -0.11560103134E+00  0.63304552377E-01 -0.66199620498E-02  0.13958446526E+00  0.45485538870E-01 0.  0.
         14    1    1    2    0    0 -0.92701468512E-03 -0.39775561711E-03 -0.14159196964E-01  0.14195084516E-01  0.00000000000E+00 0.  1.
     999901    1    3    3    0    0  0.11652804602E+00 -0.62906796760E-01  0.20779159014E-01  0.89015045023E+00  0.88000000000E+00 0.  1.
        -11    1    4    4    0    0 -0.77435656619E-01  0.28177825100E-01 -0.22345809215E-01  0.85380718279E-01  0.51100000000E-03 0. -1.
         11    1    4    4    0    0 -0.38165374717E-01  0.35126727277E-01  0.15725847166E-01  0.54203746979E-01  0.51100000000E-03 0.  1.
</event>
<event>
 8    1  0.2846344E+004  0.1043930E+01  0.7957747E-01            NaN
         13   -1    0    0    0    0  0.00000000000E+00  0.00000000000E+00  0.74505805969E-08  0.10566000000E+00  0.10566000000E+00 0. -1.
     999900   -1    0    0    0    0 -0.00000000000E+00 -0.00000000000E+00 -0.74505805969E-08  0.93827000000E+00  0.93827000000E+00 0.  1.
     999902    2    1    2    0    0 -0.79602292688E-03  0.16563779884E-01  0.61857724087E-02  0.10262309538E+01  0.10260783178E+01 0.  0.
     999903    2    3    3    0    0 -0.41963437450E-01  0.21424963202E-01 -0.11984379135E+00  0.13628610265E+00  0.44625198273E-01 0.  0.
         14    1    1    2    0    0  0.79602292688E-03 -0.16563779884E-01 -0.61857724087E-02  0.17699046213E-01  0.00000000000E+00 0. -1.
     999901    1    3    3    0    0  0.41167414523E-01 -0.48611833178E-02  0.12602956376E+00  0.88994485114E+00  0.88000000000E+00 0. -1.
        -11    1    4    4    0    0 -0.12757376017E-01 -0.65974914024E-03 -0.84263484411E-01  0.85227823144E-01  0.51100000000E-03 0.  1.
         11    1    4    4    0    0 -0.29206061433E-01  0.22084712342E-01 -0.35580306936E-01  0.51058279508E-01  0.51100000000E-03 0. -1.
</event>
<event>
 8    1  0.2846344E+004  0.1043930E+01  0.7957747E-01            NaN
         13   -1    0    0    0    0  0.00000000000E+00  0.00000000000E+00  0.74505805969E-08  0.10566000000E+00  0.10566000000E+00 0.  1.
     999900   -1    0    0    0    0 -0.00000000000E+00 -0.00000000000E+00 -0.74505805969E-08  0.93827000000E+00  0.93827000000E+00 0. -1.
     999902    2    1    2    0    0 -0.11452727240E-01 -0.54441584364E-02 -0.58324552021E-02  0.10299721579E+01  0.10298775775E+01 0.  0.
     999903    2    3    3    0    0 -0.12726062190E+00 -0.12026369081E-01 -0.41478137111E-01  0.14164484852E+00  0.44754081545E-01 0.  0.
         14    1    1    2    0    0  0.11452727240E-01  0.54441584364E-02  0.58324552021E-02  0.13957842096E-01  0.00000000000E+00 0.  1.
     999901    1    3    3    0    0  0.11580789466E+00  0.65822106447E-02  0.35645681909E-01  0.88832730939E+00  0.88000000000E+00 0.  1.
        -11    1    4    4    0    0 -0.80149021168E-01  0.14335191196E-01 -0.26278852944E-01  0.85558182156E-01  0.51100000000E-03 0. -1.
         11    1    4    4    0    0 -0.47111600728E-01 -0.26361560278E-01 -0.15199284166E-01  0.56086666362E-01  0.51100000000E-03 0.  1.
</event>
<event>
 7    1  0.2846344E+004  0.1043930E+01  0.7957747E-01            NaN
         13   -1    0    0    0    0  0.00000000000E+00  0.00000000000E+00  0.74505805969E-08  0.10566000000E+00  0.10566000000E+00 0.  1.
     999900   -1    0    0    0    0 -0.00000000000E+00 -0.00000000000E+00 -0.74505805969E-08  0.93827000000E+00  0.93827000000E+00 0. -1.
     999903    2    1    2    0    0 -0.12238767911E-01  0.40769200370E-02 -0.11730254445E+00  0.12626717759E+00  0.44912186379E-01 0.  0.
         14    1    1    2    0    0 -0.12056911522E-01  0.25037093918E-01  0.13041676067E-01  0.30697076440E-01  0.00000000000E+00 0.  1.
     999901    1    1    2    0    0  0.24295679433E-01 -0.29114013955E-01  0.10426086838E+00  0.88696574597E+00  0.88000000000E+00 0.  1.
        -11    1    3    3    0    0  0.12106372420E-01  0.15353521700E-01 -0.57029547874E-01  0.60290341959E-01  0.51100000000E-03 0.  1.
         11    1    3    3    0    0 -0.24345140331E-01 -0.11276601663E-01 -0.60272996575E-01  0.65976835632E-01  0.51100000000E-03 0. -1.
</event>
<event>
 7    1  0.2846344E+004  0.1043930E+01  0.7957747E-01            NaN
         13   -1    0    0    0    0  0.00000000000E+00  0.00000000000E+00  0.74505805969E-08  0.10566000000E+00  0.10566000000E+00 0.  1.
     999900   -1    0    0    0    0 -0.00000000000E+00 -0.00000000000E+00 -0.74505805969E-08  0.93827000000E+00  0.93827000000E+00 0.  1.
     999903    2    1    2    0    0  0.36697251768E-01 -0.35540485120E-01 -0.75960154576E-01  0.10157891830E+00  0.44028595145E-01 0.  0.
         14    1    1    2    0    0 -0.52009168475E-01 -0.23644877523E-01  0.64809454273E-02  0.57498143380E-01  0.00000000000E+00 0.  1.
     999901    1    1    2    0    0  0.15311916707E-01  0.59185362644E-01  0.69479209149E-01  0.88485293832E+00  0.88000000000E+00 0. -1.
        -11    1    3    3    0    0  0.15186065742E-01 -0.42162899429E-01 -0.53265878198E-01  0.69612079284E-01  0.51100000000E-03 0. -1.
         11    1    3    3    0    0  0.21511186026E-01  0.66224143091E-02 -0.22694276378E-01  0.31966839019E-01  0.51100000000E-03 0.  1.
</event>
<event>
 8    1  0.2846344E+004  0.1043930E+01  0.7957747E-01            NaN
         13   -1    0    0    0    0  0.00000000000E+00  0.00000000000E+00  0.74505805969E-08  0.10566000000E+00  0.10566000000E+00 0.  1.
     999900   -1    0    0    0    0 -0.00000000000E+00 -0.00000000000E+00 -0.74505805969E-08  0.93827000000E+00  0.93827000000E+00 0. -1.
     999902    2    1    2    0    0 -0.95616291225E-02  0.64170853970E-02  0.61892251667E-02  0.10308567355E+01  0.10307738350E+01 0.  0.
     999903    2    3    3    0    0 -0.11628744035E-02  0.19240148177E-01  0.13293451326E+00  0.14164397239E+00  0.44943236660E-01 0.  0.
         14    1    1    2    0    0  0.95616291225E-02 -0.64170853970E-02 -0.61892251667E-02  0.13073264498E-01  0.00000000000E+00 0. -1.
     999901    1    3    3    0    0 -0.83987547189E-02 -0.12823062780E-01 -0.12674528809E+00  0.88921276311E+00  0.88000000000E+00 0. -1.
        -11    1    4    4    0    0  0.11804154430E-01  0.21959613103E-01  0.35917791933E-01  0.43725411007E-01  0.51100000000E-03 0.  1.
         11    1    4    4    0    0 -0.12967028833E-01 -0.27194649252E-02  0.97016721327E-01  0.97918561387E-01  0.51100000000E-03 0. -1.
</event>
<event>
 8    1  0.2846344E+004  0.1043930E+01  0.7957747E-01            NaN
         13   -1    0    0    0    0  0.00000000000E+00  0.00000000000E+00  0.74505805969E-08  0.10566000000E+00  0.10566000000E+00 0.  1.
     999900   -1    0    0    0    0 -0.00000000000E+00 -0.00000000000E+00 -0.74505805969E-08  0.93827000000E+00  0.93827000000E+00 0.  1.
     999902    2    1    2    0    0  0.57743201752E-02 -0.32708988000E-02  0.12409322592E-01  0.10298575859E+01  0.10297614356E+01 0.  0.
     999903    2    3    3    0    0 -0.10179164040E+00 -0.21974560446E-01 -0.79270362333E-01  0.13838384679E+00  0.44965312694E-01 0.  0.
         14    1    1    2    0    0 -0.57743201752E-02  0.32708988000E-02 -0.12409322592E-01  0.14072414137E-01  0.00000000000E+00 0. -1.
     999901    1    3    3    0    0  0.10756596057E+00  0.18703661646E-01  0.91679684925E-01  0.89147373908E+00  0.88000000000E+00 0.  1.
        -11    1    4    4    0    0 -0.28421296592E-01  0.12918583376E-01 -0.14243826012E-01  0.34319201576E-01  0.51100000000E-03 0.  1.
         11    1    4    4    0    0 -0.73370343806E-01 -0.34893143822E-01 -0.65026536321E-01  0.10406464521E+00  0.51100000000E-03 0. -1.
</event>
<event>
 8    1  0.2846344E+004  0.1043930E+01  0.7957747E-01            NaN
         13   -1    0    0    0    0  0.00000000000E+00  0.00000000000E+00  0.74505805969E-08  0.10566000000E+00  0.10566000000E+00 0.  1.
     999900   -1    0    0    0    0 -0.00000000000E+00 -0.00000000000E+00 -0.74505805969E-08  0.93827000000E+00  0.93827000000E+00 0.  1.
     999902    2    1    2    0    0 -0.19749400947E-02 -0.48236711366E-02  0.12432449794E-01  0.10304491247E+01  0.10303609390E+01 0.  0.
     999903    2    3    3    0    0 -0.17242220935E-01 -0.22634338471E-01 -0.12790637922E+00  0.13902032962E+00  0.46443543588E-01 0.  0.
         14    1    1    2    0    0  0.19749400947E-02  0.48236711366E-02 -0.12432449794E-01  0.13480875323E-01  0.00000000000E+00 0. -1.
     999901    1    3    3    0    0  0.15267280840E-01  0.17810667334E-01  0.14033882901E+00  0.89142879506E+00  0.88000000000E+00 0. -1.
        -11    1    4    4    0    0 -0.17314487622E-02  0.96786181191E-02 -0.71586017482E-01  0.72259896093E-01  0.51100000000E-03 0.  1.
         11    1    4    4    0    0 -0.15510772172E-01 -0.32312956590E-01 -0.56320361737E-01  0.66760433523E-01  0.51100000000E-03 0. -1.
</event>
<event>
 8    1  0.2846344E+004  0.1043930E+01  0.7957747E-01            NaN
         13   -1    0    0    0    0  0.00000000000E+00  0.00000000000E+00  0.74505805969E-08  0.10566000000E+00  0.10566000000E+00 0. -1.
     999900   -1    0    0    0    0 -0.00000000000E+00 -0.00000000000E+00 -0.74505805969E-08  0.93827000000E+00  0.93827000000E+00 0.  1.
     999902    2    1    2    0    0 -0.39964052529E-03  0.14441846856E-01  0.54002740871E-02  0.10285063294E+01  0.10283906748E+01 0.  0.
     999903    2    3    3    0    0 -0.53571902354E-02  0.73142532815E-01  0.11081406432E+00  0.14025950845E+00  0.44882549698E-01 0.  0.
         14    1    1    2    0    0  0.39964052529E-03 -0.14441846856E-01 -0.54002740871E-02  0.15423670554E-01  0.00000000000E+00 0.  1.
     999901    1    3    3    0    0  0.49575497101E-02 -0.58700685959E-01 -0.10541379023E+00  0.88824682099E+00  0.88000000000E+00 0.  1.
        -11    1    4    4    0    0 -0.18248753618E-01  0.15540764809E-01  0.50309772036E-01  0.55730302913E-01  0.51100000000E-03 0. -1.
         11    1    4    4    0    0  0.12891563383E-01  0.57601768007E-01  0.60504292281E-01  0.84529205541E-01  0.51100000000E-03 0.  1.
</event>
<event>
 8    1  0.2846344E+004  0.1043930E+01  0.7957747E-01            NaN
         13   -1    0    0    0    0  0.00000000000E+00  0.00000000000E+00  0.74505805969E-08  0.10566000000E+00  0.10566000000E+00 0. -1.
     999900   -1    0    0    0    0 -0.00000000000E+00 -0.00000000000E+00 -0.74505805969E-08  0.93827000000E+00  0.93827000000E+00 0.  1.
     999902    2    1    2    0    0  0.10542158769E-01 -0.53158549850E-02 -0.74238521982E-02  0.10299833514E+01  0.10298889237E+01 0.  0.
     999903    2    3    3    0    0  0.31132469306E-01 -0.49187583697E-01 -0.12073993813E+00  0.14139501882E+00  0.45008550867E-01 0.  0.
         14    1    1    2    0    0 -0.10542158769E-01  0.53158549850E-02  0.74238521982E-02  0.13946648601E-01  0.00000000000E+00 0.  1.
     999901    1    3    3    0    0 -0.20590310537E-01  0.43871728712E-01  0.11331608593E+00  0.88858833258E+00  0.88000000000E+00 0. -1.
        -11    1    4    4    0    0  0.33983838617E-01 -0.30977234876E-01 -0.48486619025E-01  0.66825920967E-01  0.51100000000E-03 0. -1.
         11    1    4    4    0    0 -0.28513693106E-02 -0.18210348821E-01 -0.72253319108E-01  0.74569097850E-01  0.51100000000E-03 0.  1.
</event>
<event>
 8    1  0.2846344E+004  0.1043930E+01  0.7957747E-01            NaN
         13   -1    0    0    0    0  0.00000000000E+00  0.00000000000E+00  0.74505805969E-08  0.10566000000E+00  0.10566000000E+00 0. -1.
     999900   -1    0    0    0    0 -0.00000000000E+00 -0.00000000000E+00 -0.74505805969E-08  0.93827000000E+00  0.93827000000E+00 0.  1.
     999902    2    1    2    0    0 -0.10609434147E-01  0.34130530485E-02  0.93670987786E-02  0.10293714436E+01  0.10292684865E+01 0.  0.
     999903    2    3    3    0    0  0.74059483526E-01  0.85369828880E-01  0.69173393215E-01  0.13950486286E+00  0.43632942239E-01 0.  0.
         14    1    1    2    0    0  0.10609434147E-01 -0.34130530485E-02 -0.93670987786E-02  0.14558556370E-01  0.00000000000E+00 0.  1.
     999901    1    3    3    0    0 -0.84668917673E-01 -0.81956775832E-01 -0.59806294436E-01  0.88986658077E+00  0.88000000000E+00 0.  1.
        -11    1    4    4    0    0  0.95870321745E-02  0.40112500968E-01  0.33005155925E-01  0.52825423410E-01  0.51100000000E-03 0.  1.
         11    1    4    4    0    0  0.64472451352E-01  0.45257327912E-01  0.36168237290E-01  0.86679439446E-01  0.51100000000E-03 0. -1.
</event>
<event>
 8    1  0.2846344E+004  0.1043930E+01  0.7957747E-01            NaN
         13   -1    0    0    0    0  0.00000000000E+00  0.00000000000E+00  0.74505805969E-08  0.10566000000E+00  0.10566000000E+00 0. -1.
     999900   -1    0    0    0    0 -0.00000000000E+00 -0.00000000000E+00 -0.74505805969E-08  0.93827000000E+00  0.93827000000E+00 0.  1.
     999902    2    1    2    0    0 -0.11851626384E-02 -0.24978367051E-02 -0.13172372370E-01  0.10304706095E+01  0.10303827065E+01 0.  0.
     999903    2    3    3    0    0  0.20091778419E-01  0.71178236792E-01 -0.11269158460E+00  0.14154713381E+00  0.43199269650E-01 0.  0.
         14    1    1    2    0    0  0.11851626384E-02  0.24978367051E-02  0.13172372370E-01  0.13459390497E-01  0.00000000000E+00 0. -1.
     999901    1    3    3    0    0 -0.21276941057E-01 -0.73676073497E-01  0.99519212232E-01  0.88892347569E+00  0.88000000000E+00 0. -1.
        -11    1    4    4    0    0  0.31203227537E-01  0.48208589064E-01 -0.93041747314E-01  0.10933772145E+00  0.51100000000E-03 0. -1.
         11    1    4    4    0    0 -0.11111449118E-01  0.22969647728E-01 -0.19649837288E-01  0.32209412362E-01  0.51100000000E-03 0.  1.
</event>
<event>
 8    1  0.2846344E+004  0.1043930E+01  0.7957747E-01            NaN
         13   -1    0    0    0    0  0.00000000000E+00  0.00000000000E+00  0.74505805969E-08  0.10566000000E+00  0.10566000000E+00 0. -1.
     999900   -1    0    0    0    0 -0.00000000000E+00 -0.00000000000E+00 -0.74505805969E-08  0.93827000000E+00  0.93827000000E+00 0. -1.
     999902    2    1    2    0    0 -0.85285207194E-03 -0.44619985463E-02  0.13073761801E-01  0.10300894785E+01  0.10299964921E+01 0.  0.
     999903    2    3    3    0    0 -0.32920718130E-01  0.11541918728E+00  0.56481699715E-01  0.14032316321E+00  0.45771664347E-01 0.  0.
         14    1    1    2    0    0  0.85285207194E-03  0.44619985463E-02 -0.13073761801E-01  0.13840521497E-01  0.00000000000E+00 0.  1.
     999901    1    3    3    0    0  0.32067866058E-01 -0.11988118583E+00 -0.43407937914E-01  0.88976631529E+00  0.88000000000E+00 0.  1.
        -11    1    4    4    0    0 -0.22119074916E-01  0.82833973958E-01  0.15956842399E-01  0.87210106393E-01  0.51100000000E-03 0.  1.
         11    1    4    4    0    0 -0.10801643214E-01  0.32585213323E-01  0.40524857316E-01  0.53113056821E-01  0.51100000000E-03 0. -1.
</event>
<event>
 8    1  0.2846344E+004  0.1043930E+01  0.7957747E-01            NaN
         13   -1    0    0    0    0  0.00000000000E+00  0.00000000000E+00  0.74505805969E-08  0.10566000000E+00  0.10566000000E+00 0. -1.
     999900   -1    0    0    0    0 -0.00000000000E+00 -0.00000000000E+00 -0.74505805969E-08  0.93827000000E+00  0.93827000000E+00 0. -1.
     999902    2    1    2    0    0 -0.78232803313E-04 -0.12851676699E-01  0.16951720905E-02  0.10309667704E+01  0.10308852682E+01 0.  0.
     999903    2    3    3    0    0 -0.13366513647E+00 -0.74946581675E-02 -0.21587132823E-02  0.14086059079E+00  0.43755084093E-01 0.  0.
         14    1    1    2    0    0  0.78232803313E-04  0.12851676699E-01 -0.16951720905E-02  0.12963229643E-01  0.00000000000E+00 0. -1.
     999901    1    3    3    0    0  0.13358690367E+00 -0.53570185316E-02  0.38538853728E-02  0.89010617957E+00  0.88000000000E+00 0. -1.
        -11    1    4    4    0    0 -0.48708523369E-01  0.11594876403E-01 -0.16267923964E-01  0.52648531591E-01  0.51100000000E-03 0.  1.
         11    1    4    4    0    0 -0.84956613104E-01 -0.19089534571E-01  0.14109210682E-01  0.88212059194E-01  0.51100000000E-03 0. -1.
</event>
<event>
 7    1  0.2846344E+004  0.1043930E+01  0.7957747E-01            NaN
         13   -1    0    0    0    0  0.00000000000E+00  0.00000000000E+00  0.74505805969E-08  0.10566000000E+00  0.10566000000E+00 0. -1.
     999900   -1    0    0    0    0 -0.00000000000E+00 -0.00000000000E+00 -0.74505805969E-08  0.93827000000E+00  0.93827000000E+00 0.  1.
     999902    2    1    2    0    0  0.96071782415E-02 -0.45612393698E-02 -0.86203580430E-02  0.10302401004E+01  0.10301491402E+01 0.  0.
         14    1    1    2    0    0 -0.96071782415E-02  0.45612393698E-02  0.86203580430E-02  0.13689899603E-01  0.00000000000E+00 0. -1.
     999901    1    3    3    0    0 -0.56910842356E-01 -0.63132976520E-01  0.82953294776E-01  0.88797852779E+00  0.88000000000E+00 0. -1.
        -11    1    3    3    0    0  0.16051278512E-01  0.40465628043E-01 -0.73962827975E-01  0.85824656352E-01  0.51100000000E-03 0. -1.
         11    1    3    3    0    0  0.50466742085E-01  0.18106109108E-01 -0.17610824843E-01  0.56436916255E-01  0.51100000000E-03 0.  1.
</event>
<event>
 8    1  0.2846344E+004  0.1043930E+01  0.7957747E-01            NaN
         13   -1    0    0    0    0  0.00000000000E+00  0.00000000000E+00  0.74505805969E-08  0.10566000000E+00  0.10566000000E+00 0. -1.
     999900   -1    0    0    0    0 -0.00000000000E+00 -0.00000000000E+00 -0.74505805969E-08  0.93827000000E+00  0.93827000000E+00 0. -1.
     999902    2    1    2    0    0 -0.76030216754E-02 -0.82283059037E-02 -0.78397534058E-02  0.10302562043E+01  0.10301654594E+01 0.  0.
     999903    2    3    3    0    0  0.25616002823E-01  0.12595799140E+00  0.26379197006E-01  0.13880771862E+00  0.45278311753E-01 0.  0.
         14    1    1    2    0    0  0.76030216754E-02  0.82283059037E-02  0.78397534058E-02  0.13673795746E-01  0.00000000000E+00 0. -1.
     999901    1    3    3    0    0 -0.33219024498E-01 -0.13418629730E+00 -0.34218950412E-01  0.89144848563E+00  0.88000000000E+00 0. -1.
        -11    1    4    4    0    0  0.26780875875E-01  0.47088374281E-01  0.25614664971E-01  0.59924139440E-01  0.51100000000E-03 0. -1.
         11    1    4    4    0    0 -0.11648730519E-02  0.78869617120E-01  0.76453203464E-03  0.78883579179E-01  0.51100000000E-03 0.  1.
</event>
<event>
 8    1  0.2846344E+004  0.1043930E+01  0.7957747E-01            NaN
         13   -1    0    0    0    0  0.00000000000E+00  0.00000000000E+00  0.74505805969E-08  0.10566000000E+00  0.10566000000E+00 0.  1.
     999900   -1    0    0    0    0 -0.00000000000E+00 -0.00000000000E+00 -0.74505805969E-08  0.93827000000E+00  0.93827000000E+00 0. -1.
     999902    2    1    2    0    0 -0.33777177915E-02  0.61213522407E-02  0.11800840141E-01  0.10302135953E+01  0.10301222802E+01 0.  0.
     999903    2    3    3    0    0  0.42006370726E-01 -0.77138494492E-01 -0.97057697389E-01  0.13845011835E+00  0.45092750363E-01 0.  0.
         14    1    1    2    0    0  0.33777177915E-02 -0.61213522407E-02 -0.11800840141E-01  0.13716404732E-01  0.00000000000E+00 0. -1.
     999901    1    3    3    0    0 -0.45384088518E-01  0.83259846732E-01  0.10885853753E+00  0.89176347692E+00  0.88000000000E+00 0.  1.
        -11    1    4    4    0    0  0.33150830906E-01 -0.46442666467E-01 -0.30691679447E-01  0.64793048752E-01  0.51100000000E-03 0.  1.
         11    1    4    4    0    0  0.88555398198E-02 -0.30695828025E-01 -0.66366017942E-01  0.73657069600E-01  0.51100000000E-03 0. -1.
</event>
<event>
 8    1  0.2846344E+004  0.1043930E+01  0.7957747E-01            NaN
         13   -1    0    0    0    0  0.00000000000E+00  0.00000000000E+00  0.74505805969E-08  0.10566000000E+00  0.10566000000E+00 0.  1.
     999900   -1    0    0    0    0 -0.00000000000E+00 -0.00000000000E+00 -0.74505805969E-08  0.93827000000E+00  0.93827000000E+00 0.  1.
     999902    2    1    2    0    0  0.41844199169E-02  0.11260247333E-02 -0.13577927665E-01  0.10296773714E+01  0.10295787254E+01 0.  0.
     999903    2    3    3    0    0  0.34287914089E-03  0.10435261993E+00 -0.83129559259E-01  0.14090973202E+00  0.45336983830E-01 0.  0.
         14    1    1    2    0    0 -0.41844199169E-02 -0.11260247333E-02  0.13577927665E-01  0.14252628579E-01  0.00000000000E+00 0.  1.
     999901    1    3    3    0    0  0.38415407760E-02 -0.10322659520E+00  0.69551631595E-01  0.88876763940E+00  0.88000000000E+00 0. -1.
        -11    1    4    4    0    0 -0.13682087728E-02  0.80842441957E-01 -0.84929558107E-01  0.11726322262E+00  0.51100000000E-03 0.  1.
         11    1    4    4    0    0  0.17110879137E-02  0.23510177972E-01  0.17999988479E-02  0.23646509403E-01  0.51100000000E-03 0. -1.
</event>
<event>
 8    1  0.2846344E+004  0.1043930E+01  0.7957747E-01            NaN
         13   -1    0    0    0    0  0.00000000000E+00  0.00000000000E+00  0.74505805969E-08  0.10566000000E+00  0.10566000000E+00 0. -1.
     999900   -1    0    0    0    0 -0.00000000000E+00 -0.00000000000E+00 -0.74505805969E-08  0.93827000000E+00  0.93827000000E+00 0.  1.
     999902    2    1    2    0    0  0.59048371143E-02  0.12089366880E-01  0.57080673543E-02  0.10293148734E+01  0.10292111089E+01 0.  0.
     999903    2    3    3    0    0  0.39288509992E-01 -0.12374734732E+00 -0.15515759937E-01  0.13801440027E+00  0.44161554441E-01 0.  0.
         14    1    1    2    0    0 -0.59048371143E-02 -0.12089366880E-01 -0.57080673543E-02  0.14615126610E-01  0.00000000000E+00 0.  1.
     999901    1    3    3    0    0 -0.33383672878E-01  0.13583671420E+00  0.21223827291E-01  0.89130047312E+00  0.88000000000E+00 0. -1.
        -11    1    4    4    0    0  0.29597333915E-01 -0.40261041826E-01  0.83003680721E-02  0.50656795150E-01  0.51100000000E-03 0.  1.
         11    1    4    4    0    0  0.96911760772E-02 -0.83486305489E-01 -0.23816128009E-01  0.87357605120E-01  0.51100000000E-03 0. -1.
</event>
<event>
 8    1  0.2846344E+004  0.1043930E+01  0.7957747E-01            NaN
         13   -1    0    0    0    0  0.00000000000E+00  0.00000000000E+00  0.74505805969E-08  0.10566000000E+00  0.10566000000E+00 0.  1.
     999900   -1    0    0    0    0 -0.00000000000E+00 -0.00000000000E+00 -0.74505805969E-08  0.93827000000E+00  0.93827000000E+00 0.  1.
     999902    2    1    2    0    0 -0.10765114931E-01  0.75115689879E-02 -0.53218727973E-02  0.10297654775E+01  0.10296680557E+01 0.  0.
     999903    2    3    3    0    0 -0.36384210584E-01 -0.10625591468E+00  0.68281427639E-01  0.13902599579E+00  0.45296180430E-01 0.  0.
         14    1    1    2    0    0  0.10765114931E-01 -0.75115689879E-02  0.53218727973E-02  0.14164522520E-01  0.00000000000E+00 0.  1.
     999901    1    3    3    0    0  0.25619095653E-01  0.11376748367E+00 -0.73603300436E-01  0.89073948169E+00  0.88000000000E+00 0.  1.
        -11    1    4    4    0    0 -0.13056606976E-01 -0.66965312119E-02  0.22781386316E-01  0.27102973997E-01  0.51100000000E-03 0.  1.
         11    1    4    4    0    0 -0.23327603608E-01 -0.99559383467E-01  0.45500041323E-01  0.11192302180E+00  0.51100000000E-03 0. -1.
</event>
<event>
 8    1  0.2846344E+004  0.1043930E+01  0.7957747E-01            NaN
         13   -1    0    0    0    0  0.00000000000E+00  0.00000000000E+00  0.74505805969E-08  0.10566000000E+00  0.10566000000E+00 0. -1.
     999900   -1    0    0    0    0 -0.00000000000E+00 -0.00000000000E+00 -0.74505805969E-08  0.93827000000E+00  0.93827000000E+00 0.  1.
     999902    2    1    2    0    0 -0.28797850120E-02  0.31618472164E-02 -0.13075203275E-01  0.10301731333E+01  0.10300812751E+01 0.  0.
     999903    2    3    3    0    0  0.89826500358E-01  0.93635355001E-01  0.26500773483E-01  0.13981019111E+00  0.44813152886E-01 0.  0.
         14    1    1    2    0    0  0.28797850120E-02 -0.31618472164E-02  0.13075203275E-01  0.13756866657E-01  0.00000000000E+00 0. -1.
     999901    1    3    3    0    0 -0.92706285370E-01 -0.90473507785E-01 -0.39575976757E-01  0.89036294223E+00  0.88000000000E+00 0.  1.
        -11    1    4    4    0    0  0.17303782167E-01  0.13285228815E-01 -0.12028279643E-01  0.24917038631E-01  0.51100000000E-03 0.  1.
         11    1    4    4    0    0  0.72522718191E-01  0.80350126186E-01  0.38529053126E-01  0.11489315248E+00  0.51100000000E-03 0. -1.
</event>
<event>
 8    1  0.2846344E+004  0.1043930E+01  0.7957747E-01            NaN
         13   -1    0    0    0    0  0.00000000000E+00  0.00000000000E+00  0.74505805969E-08  0.10566000000E+00  0.10566000000E+00 0.  1.
     999900   -1    0    0    0    0 -0.00000000000E+00 -0.00000000000E+00 -0.74505805969E-08  0.93827000000E+00  0.93827000000E+00 0. -1.
     999902    2    1    2    0    0 -0.50604850297E-02  0.12967277092E-01 -0.11259486347E-01  0.10260265138E+01  0.10258702999E+01 0.  0.
     999903    2    3    3    0    0 -0.11397863646E+00  0.40358812599E-01  0.46080971622E-01  0.13703754425E+00  0.45120607975E-01 0.  0.
         14    1    1    2    0    0  0.50604850297E-02 -0.12967277092E-01  0.11259486347E-01  0.17903486161E-01  0.00000000000E+00 0.  1.
     999901    1    3    3    0    0  0.10891815143E+00 -0.27391535507E-01 -0.57340457969E-01  0.88898896959E+00  0.88000000000E+00 0.  1.
        -11    1    4    4    0    0 -0.20542424996E-01  0.12685402446E-01  0.29604957107E-01  0.38205042419E-01  0.51100000000E-03 0.  1.
         11    1    4    4    0    0 -0.93436211469E-01  0.27673410153E-01  0.16476014515E-01  0.98832501832E-01  0.51100000000E-03 0. -1.
</event>
<event>
 8    1  0.2846344E+004  0.1043930E+01  0.7957747E-01            NaN
         13   -1    0    0    0    0  0.00000000000E+00  0.00000000000E+00  0.74505805969E-08  0.10566000000E+00  0.10566000000E+00 0.  1.
     999900   -1    0    0    0    0 -0.00000000000E+00 -0.00000000000E+00 -0.74505805969E-08  0.93827000000E+00  0.93827000000E+00 0. -1.
     999902    2    1    2    0    0  0.16999305357E-02 -0.70322323456E-02  0.12167125472E-01  0.10297744005E+01  0.10296771022E+01 0.  0.
     999903    2    3    3    0    0  0.14007933960E-02 -0.13228865441E+00  0.17271340760E-01  0.14089009205E+00  0.45271056085E-01 0.  0.
         14    1    1    2    0    0 -0.16999305357E-02  0.70322323456E-02 -0.12167125472E-01  0.14155599523E-01  0.00000000000E+00 0.  1.
     999901    1    3    3    0    0  0.29913713973E-03  0.12525642206E+00 -0.51042152880E-02  0.88888430843E+00  0.88000000000E+00 0. -1.
        -11    1    4    4    0    0  0.14514770796E-02 -0.63594297723E-01  0.31111767866E-01  0.70813450060E-01  0.51100000000E-03 0. -1.
         11    1    4    4    0    0 -0.50683683624E-04 -0.68694356687E-01 -0.13840427106E-01  0.70076641992E-01  0.51100000000E-03 0.  1.
</event>
<event>
 8    1  0.2846344E+004  0.1043930E+01  0.7957747E-01            NaN
         13   -1    0    0    0    0  0.00000000000E+00  0.00000000000E+00  0.74505805969E-08  0.10566000000E+00  0.10566000000E+00 0. -1.
     999900   -1    0    0    0    0 -0.00000000000E+00 -0.00000000000E+00 -0.74505805969E-08  0.93827000000E+00  0.93827000000E+00 0.  1.
     999902    2    1    2    0    0 -0.20886058735E-02  0.10061424801E-01  0.93299523482E-02  0.10300504267E+01  0.10299569113E+01 0.  0.
     999903    2    3    3    0    0  0.54320517169E-01  0.10535412659E+00  0.61745984410E-01  0.14156287555E+00  0.46661231950E-01 0.  0.
         14    1    1    2    0    0  0.20886058735E-02 -0.10061424801E-01 -0.93299523482E-02  0.13879573277E-01  0.00000000000E+00 0.  1.
     999901    1    3    3    0    0 -0.56409123043E-01 -0.95292701791E-01 -0.52416032061E-01  0.88848755118E+00  0.88000000000E+00 0.  1.
        -11    1    4    4    0    0  0.52415718044E-01  0.76062908005E-01  0.63590959125E-01  0.11214742385E+00  0.51100000000E-03 0.  1.
         11    1    4    4    0    0  0.19047991250E-02  0.29291218587E-01 -0.18449747151E-02  0.29415451700E-01  0.51100000000E-03 0. -1.
</event>
<event>
 8    1  0.2846344E+004  0.1043930E+01  0.7957747E-01            NaN
         13   -1    0    0    0    0  0.00000000000E+00  0.00000000000E+00  0.74505805969E-08  0.10566000000E+00  0.10566000000E+00 0.  1.
     999900   -1    0    0    0    0 -0.00000000000E+00 -0.00000000000E+00 -0.74505805969E-08  0.93827000000E+00  0.93827000000E+00 0. -1.
     999902    2    1    2    0    0  0.89908588506E-02  0.98304450125E-02  0.43769645816E-02  0.10299074820E+01  0.10298120171E+01 0.  0.
     999903    2    3    3    0    0 -0.86051146957E-01 -0.97960431341E-01  0.54738657233E-02  0.13825000344E+00  0.45629532575E-01 0.  0.
         14    1    1    2    0    0 -0.89908588506E-02 -0.98304450125E-02 -0.43769645816E-02  0.14022517997E-01  0.00000000000E+00 0. -1.
     999901    1    3    3    0    0  0.95042005808E-01  0.10779087635E+00 -0.10969011417E-02  0.89165747857E+00  0.88000000000E+00 0.  1.
        -11    1    4    4    0    0 -0.28547718191E-01 -0.54084793881E-02  0.34985522136E-02  0.29269862518E-01  0.51100000000E-03 0. -1.
         11    1    4    4    0    0 -0.57503428766E-01 -0.92551951953E-01  0.19753135097E-02  0.10898014092E+00  0.51100000000E-03 0.  1.
</event>
<event>
 8    1  0.2846344E+004  0.1043930E+01  0.7957747E-01            NaN
         13   -1    0    0    0    0  0.00000000000E+00  0.00000000000E+00  0.74505805969E-08  0.10566000000E+00  0.10566000000E+00 0.  1.
     999900   -1    0    0    0    0 -0.00000000000E+00 -0.00000000000E+00 -0.74505805969E-08  0.93827000000E+00  0.93827000000E+00 0. -1.
     999902    2    1    2    0    0  0.34061780406E-02 -0.84348347323E-02 -0.37358396286E-02  0.10340961308E+01  0.10340493715E+01 0.  0.
     999903    2    3    3    0    0  0.11091136873E+00 -0.69834673116E-01 -0.41409181255E-01  0.14463191744E+00  0.45005088228E-01 0.  0.
         14    1    1    2    0    0 -0.34061780406E-02  0.84348347323E-02  0.37358396286E-02  0.98338692047E-02  0.00000000000E+00 0.  1.
     999901    1    3    3    0    0 -0.10750519069E+00  0.61399838384E-01  0.37673341626E-01  0.88946421336E+00  0.88000000000E+00 0.  1.
        -11    1    4    4    0    0  0.69157637148E-02 -0.21493794111E-01  0.33653983803E-03  0.22587282995E-01  0.51100000000E-03 0. -1.
         11    1    4    4    0    0  0.10399560501E+00 -0.48340879005E-01 -0.41745721093E-01  0.12204463444E+00  0.51100000000E-03 0.  1.
</event>
<event>
 8    1  0.2846344E+004  0.1043930E+01  0.7957747E-01            NaN
         13   -1    0    0    0    0  0.00000000000E+00  0.00000000000E+00  0.74505805969E-08  0.10566000000E+00  0.10566000000E+00 0.  1.
     999900   -1    0    0    0    0 -0.00000000000E+00 -0.00000000000E+00 -0.74505805969E-08  0.93827000000E+00  0.93827000000E+00 0.  1.
     999902    2    1    2    0    0 -0.42296509656E-02 -0.13671531028E-01  0.67817705149E-03  0.10296030802E+01  0.10295033958E+01 0.  0.
     999903    2    3    3    0    0 -0.71153297452E-01 -0.11524622010E+00 -0.83304031126E-02  0.14119025583E+00  0.38997560696E-01 0.  0.
         14    1    1    2    0    0  0.42296509656E-02  0.13671531028E-01 -0.67817705149E-03  0.14326919838E-01  0.00000000000E+00 0.  1.
     999901    1    3    3    0    0  0.66923646486E-01  0.10157468907E+00  0.90085801641E-02  0.88841282433E+00  0.88000000000E+00 0. -1.
        -11    1    4    4    0    0 -0.61037148161E-01 -0.74210708673E-01 -0.18173508306E-01  0.97792127815E-01  0.51100000000E-03 0.  1.
         11    1    4    4    0    0 -0.10116149291E-01 -0.41035511426E-01  0.98431051938E-02  0.43398128016E-01  0.51100000000E-03 0. -1.
</event>
<event>
 8    1  0.2846344E+004  0.1043930E+01  0.7957747E-01            NaN
         13   -1    0    0    0    0  0.00000000000E+00  0.00000000000E+00  0.74505805969E-08  0.10566000000E+00  0.10566000000E+00 0. -1.
     999900   -1    0    0    0    0 -0.00000000000E+00 -0.00000000000E+00 -0.74505805969E-08  0.93827000000E+00  0.93827000000E+00 0.  1.
     999902    2    1    2    0    0  0.71945669194E-02 -0.12967722998E-02 -0.18708403888E-01  0.10238439903E+01  0.10236469453E+01 0.  0.
     999903    2    3    3    0    0  0.30389481452E-01 -0.12358887267E+00  0.30390103583E-02  0.13481850586E+00  0.44374135558E-01 0.  0.
         14    1    1    2    0    0 -0.71945669194E-02  0.12967722998E-02  0.18708403888E-01  0.20086009748E-01  0.00000000000E+00 0. -1.
     999901    1    3    3    0    0 -0.23194914532E-01  0.12229210037E+00 -0.21747414246E-01  0.88902548439E+00  0.88000000000E+00 0.  1.
        -11    1    4    4    0    0 -0.38614858935E-02 -0.54116883783E-01 -0.12826352601E-01  0.55752350854E-01  0.51100000000E-03 0.  1.
         11    1    4    4    0    0  0.34250967345E-01 -0.69471988891E-01  0.15865362959E-01  0.79066155006E-01  0.51100000000E-03 0. -1.
</event>
<event>
 8    1  0.2846344E+004  0.1043930E+01  0.7957747E-01            NaN
         13   -1    0    0    0    0  0.00000000000E+00  0.00000000000E+00  0.74505805969E-08  0.10566000000E+00  0.10566000000E+00 0.  1.
     999900   -1    0    0    0    0 -0.00000000000E+00 -0.00000000000E+00 -0.74505805969E-08  0.93827000000E+00  0.93827000000E+00 0. -1.
     999902    2    1    2    0    0 -0.47877549412E-02  0.90054476807E-02  0.70485635196E-02  0.10315323013E+01  0.10314577964E+01 0.  0.
     999903    2    3    3    0    0  0.75256305819E-01 -0.31306658885E-01  0.10655256358E+00  0.14140132014E+00  0.44690782902E-01 0.  0.
         14    1    1    2    0    0  0.47877549412E-02 -0.90054476807E-02 -0.70485635196E-02  0.12397698698E-01  0.00000000000E+00 0. -1.
     999901    1    3    3    0    0 -0.80044060760E-01  0.40312106566E-01 -0.99504000057E-01  0.89013098116E+00  0.88000000000E+00 0. -1.
        -11    1    4    4    0    0  0.43263559860E-01 -0.14343583491E-01  0.24584425844E-01  0.51789276054E-01  0.51100000000E-03 0. -1.
         11    1    4    4    0    0  0.31992745959E-01 -0.16963075394E-01  0.81968137733E-01  0.89612044085E-01  0.51100000000E-03 0.  1.
</event>
<event>
 8    1  0.2846344E+004  0.1043930E+01  0.7957747E-01            NaN
         13   -1    0    0    0    0  0.00000000000E+00  0.00000000000E+00  0.74505805969E-08  0.10566000000E+00  0.10566000000E+00 0.  1.
     999900   -1    0    0    0    0 -0.00000000000E+00 -0.00000000000E+00 -0.74505805969E-08  0.93827000000E+00  0.93827000000E+00 0. -1.
     999902    2    1    2    0    0 -0.18371570604E-02 -0.54737756526E-02  0.12209745851E-01  0.10304238807E+01  0.10303353622E+01 0.  0.
     999903    2    3    3    0    0 -0.19535850366E-01 -0.69799173097E-01  0.11371142819E+00  0.14208070822E+00  0.44755611173E-01 0.  0.
         14    1    1    2    0    0  0.18371570604E-02  0.54737756526E-02 -0.12209745851E-01  0.13506119343E-01  0.00000000000E+00 0. -1.
     999901    1    3    3    0    0  0.17698693305E-01  0.64325397445E-01 -0.10150168234E+00  0.88834317244E+00  0.88000000000E+00 0. -1.
        -11    1    4    4    0    0 -0.14000170679E-01  0.10860022406E-02  0.20227680684E-01  0.24629339552E-01  0.51100000000E-03 0. -1.
         11    1    4    4    0    0 -0.55356796873E-02 -0.70885175338E-01  0.93483747508E-01  0.11745136867E+00  0.51100000000E-03 0.  1.
</event>
<event>
 8    1  0.2846344E+004  0.1043930E+01  0.7957747E-01            NaN
         13   -1    0    0    0    0  0.00000000000E+00  0.00000000000E+00  0.74505805969E-08  0.10566000000E+00  0.10566000000E+00 0.  1.
     999900   -1    0    0    0    0 -0.00000000000E+00 -0.00000000000E+00 -0.74505805969E-08  0.93827000000E+00  0.93827000000E+00 0.  1.
     999902    2    1    2    0    0 -0.43785905646E-02 -0.13000980753E-01  0.36160720228E-02  0.10297429096E+01  0.10296451750E+01 0.  0.
     999903    2    3    3    0    0  0.13604359597E-01  0.24380404572E-01  0.12932246047E+00  0.13984243737E+00  0.45300394924E-01 0.  0.
         14    1    1    2    0    0  0.43785905646E-02  0.13000980753E-01 -0.36160720228E-02  0.14187090356E-01  0.00000000000E+00 0.  1.
     999901    1    3    3    0    0 -0.17982950161E-01 -0.37381385325E-01 -0.12570638844E+00  0.88990047228E+00  0.88000000000E+00 0.  1.
        -11    1    4    4    0    0  0.14982160297E-02  0.35893587381E-01  0.78241435945E-01  0.86096327947E-01  0.51100000000E-03 0. -1.
         11    1    4    4    0    0  0.12106143567E-01 -0.11513182809E-01  0.51081024522E-01  0.53746109419E-01  0.51100000000E-03 0.  1.
</event>
<event>
 8    1  0.2846344E+004  0.1043930E+01  0.7957747E-01            NaN
         13   -1    0    0    0    0  0.00000000000E+00  0.00000000000E+00  0.74505805969E-08  0.10566000000E+00  0.10566000000E+00 0.  1.
     999900   -1    0    0    0    0 -0.00000000000E+00 -0.00000000000E+00 -0.74505805969E-08  0.93827000000E+00  0.93827000000E+00 0. -1.
     999902    2    1    2    0    0  0.88501706206E-03 -0.10743685345E-01  0.72125205869E-02  0.10309596306E+01  0.10308780381E+01 0.  0.
     999903    2    3    3    0    0  0.42087255131E-01 -0.12297741525E+00  0.38245933887E-01  0.14233310199E+00  0.43602508617E-01 0.  0.
         14    1    1    2    0    0 -0.88501706206E-03  0.10743685345E-01 -0.72125205869E-02  0.12970369432E-01  0.00000000000E+00 0. -1.
     999901    1    3    3    0    0 -0.41202238069E-01  0.11223372990E+00 -0.31033413300E-01  0.88862652858E+00  0.88000000000E+00 0. -1.
        -11    1    4    4    0    0 -0.70780097885E-02 -0.36957151440E-01  0.15343044199E-01  0.40639874402E-01  0.51100000000E-03 0. -1.
         11    1    4    4    0    0  0.49165264919E-01 -0.86020263809E-01  0.22902889688E-01  0.10169322759E+00  0.51100000000E-03 0.  1.
</event>
<event>
 8    1  0.2846344E+004  0.1043930E+01  0.7957747E-01            NaN
         13   -1    0    0    0    0  0.00000000000E+00  0.00000000000E+00  0.74505805969E-08  0.10566000000E+00  0.10566000000E+00 0.  1.
     999900   -1    0    0    0    0 -0.00000000000E+00 -0.00000000000E+00 -0.74505805969E-08  0.93827000000E+00  0.93827000000E+00 0.  1.
     999902    2    1    2    0    0 -0.13501490507E-01  0.43320853969E-02 -0.90153710518E-03  0.10297219045E+01  0.10296238782E+01 0.  0.
     999903    2    3    3    0    0 -0.19945896865E-01  0.10857940934E+00  0.74075329222E-01  0.14037913285E+00  0.45075709726E-01 0.  0.
         14    1    1    2    0    0  0.13501490507E-01 -0.43320853969E-02  0.90153710518E-03  0.14208095542E-01  0.00000000000E+00 0. -1.
     999901    1    3    3    0    0  0.64444063585E-02 -0.10424732394E+00 -0.74976866327E-01  0.88934277161E+00  0.88000000000E+00 0.  1.
        -11    1    4    4    0    0 -0.13649023731E-01  0.60689214012E-02  0.17884844107E-01  0.23307861882E-01  0.51100000000E-03 0. -1.
         11    1    4    4    0    0 -0.62968731342E-02  0.10251048794E+00  0.56190485115E-01  0.11707127097E+00  0.51100000000E-03 0.  1.
</event>
<event>
 8    1  0.2846344E+004  0.1043930E+01  0.7957747E-01            NaN
         13   -1    0    0    0    0  0.00000000000E+00  0.00000000000E+00  0.74505805969E-08  0.10566000000E+00  0.10566000000E+00 0. -1.
     999900   -1    0    0    0    0 -0.00000000000E+00 -0.00000000000E+00 -0.74505805969E-08  0.93827000000E+00  0.93827000000E+00 0.  1.
     999902    2    1    2    0    0 -0.10692606483E-02 -0.10857774143E-01  0.93052064599E-02  0.10295904936E+01  0.10294906328E+01 0.  0.
     999903    2    3    3    0    0  0.27258086309E-01 -0.60422806474E-01 -0.11375227908E+00  0.13919604403E+00  0.45188924152E-01 0.  0.
         14    1    1    2    0    0  0.10692606483E-02  0.10857774143E-01 -0.93052064599E-02  0.14339506440E-01  0.00000000000E+00 0.  1.
     999901    1    3    3    0    0 -0.28327346957E-01  0.49565032331E-01  0.12305748554E+00  0.89039444953E+00  0.88000000000E+00 0. -1.
        -11    1    4    4    0    0  0.30527741591E-02 -0.18274811036E-02 -0.46987710400E-01  0.47124995140E-01  0.51100000000E-03 0. -1.
         11    1    4    4    0    0  0.24205312150E-01 -0.58595325370E-01 -0.66764568676E-01  0.92071048886E-01  0.51100000000E-03 0.  1.
</event>
<event>
 8    1  0.2846344E+004  0.1043930E+01  0.7957747E-01            NaN
         13   -1    0    0    0    0  0.00000000000E+00  0.00000000000E+00  0.74505805969E-08  0.10566000000E+00  0.10566000000E+00 0.  1.
     999900   -1    0    0    0    0 -0.00000000000E+00 -0.00000000000E+00 -0.74505805969E-08  0.93827000000E+00  0.93827000000E+00 0. -1.
     999902    2    1    2    0    0  0.87044479308E-02 -0.44544698111E-02 -0.10863714337E-01  0.10293139128E+01  0.10292101346E+01 0.  0.
     999903    2    3    3    0    0  0.11743231487E+00  0.42379147113E-01  0.43975629998E-01  0.13969461762E+00  0.44658587890E-01 0.  0.
         14    1    1    2    0    0 -0.87044479308E-02  0.44544698111E-02  0.10863714337E-01  0.14616087174E-01  0.00000000000E+00 0.  1.
     999901    1    3    3    0    0 -0.10872786694E+00 -0.46833616924E-01 -0.54839344335E-01  0.88961929521E+00  0.88000000000E+00 0. -1.
        -11    1    4    4    0    0  0.21200902989E-01 -0.43055827300E-02  0.21288965691E-01  0.30356177483E-01  0.51100000000E-03 0. -1.
         11    1    4    4    0    0  0.96231411877E-01  0.46684729843E-01  0.22686664307E-01  0.10933844013E+00  0.51100000000E-03 0.  1.
</event>
<event>
 8    1  0.2846344E+004  0.1043930E+01  0.7957747E-01            NaN
         13   -1    0    0    0    0  0.00000000000E+00  0.00000000000E+00  0.74505805969E-08  0.10566000000E+00  0.10566000000E+00 0. -1.
     999900   -1    0    0    0    0 -0.00000000000E+00 -0.00000000000E+00 -0.74505805969E-08  0.93827000000E+00  0.93827000000E+00 0. -1.
     999902    2    1    2    0    0  0.33328053892E-02  0.36612984799E-02 -0.12516458762E-01  0.10304698946E+01  0.10303819822E+01 0.  0.
     999903    2    3    3    0    0  0.11144555830E+00  0.63541451086E-01 -0.37680843055E-01  0.14147763012E+00  0.46243328381E-01 0.  0.
         14    1    1    2    0    0 -0.33328053892E-02 -0.36612984799E-02  0.12516458762E-01  0.13460105433E-01  0.00000000000E+00 0. -1.
     999901    1    3    3    0    0 -0.10811275291E+00 -0.59880152606E-01  0.25164384293E-01  0.88899226445E+00  0.88000000000E+00 0.  1.
        -11    1    4    4    0    0  0.69069662297E-01  0.62752062935E-01 -0.19391881966E-01  0.95313933187E-01  0.51100000000E-03 0. -1.
         11    1    4    4    0    0  0.42375895999E-01  0.78938815103E-03 -0.18288961089E-01  0.46163696929E-01  0.51100000000E-03 0.  1.
</event>
<event>
 7    1  0.2846344E+004  0.1043930E+01  0.7957747E-01            NaN
         13   -1    0    0    0    0  0.00000000000E+00  0.00000000000E+00  0.74505805969E-08  0.10566000000E+00  0.10566000000E+00 0.  1.
     999900   -1    0    0    0    0 -0.00000000000E+00 -0.00000000000E+00 -0.74505805969E-08  0.93827000000E+00  0.93827000000E+00 0. -1.
     999902    2    1    2    0    0 -0.10943849726E-01 -0.48276101198E-02  0.76848208490E-02  0.10297127521E+01  0.10296145986E+01 0.  0.
         14    1    1    2    0    0  0.10943849726E-01  0.48276101198E-02 -0.76848208490E-02  0.14217247897E-01  0.00000000000E+00 0. -1.
     999901    1    3    3    0    0  0.55467261960E-01  0.37423477636E-01  0.10714120568E+00  0.88901989392E+00  0.88000000000E+00 0.  1.
        -11    1    3    3    0    0 -0.18875096928E-01 -0.14505057235E-01  0.33829591663E-02  0.24049355566E-01  0.51100000000E-03 0. -1.
         11    1    3    3    0    0 -0.47536014758E-01 -0.27746030522E-01 -0.10283934399E+00  0.11664350262E+00  0.51100000000E-03 0.  1.
</event>
<event>
 7    1  0.2846344E+004  0.1043930E+01  0.7957747E-01            NaN
         13   -1    0    0    0    0  0.00000000000E+00  0.00000000000E+00  0.74505805969E-08  0.10566000000E+00  0.10566000000E+00 0. -1.
     999900   -1    0    0    0    0 -0.00000000000E+00 -0.00000000000E+00 -0.74505805969E-08  0.93827000000E+00  0.93827000000E+00 0. -1.
     999903    2    1    2    0    0 -0.46928658620E-01  0.76437943475E-01 -0.22868151214E-01  0.10287452733E+00  0.44890509368E-01 0.  0.
         14    1    1    2    0    0  0.78234758559E-03 -0.40533462421E-01 -0.39902882627E-01  0.56884212973E-01  0.00000000000E+00 0.  1.
     999901    1    1    2    0    0  0.46146311034E-01 -0.35904481054E-01  0.62771033841E-01  0.88417125970E+00  0.88000000000E+00 0.  1.
        -11    1    3    3    0    0 -0.38991243103E-01  0.34345425283E-01 -0.29146621014E-01  0.59579458827E-01  0.51100000000E-03 0.  1.
         11    1    3    3    0    0 -0.79374155165E-02  0.42092518192E-01  0.62784697999E-02  0.43295068505E-01  0.51100000000E-03 0. -1.
</event>
<event>
 8    1  0.2846344E+004  0.1043930E+01  0.7957747E-01            NaN
         13   -1    0    0    0    0  0.00000000000E+00  0.00000000000E+00  0.74505805969E-08  0.10566000000E+00  0.10566000000E+00 0.  1.
     999900   -1    0    0    0    0 -0.00000000000E+00 -0.00000000000E+00 -0.74505805969E-08  0.93827000000E+00  0.93827000000E+00 0. -1.
     999902    2    1    2    0    0 -0.79615811945E-02  0.63165637390E-02  0.92717654564E-02  0.10301731331E+01  0.10300812748E+01 0.  0.
     999903    2    3    3    0    0  0.93029217494E-01 -0.46475329931E-02 -0.92438052950E-01  0.13850938481E+00  0.44317278525E-01 0.  0.
         14    1    1    2    0    0  0.79615811945E-02 -0.63165637390E-02 -0.92717654564E-02  0.13756866913E-01  0.00000000000E+00 0. -1.
     999901    1    3    3    0    0 -0.10099079869E+00  0.10964096732E-01  0.10170981841E+00  0.89166374828E+00  0.88000000000E+00 0.  1.
        -11    1    4    4    0    0  0.22189750523E-01  0.17087221836E-01 -0.17003761442E-01  0.32768082070E-01  0.51100000000E-03 0.  1.
         11    1    4    4    0    0  0.70839466970E-01 -0.21734754829E-01 -0.75434291508E-01  0.10574130274E+00  0.51100000000E-03 0. -1.
</event>
<event>
 8    1  0.2846344E+004  0.1043930E+01  0.7957747E-01            NaN
         13   -1    0    0    0    0  0.00000000000E+00  0.00000000000E+00  0.74505805969E-08  0.10566000000E+00  0.10566000000E+00 0.  1.
     999900   -1    0    0    0    0 -0.00000000000E+00 -0.00000000000E+00 -0.74505805969E-08  0.93827000000E+00  0.93827000000E+00 0.  1.
     999902    2    1    2    0    0 -0.52942527500E-02 -0.12557245718E-01 -0.42538971226E-02  0.10296538250E+01  0.10295548505E+01 0.  0.
     999903    2    3    3    0    0  0.97349178386E-02 -0.51352625678E-01  0.12151771508E+00  0.13973840434E+00  0.45037826095E-01 0.  0.
         14    1    1    2    0    0  0.52942527500E-02  0.12557245718E-01  0.42538971226E-02  0.14276175011E-01  0.00000000000E+00 0.  1.
     999901    1    3    3    0    0 -0.15029170589E-01  0.38795379960E-01 -0.12577161220E+00  0.88991542065E+00  0.88000000000E+00 0.  1.
        -11    1    4    4    0    0 -0.12793484240E-01 -0.38973529819E-01  0.91100300904E-01  0.99910636127E-01  0.51100000000E-03 0. -1.
         11    1    4    4    0    0  0.22528402079E-01 -0.12379095859E-01  0.30417414177E-01  0.39827768212E-01  0.51100000000E-03 0.  1.
</event>
<event>
 8    1  0.2846344E+004  0.1043930E+01  0.7957747E-01            NaN
         13   -1    0    0    0    0  0.00000000000E+00  0.00000000000E+00  0.74505805969E-08  0.10566000000E+00  0.10566000000E+00 0. -1.
     999900   -1    0    0    0    0 -0.00000000000E+00 -0.00000000000E+00 -0.74505805969E-08  0.93827000000E+00  0.93827000000E+00 0. -1.
     999902    2    1    2    0    0  0.16647753268E-03  0.11089885562E-01  0.10018615337E-01  0.10289838992E+01  0.10288753466E+01 0.  0.
     999903    2    3    3    0    0 -0.74837526097E-01 -0.59871282815E-01  0.90449873897E-01  0.13930402679E+00  0.45157572715E-01 0.  0.
         14    1    1    2    0    0 -0.16647753268E-03 -0.11089885562E-01 -0.10018615337E-01  0.14946100823E-01  0.00000000000E+00 0.  1.
     999901    1    3    3    0    0  0.75004003630E-01  0.70961168377E-01 -0.80431258560E-01  0.88967987239E+00  0.88000000000E+00 0. -1.
        -11    1    4    4    0    0 -0.43451470984E-01 -0.60387149080E-01  0.66986403824E-01  0.10011032675E+00  0.51100000000E-03 0. -1.
         11    1    4    4    0    0 -0.31386055113E-01  0.51586626440E-03  0.23463470073E-01  0.39193700035E-01  0.51100000000E-03 0.  1.
</event>
<event>
 8    1  0.2846344E+004  0.1043930E+01  0.7957747E-01            NaN
         13   -1    0    0    0    0  0.00000000000E+00  0.00000000000E+00  0.74505805969E-08  0.10566000000E+00  0.10566000000E+00 0. -1.
     999900   -1    0    0    0    0 -0.00000000000E+00 -0.00000000000E+00 -0.74505805969E-08  0.93827000000E+00  0.93827000000E+00 0. -1.
     999902    2    1    2    0    0  0.12437049847E-01 -0.86176546962E-03  0.11517586719E-01  0.10269571495E+01  0.10268168821E+01 0.  0.
     999903    2    3    3    0    0  0.53238045826E-01 -0.10923032151E+00  0.56954899693E-01  0.13820914554E+00  0.33050788975E-01 0.  0.
         14    1    1    2    0    0 -0.12437049847E-01  0.86176546962E-03 -0.11517586719E-01  0.16972850451E-01  0.00000000000E+00 0. -1.
     999901    1    3    3    0    0 -0.40800995980E-01  0.10836855604E+00 -0.45437312974E-01  0.88874800400E+00  0.88000000000E+00 0. -1.
        -11    1    4    4    0    0  0.33507534296E-01 -0.46122425848E-01  0.12023350109E-01  0.58265385003E-01  0.51100000000E-03 0.  1.
         11    1    4    4    0    0  0.19730511531E-01 -0.63107895664E-01  0.44931549584E-01  0.79943760541E-01  0.51100000000E-03 0. -1.
</event>
<event>
 8    1  0.2846344E+004  0.1043930E+01  0.7957747E-01            NaN
         13   -1    0    0    0    0  0.00000000000E+00  0.00000000000E+00  0.74505805969E-08  0.10566000000E+00  0.10566000000E+00 0.  1.
     999900   -1    0    0    0    0 -0.00000000000E+00 -0.00000000000E+00 -0.74505805969E-08  0.93827000000E+00  0.93827000000E+00 0.  1.
     999902    2    1    2    0    0  0.95365639111E-02  0.12009375453E-02  0.10862009280E-01  0.10294258093E+01  0.10293236252E+01 0.  0.
     999903    2    3    3    0    0  0.59246451360E-02  0.10918071848E+00  0.75907268937E-01  0.14043561540E+00  0.44774076074E-01 0.  0.
         14    1    1    2    0    0 -0.95365639111E-02 -0.12009375453E-02 -0.10862009280E-01  0.14504190698E-01  0.00000000000E+00 0.  1.
     999901    1    3    3    0    0  0.36119187751E-02 -0.10797978093E+00 -0.65045259657E-01  0.88899019390E+00  0.88000000000E+00 0.  1.
        -11    1    4    4    0    0  0.68320521849E-02  0.10071143339E+00  0.49001378611E-01  0.11220902806E+00  0.51100000000E-03 0.  1.
         11    1    4    4    0    0 -0.90740704894E-03  0.84692850893E-02  0.26905890326E-01  0.28226587338E-01  0.51100000000E-03 0. -1.
</event>
<event>
 8    1  0.2846344E+004  0.1043930E+01  0.7957747E-01            NaN
         13   -1    0    0    0    0  0.00000000000E+00  0.00000000000E+00  0.74505805969E-08  0.10566000000E+00  0.10566000000E+00 0.  1.
     999900   -1    0    0    0    0 -0.00000000000E+00 -0.00000000000E+00 -0.74505805969E-08  0.93827000000E+00  0.93827000000E+00 0.  1.
     999902    2    1    2    0    0  0.60185755916E-02  0.11527411552E-01  0.49651286522E-02  0.10300103387E+01  0.10299162785E+01 0.  0.
     999903    2    3    3    0    0 -0.11379078794E+00  0.36706743336E-01 -0.56475342482E-01  0.13941322782E+00  0.44168488289E-01 0.  0.
         14    1    1    2    0    0 -0.60185755916E-02 -0.11527411552E-01 -0.49651286522E-02  0.13919661338E-01  0.00000000000E+00 0. -1.
     999901    1    3    3    0    0  0.11980936353E+00 -0.25179331784E-01  0.61440471134E-01  0.89059711084E+00  0.88000000000E+00 0.  1.
        -11    1    4    4    0    0 -0.94761820332E-01  0.16197992911E-01 -0.29538971199E-01  0.10057330415E+00  0.51100000000E-03 0.  1.
         11    1    4    4    0    0 -0.19028967608E-01  0.20508750425E-01 -0.26936371283E-01  0.38839923675E-01  0.51100000000E-03 0. -1.
</event>
<event>
 8    1  0.2846344E+004  0.1043930E+01  0.7957747E-01            NaN
         13   -1    0    0    0    0  0.00000000000E+00  0.00000000000E+00  0.74505805969E-08  0.10566000000E+00  0.10566000000E+00 0. -1.
     999900   -1    0    0    0    0 -0.00000000000E+00 -0.00000000000E+00 -0.74505805969E-08  0.93827000000E+00  0.93827000000E+00 0.  1.
     999902    2    1    2    0    0  0.35755172440E-02  0.66231503188E-02 -0.11645852335E-01  0.10300636263E+01  0.10299702898E+01 0.  0.
     999903    2    3    3    0    0  0.66254818172E-01 -0.10942697979E+00 -0.35535009420E-01  0.13991362808E+00  0.44148857192E-01 0.  0.
         14    1    1    2    0    0 -0.35755172440E-02 -0.66231503188E-02  0.11645852335E-01  0.13866373727E-01  0.00000000000E+00 0. -1.
     999901    1    3    3    0    0 -0.62679300928E-01  0.11605013010E+00  0.23889157084E-01  0.89014999820E+00  0.88000000000E+00 0. -1.
        -11    1    4    4    0    0  0.39935477959E-01 -0.40015803633E-01  0.23193087462E-02  0.56583984079E-01  0.51100000000E-03 0. -1.
         11    1    4    4    0    0  0.26319340214E-01 -0.69411176152E-01 -0.37854318166E-01  0.83329643998E-01  0.51100000000E-03 0.  1.
</event>
<event>
 8    1  0.2846344E+004  0.1043930E+01  0.7957747E-01            NaN
         13   -1    0    0    0    0  0.00000000000E+00  0.00000000000E+00  0.74505805969E-08  0.10566000000E+00  0.10566000000E+00 0. -1.
     999900   -1    0    0    0    0 -0.00000000000E+00 -0.00000000000E+00 -0.74505805969E-08  0.93827000000E+00  0.93827000000E+00 0. -1.
     999902    2    1    2    0    0  0.76492607017E-02  0.11370332325E-01 -0.12997838246E-02  0.10301646419E+01  0.10300726694E+01 0.  0.
     999903    2    3    3    0    0 -0.55092201256E-01  0.10779443502E+00  0.59617454743E-01  0.14058889547E+00  0.39448773844E-01 0.  0.
         14    1    1    2    0    0 -0.76492607017E-02 -0.11370332325E-01  0.12997838246E-02  0.13765358130E-01  0.00000000000E+00 0.  1.
     999901    1    3    3    0    0  0.62741461958E-01 -0.96424102698E-01 -0.60917238567E-01  0.88957574640E+00  0.88000000000E+00 0.  1.
        -11    1    4    4    0    0 -0.13262582799E-01  0.19070434111E-01  0.30353499703E-01  0.38225300848E-01  0.51100000000E-03 0.  1.
         11    1    4    4    0    0 -0.41829618457E-01  0.88724000912E-01  0.29263955040E-01  0.10236359462E+00  0.51100000000E-03 0. -1.
</event>
<event>
 8    1  0.2846344E+004  0.1043930E+01  0.7957747E-01            NaN
         13   -1    0    0    0    0  0.00000000000E+00  0.00000000000E+00  0.74505805969E-08  0.10566000000E+00  0.10566000000E+00 0. -1.
     999900   -1    0    0    0    0 -0.00000000000E+00 -0.00000000000E+00 -0.74505805969E-08  0.93827000000E+00  0.93827000000E+00 0.  1.
     999902    2    1    2    0    0  0.10023600423E-01 -0.20403961361E-03 -0.94793813754E-02  0.10301324325E+01  0.10300400262E+01 0.  0.
     999903    2    3    3    0    0 -0.12361777570E+00  0.37793671508E-01 -0.23337314986E-01  0.13912407913E+00  0.45838445088E-01 0.  0.
         14    1    1    2    0    0 -0.10023600423E-01  0.20403961361E-03  0.94793813754E-02  0.13797567498E-01  0.00000000000E+00 0. -1.
     999901    1    3    3    0    0  0.13364137612E+00 -0.37997711122E-01  0.13857933610E-01  0.89100835338E+00  0.88000000000E+00 0. -1.
        -11    1    4    4    0    0 -0.12895136317E-01  0.21718520048E-01 -0.47459678920E-02  0.25705329913E-01  0.51100000000E-03 0.  1.
         11    1    4    4    0    0 -0.11072263938E+00  0.16075151461E-01 -0.18591347093E-01  0.11341874921E+00  0.51100000000E-03 0. -1.
</event>
<event>
 8    1  0.2846344E+004  0.1043930E+01  0.7957747E-01            NaN
         13   -1    0    0    0    0  0.00000000000E+00  0.00000000000E+00  0.74505805969E-08  0.10566000000E+00  0.10566000000E+00 0.  1.
     999900   -1    0    0    0    0 -0.00000000000E+00 -0.00000000000E+00 -0.74505805969E-08  0.93827000000E+00  0.93827000000E+00 0. -1.
     999902    2    1    2    0    0  0.10134276663E-01 -0.99980936812E-02  0.78729590243E-03  0.10296721855E+01  0.10295734671E+01 0.  0.
     999903    2    3    3    0    0 -0.10406602807E+00 -0.16169921604E-01  0.78432059528E-01  0.13888123895E+00  0.45223953915E-01 0.  0.
         14    1    1    2    0    0 -0.10134276663E-01  0.99980936812E-02 -0.78729590243E-03  0.14257814544E-01  0.00000000000E+00 0.  1.
     999901    1    3    3    0    0  0.11420030473E+00  0.61718279227E-02 -0.77644763626E-01  0.89079094651E+00  0.88000000000E+00 0. -1.
        -11    1    4    4    0    0 -0.76136014114E-01  0.16047373924E-02  0.33824592696E-01  0.83328458640E-01  0.51100000000E-03 0.  1.
         11    1    4    4    0    0 -0.27930013954E-01 -0.17774658996E-01  0.44607466832E-01  0.55552780309E-01  0.51100000000E-03 0. -1.
</event>
<event>
 8    1  0.2846344E+004  0.1043930E+01  0.7957747E-01            NaN
         13   -1    0    0    0    0  0.00000000000E+00  0.00000000000E+00  0.74505805969E-08  0.10566000000E+00  0.10566000000E+00 0. -1.
     999900   -1    0    0    0    0 -0.00000000000E+00 -0.00000000000E+00 -0.74505805969E-08  0.93827000000E+00  0.93827000000E+00 0.  1.
     999902    2    1    2    0    0 -0.61928755972E-02  0.81255084568E-02  0.80224985314E-02  0.10309401548E+01  0.10308583155E+01 0.  0.
     999903    2    3    3    0    0 -0.10722078721E+00  0.45404592026E-01  0.68254565955E-01  0.14233210231E+00  0.45187026733E-01 0.  0.
         14    1    1    2    0    0  0.61928755972E-02 -0.81255084568E-02 -0.80224985314E-02  0.12989845208E-01  0.00000000000E+00 0.  1.
     999901    1    3    3    0    0  0.10102791162E+00 -0.37279083569E-01 -0.60232067424E-01  0.88860805249E+00  0.88000000000E+00 0.  1.
        -11    1    4    4    0    0 -0.36137212478E-01 -0.58599388816E-02  0.26842145490E-01  0.45398225790E-01  0.51100000000E-03 0. -1.
         11    1    4    4    0    0 -0.71083574737E-01  0.51264530907E-01  0.41412420466E-01  0.96933876516E-01  0.51100000000E-03 0.  1.
</event>
<event>
 8    1  0.2846344E+004  0.1043930E+01  0.7957747E-01            NaN
         13   -1    0    0    0    0  0.00000000000E+00  0.00000000000E+00  0.74505805969E-08  0.10566000000E+00  0.10566000000E+00 0.  1.
     999900   -1    0    0    0    0 -0.00000000000E+00 -0.00000000000E+00 -0.74505805969E-08  0.93827000000E+00  0.93827000000E+00 0. -1.
     999902    2    1    2    0    0 -0.97627834489E-02 -0.61614690271E-02  0.39186184403E-02  0.10317385599E+01  0.10316665279E+01 0.  0.
     999903    2    3    3    0    0  0.10582388575E+00  0.47872998146E-01 -0.63098414492E-01  0.14001478852E+00  0.46175884897E-01 0.  0.
         14    1    1    2    0    0  0.97627834489E-02  0.61614690271E-02 -0.39186184403E-02  0.12191440100E-01  0.00000000000E+00 0.  1.
     999901    1    3    3    0    0 -0.11558666920E+00 -0.54034467173E-01  0.67017032932E-01  0.89172377138E+00  0.88000000000E+00 0.  1.
        -11    1    4    4    0    0  0.50315846601E-01 -0.84560459997E-03 -0.33453345955E-01  0.60430016903E-01  0.51100000000E-03 0. -1.
         11    1    4    4    0    0  0.55508039150E-01  0.48718602746E-01 -0.29645068537E-01  0.79584771617E-01  0.51100000000E-03 0.  1.
</event>
<event>
 8    1  0.2846344E+004  0.1043930E+01  0.7957747E-01            NaN
         13   -1    0    0    0    0  0.00000000000E+00  0.00000000000E+00  0.74505805969E-08  0.10566000000E+00  0.10566000000E+00 0.  1.
     999900   -1    0    0    0    0 -0.00000000000E+00 -0.00000000000E+00 -0.74505805969E-08  0.93827000000E+00  0.93827000000E+00 0. -1.
     999902    2    1    2    0    0  0.53654227106E-02  0.15295000093E-01  0.14747070530E-01  0.10220165138E+01  0.10217815586E+01 0.  0.
     999903    2    3    3    0    0  0.61083742180E-01  0.45873231878E-01 -0.98530560513E-01  0.13248215185E+00  0.44807055707E-01 0.  0.
         14    1    1    2    0    0 -0.53654227106E-02 -0.15295000093E-01 -0.14747070530E-01  0.21913486211E-01  0.00000000000E+00 0. -1.
     999901    1    3    3    0    0 -0.55718319469E-01 -0.30578231785E-01  0.11327763104E+00  0.88953436194E+00  0.88000000000E+00 0.  1.
        -11    1    4    4    0    0 -0.62387289668E-02  0.10908927690E-01 -0.16547540794E-01  0.20784818253E-01  0.51100000000E-03 0. -1.
         11    1    4    4    0    0  0.67322471147E-01  0.34964304187E-01 -0.81983019719E-01  0.11169733359E+00  0.51100000000E-03 0.  1.
</event>
<event>
 8    1  0.2846344E+004  0.1043930E+01  0.7957747E-01            NaN
         13   -1    0    0    0    0  0.00000000000E+00  0.00000000000E+00  0.74505805969E-08  0.10566000000E+00  0.10566000000E+00 0.  1.
     999900   -1    0    0    0    0 -0.00000000000E+00 -0.00000000000E+00 -0.74505805969E-08  0.93827000000E+00  0.93827000000E+00 0.  1.
     999902    2    1    2    0    0  0.13220291808E-01  0.54648724727E-02  0.17733087416E-02  0.10295152308E+01  0.10294143116E+01 0.  0.
     999903    2    3    3    0    0 -0.41435206110E-01  0.42155041990E-01  0.11789899955E+00  0.13944862204E+00  0.45297022249E-01 0.  0.
         14    1    1    2    0    0 -0.13220291808E-01 -0.54648724727E-02 -0.17733087416E-02  0.14414769180E-01  0.00000000000E+00 0. -1.
     999901    1    3    3    0    0  0.54655497918E-01 -0.36690169518E-01 -0.11612569081E+00  0.89006660878E+00  0.88000000000E+00 0.  1.
        -11    1    4    4    0    0 -0.26950769389E-01  0.31800007640E-01  0.34333788529E-01  0.54006060885E-01  0.51100000000E-03 0. -1.
         11    1    4    4    0    0 -0.14484436721E-01  0.10355034351E-01  0.83565211020E-01  0.85442561159E-01  0.51100000000E-03 0.  1.
</event>
<event>
 8    1  0.2846344E+004  0.1043930E+01  0.7957747E-01            NaN
         13   -1    0    0    0    0  0.00000000000E+00  0.00000000000E+00  0.74505805969E-08  0.10566000000E+00  0.10566000000E+00 0. -1.
     999900   -1    0    0    0    0 -0.00000000000E+00 -0.00000000000E+00 -0.74505805969E-08  0.93827000000E+00  0.93827000000E+00 0. -1.
     999902    2    1    2    0    0  0.88651352493E-02 -0.14941354421E-02  0.10551689147E-01  0.10300677777E+01  0.10299744975E+01 0.  0.
     999903    2    3    3    0    0  0.19769854805E-01  0.12239591899E+00  0.48252178902E-01  0.14052352054E+00  0.45243551045E-01 0.  0.
         14    1    1    2    0    0 -0.88651352493E-02  0.14941354421E-02 -0.10551689147E-01  0.13862222317E-01  0.00000000000E+00 0.  1.
     999901    1    3    3    0    0 -0.10904719556E-01 -0.12389005443E+00 -0.37700489756E-01  0.88954425715E+00  0.88000000000E+00 0.  1.
        -11    1    4    4    0    0  0.31747526464E-01  0.70373882760E-01  0.38433335470E-01  0.86242513922E-01  0.51100000000E-03 0. -1.
         11    1    4    4    0    0 -0.11977671659E-01  0.52022036228E-01  0.98188434327E-02  0.54281006614E-01  0.51100000000E-03 0.  1.
</event>
<event>
 8    1  0.2846344E+004  0.1043930E+01  0.7957747E-01            NaN
         13   -1    0    0    0    0  0.00000000000E+00  0.00000000000E+00  0.74505805969E-08  0.10566000000E+00  0.10566000000E+00 0. -1.
     999900   -1    0    0    0    0 -0.00000000000E+00 -0.00000000000E+00 -0.74505805969E-08  0.93827000000E+00  0.93827000000E+00 0.  1.
     999902    2    1    2    0    0  0.13405746580E-01 -0.52290224493E-02  0.44366982288E-02  0.10288720782E+01  0.10287618832E+01 0.  0.
     999903    2    3    3    0    0 -0.90160099978E-01  0.52874782725E-01 -0.76528502931E-01  0.13721222124E+00  0.45232683104E-01 0.  0.
         14    1    1    2    0    0 -0.13405746580E-01  0.52290224493E-02 -0.44366982288E-02  0.15057921780E-01  0.00000000000E+00 0.  1.
     999901    1    3    3    0    0  0.10356584656E+00 -0.58103805174E-01  0.80965201160E-01  0.89165985698E+00  0.88000000000E+00 0.  1.
        -11    1    4    4    0    0 -0.50364911771E-01  0.12579453066E-01 -0.16012764891E-01  0.54328047431E-01  0.51100000000E-03 0. -1.
         11    1    4    4    0    0 -0.39795188207E-01  0.40295329659E-01 -0.60515738040E-01  0.82884173811E-01  0.51100000000E-03 0.  1.
</event>
<event>
 8    1  0.2846344E+004  0.1043930E+01  0.7957747E-01            NaN
         13   -1    0    0    0    0  0.00000000000E+00  0.00000000000E+00  0.74505805969E-08  0.10566000000E+00  0.10566000000E+00 0.  1.
     999900   -1    0    0    0    0 -0.00000000000E+00 -0.00000000000E+00 -0.74505805969E-08  0.93827000000E+00  0.93827000000E+00 0.  1.
     999902    2    1    2    0    0  0.88272906361E-02  0.33974432627E-02 -0.13222298819E-01  0.10276729133E+01  0.10275443173E+01 0.  0.
     999903    2    3    3    0    0  0.44446223962E-01  0.11920408517E+00 -0.33781072019E-01  0.13913335323E+00  0.45076029206E-01 0.  0.
         14    1    1    2    0    0 -0.88272906361E-02 -0.33974432627E-02  0.13222298819E-01  0.16257086663E-01  0.00000000000E+00 0.  1.
     999901    1    3    3    0    0 -0.35618933326E-01 -0.11580664191E+00  0.20558773200E-01  0.88853956011E+00  0.88000000000E+00 0. -1.
        -11    1    4    4    0    0  0.21019528896E-01  0.10004286052E-01 -0.58691287882E-02  0.24012790928E-01  0.51100000000E-03 0. -1.
         11    1    4    4    0    0  0.23426695066E-01  0.10919979912E+00 -0.27911943231E-01  0.11512056230E+00  0.51100000000E-03 0.  1.
</event>
<event>
 8    1  0.2846344E+004  0.1043930E+01  0.7957747E-01            NaN
         13   -1    0    0    0    0  0.00000000000E+00  0.00000000000E+00  0.74505805969E-08  0.10566000000E+00  0.10566000000E+00 0.  1.
     999900   -1    0    0    0    0 -0.00000000000E+00 -0.00000000000E+00 -0.74505805969E-08  0.93827000000E+00  0.93827000000E+00 0. -1.
     999902    2    1    2    0    0 -0.11643043998E-01  0.72225908549E-02  0.43203548497E-02  0.10295636588E+01  0.10294634213E+01 0.  0.
     999903    2    3    3    0    0 -0.10107688807E+00  0.80928137438E-02  0.87293990422E-01  0.14114720585E+00  0.44947324945E-01 0.  0.
         14    1    1    2    0    0  0.11643043998E-01 -0.72225908549E-02 -0.43203548497E-02  0.14366341157E-01  0.00000000000E+00 0. -1.
     999901    1    3    3    0    0  0.89433844067E-01 -0.87022288889E-03 -0.82973635572E-01  0.88841645300E+00  0.88000000000E+00 0. -1.
        -11    1    4    4    0    0 -0.21977884531E-01 -0.16941736821E-01  0.18343671106E-01  0.33268622539E-01  0.51100000000E-03 0. -1.
         11    1    4    4    0    0 -0.79099003535E-01  0.25034550565E-01  0.68950319315E-01  0.10787858331E+00  0.51100000000E-03 0.  1.
</event>
<event>
 8    1  0.2846344E+004  0.1043930E+01  0.7957747E-01            NaN
         13   -1    0    0    0    0  0.00000000000E+00  0.00000000000E+00  0.74505805969E-08  0.10566000000E+00  0.10566000000E+00 0. -1.
     999900   -1    0    0    0    0 -0.00000000000E+00 -0.00000000000E+00 -0.74505805969E-08  0.93827000000E+00  0.93827000000E+00 0. -1.
     999902    2    1    2    0    0  0.25086544445E-02  0.12826300687E-01 -0.80126954101E-02  0.10285999438E+01  0.10284856993E+01 0.  0.
     999903    2    3    3    0    0  0.46794043163E-01 -0.11489582360E+00 -0.38681179968E-01  0.13774939927E+00  0.45693878775E-01 0.  0.
         14    1    1    2    0    0 -0.25086544445E-02 -0.12826300687E-01  0.80126954101E-02  0.15330056235E-01  0.00000000000E+00 0. -1.
     999901    1    3    3    0    0 -0.44285388718E-01  0.12772212429E+00  0.30668484558E-01  0.89085054450E+00  0.88000000000E+00 0. -1.
        -11    1    4    4    0    0  0.39484528235E-01 -0.51501155506E-01 -0.37677882812E-02  0.65006571498E-01  0.51100000000E-03 0. -1.
         11    1    4    4    0    0  0.73095149276E-02 -0.63394668098E-01 -0.34913391687E-01  0.72742827769E-01  0.51100000000E-03 0.  1.
</event>
<event>
 8    1  0.2846344E+004  0.1043930E+01  0.7957747E-01            NaN
         13   -1    0    0    0    0  0.00000000000E+00  0.00000000000E+00  0.74505805969E-08  0.10566000000E+00  0.10566000000E+00 0. -1.
     999900   -1    0    0    0    0 -0.00000000000E+00 -0.00000000000E+00 -0.74505805969E-08  0.93827000000E+00  0.93827000000E+00 0. -1.
     999902    2    1    2    0    0 -0.35646601454E-02  0.39230490198E-02 -0.12656760497E-01  0.10302080941E+01  0.10301167052E+01 0.  0.
     999903    2    3    3    0    0  0.65140203845E-01 -0.94984992493E-01  0.63857183852E-01  0.13871634276E+00  0.43578536720E-01 0.  0.
         14    1    1    2    0    0  0.35646601454E-02 -0.39230490198E-02  0.12656760497E-01  0.13721905911E-01  0.00000000000E+00 0. -1.
     999901    1    3    3    0    0 -0.68704863991E-01  0.98908041512E-01 -0.76513944349E-01  0.89149175133E+00  0.88000000000E+00 0.  1.
        -11    1    4    4    0    0  0.47090395158E-01 -0.31820930464E-01  0.36541061598E-01  0.67569129308E-01  0.51100000000E-03 0.  1.
         11    1    4    4    0    0  0.18049808687E-01 -0.63164062029E-01  0.27316122254E-01  0.71147213449E-01  0.51100000000E-03 0. -1.
</event>
<event>
 7    1  0.2846344E+004  0.1043930E+01  0.7957747E-01            NaN
         13   -1    0    0    0    0  0.00000000000E+00  0.00000000000E+00  0.74505805969E-08  0.10566000000E+00  0.10566000000E+00 0.  1.
     999900   -1    0    0    0    0 -0.00000000000E+00 -0.00000000000E+00 -0.74505805969E-08  0.93827000000E+00  0.93827000000E+00 0.  1.
     999903    2    1    2    0    0  0.88890134782E-01 -0.16246066643E-01 -0.42431950837E-01  0.10924905428E+00  0.44378989026E-01 0.  0.
         14    1    1    2    0    0 -0.39060589716E-01 -0.29647472360E-01  0.16351303330E-01  0.51692043942E-01  0.00000000000E+00 0.  1.
     999901    1    1    2    0    0 -0.49829545065E-01  0.45893539003E-01  0.26080647508E-01  0.88298890178E+00  0.88000000000E+00 0.  1.
        -11    1    3    3    0    0  0.33967726296E-01  0.20651922260E-02  0.50052844630E-02  0.34400369797E-01  0.51100000000E-03 0.  1.
         11    1    3    3    0    0  0.54922408486E-01 -0.18311258869E-01 -0.47437235300E-01  0.74848684485E-01  0.51100000000E-03 0. -1.
</event>
<event>
 7    1  0.2846344E+004  0.1043930E+01  0.7957747E-01            NaN
         13   -1    0    0    0    0  0.00000000000E+00  0.00000000000E+00  0.74505805969E-08  0.10566000000E+00  0.10566000000E+00 0.  1.
     999900   -1    0    0    0    0 -0.00000000000E+00 -0.00000000000E+00 -0.74505805969E-08  0.93827000000E+00  0.93827000000E+00 0.  1.
     999903    2    1    2    0    0  0.61568009263E-02 -0.44387260621E-01  0.90794982714E-01  0.11086843799E+00  0.45165767504E-01 0.  0.
         14    1    1    2    0    0  0.59071279910E-02  0.19635220582E-02  0.41602173359E-01  0.42065311222E-01  0.00000000000E+00 0.  1.
     999901    1    1    2    0    0 -0.12063928917E-01  0.42423738563E-01 -0.13239715607E+00  0.89099625078E+00  0.88000000000E+00 0.  1.
        -11    1    3    3    0    0  0.21935644516E-01 -0.70337350726E-02  0.34557368962E-01  0.41534549473E-01  0.51100000000E-03 0.  1.
         11    1    3    3    0    0 -0.15778843589E-01 -0.37353525548E-01  0.56237613752E-01  0.69333888521E-01  0.51100000000E-03 0. -1.
</event>
<event>
 8    1  0.2846344E+004  0.1043930E+01  0.7957747E-01            NaN
         13   -1    0    0    0    0  0.00000000000E+00  0.00000000000E+00  0.74505805969E-08  0.10566000000E+00  0.10566000000E+00 0.  1.
     999900   -1    0    0    0    0 -0.00000000000E+00 -0.00000000000E+00 -0.74505805969E-08  0.93827000000E+00  0.93827000000E+00 0.  1.
     999902    2    1    2    0    0 -0.71357585224E-02 -0.81601196906E-02 -0.89214260334E-02  0.10298908246E+01  0.10297951312E+01 0.  0.
     999903    2    3    3    0    0  0.30149065338E-01 -0.25638820557E-01  0.12499934531E+00  0.13880696993E+00  0.45565593534E-01 0.  0.
         14    1    1    2    0    0  0.71357585224E-02  0.81601196906E-02  0.89214260334E-02  0.14039175386E-01  0.00000000000E+00 0.  1.
     999901    1    3    3    0    0 -0.37284823861E-01  0.17478700867E-01 -0.13392077134E+00  0.89108385468E+00  0.88000000000E+00 0.  1.
        -11    1    4    4    0    0  0.29452236075E-01 -0.37760881834E-01  0.10497419406E+00  0.11538267177E+00  0.51100000000E-03 0.  1.
         11    1    4    4    0    0  0.69682926306E-03  0.12122061277E-01  0.20025151251E-01  0.23424298159E-01  0.51100000000E-03 0. -1.
</event>
<event>
 8    1  0.2846344E+004  0.1043930E+01  0.7957747E-01            NaN
         13   -1    0    0    0    0  0.00000000000E+00  0.00000000000E+00  0.74505805969E-08  0.10566000000E+00  0.10566000000E+00 0.  1.
     999900   -1    0    0    0    0 -0.00000000000E+00 -0.00000000000E+00 -0.74505805969E-08  0.93827000000E+00  0.93827000000E+00 0. -1.
     999902    2    1    2    0    0  0.74522783655E-02 -0.34385351844E-02 -0.11309195789E-01  0.10299565292E+01  0.10298617354E+01 0.  0.
     999903    2    3    3    0    0 -0.25371577241E-01  0.99186472427E-02 -0.13095160702E+00  0.14115389284E+00  0.45099906733E-01 0.  0.
         14    1    1    2    0    0 -0.74522783655E-02  0.34385351844E-02  0.11309195789E-01  0.13973470809E-01  0.00000000000E+00 0.  1.
     999901    1    3    3    0    0  0.32823855607E-01 -0.13357182427E-01  0.11964241123E+00  0.88880263635E+00  0.88000000000E+00 0.  1.
        -11    1    4    4    0    0 -0.28432128628E-01  0.10943707810E-01 -0.40693894145E-01  0.50837041817E-01  0.51100000000E-03 0. -1.
         11    1    4    4    0    0  0.30605513873E-02 -0.10250605676E-02 -0.90257712877E-01  0.90316851023E-01  0.51100000000E-03 0.  1.
</event>
<event>
 8    1  0.2846344E+004  0.1043930E+01  0.7957747E-01            NaN
         13   -1    0    0    0    0  0.00000000000E+00  0.00000000000E+00  0.74505805969E-08  0.10566000000E+00  0.10566000000E+00 0. -1.
     999900   -1    0    0    0    0 -0.00000000000E+00 -0.00000000000E+00 -0.74505805969E-08  0.93827000000E+00  0.93827000000E+00 0.  1.
     999902    2    1    2    0    0  0.96734557878E-02  0.60477242444E-02  0.86458593784E-02  0.10296156156E+01  0.10295161069E+01 0.  0.
     999903    2    3    3    0    0 -0.19071710093E-01  0.11255470770E+00  0.68726719819E-01  0.14069507257E+00  0.45160259929E-01 0.  0.
         14    1    1    2    0    0 -0.96734557878E-02 -0.60477242444E-02 -0.86458593784E-02  0.14314384367E-01  0.00000000000E+00 0.  1.
     999901    1    3    3    0    0  0.28745165881E-01 -0.10650698346E+00 -0.60080860441E-01  0.88892054306E+00  0.88000000000E+00 0. -1.
        -11    1    4    4    0    0 -0.23622488988E-02  0.35290970869E-01 -0.85265234748E-03  0.35383908515E-01  0.51100000000E-03 0.  1.
         11    1    4    4    0    0 -0.16709461194E-01  0.77263736833E-01  0.69579372166E-01  0.10531116406E+00  0.51100000000E-03 0. -1.
</event>
<event>
 8    1  0.2846344E+004  0.1043930E+01  0.7957747E-01            NaN
         13   -1    0    0    0    0  0.00000000000E+00  0.00000000000E+00  0.74505805969E-08  0.10566000000E+00  0.10566000000E+00 0. -1.
     999900   -1    0    0    0    0 -0.00000000000E+00 -0.00000000000E+00 -0.74505805969E-08  0.93827000000E+00  0.93827000000E+00 0. -1.
     999902    2    1    2    0    0 -0.11119758684E-01  0.46271042416E-03  0.85125645877E-02  0.10299183302E+01  0.10298230139E+01 0.  0.
     999903    2    3    3    0    0  0.70899921570E-01 -0.11054166642E+00  0.10518701538E-01  0.13915841632E+00  0.44812530126E-01 0.  0.
         14    1    1    2    0    0  0.11119758684E-01 -0.46271042416E-03 -0.85125645877E-02  0.14011669779E-01  0.00000000000E+00 0.  1.
     999901    1    3    3    0    0 -0.82019680254E-01  0.11100437685E+00 -0.20061369500E-02  0.89075991390E+00  0.88000000000E+00 0. -1.
        -11    1    4    4    0    0  0.47002087927E-01 -0.91845611442E-01  0.24035678781E-01  0.10593765896E+00  0.51100000000E-03 0.  1.
         11    1    4    4    0    0  0.23897833643E-01 -0.18696054982E-01 -0.13516977243E-01  0.33220757359E-01  0.51100000000E-03 0. -1.
</event>
<event>
 8    1  0.2846344E+004  0.1043930E+01  0.7957747E-01            NaN
         13   -1    0    0    0    0  0.00000000000E+00  0.00000000000E+00  0.74505805969E-08  0.10566000000E+00  0.10566000000E+00 0. -1.
     999900   -1    0    0    0    0 -0.00000000000E+00 -0.00000000000E+00 -0.74505805969E-08  0.93827000000E+00  0.93827000000E+00 0. -1.
     999902    2    1    2    0    0  0.41712720573E-03 -0.13866471391E-01  0.29790252731E-02  0.10297410037E+01  0.10296432426E+01 0.  0.
     999903    2    3    3    0    0  0.11410951878E+00  0.20735120208E-02  0.67407725426E-01  0.13994827483E+00  0.44904748682E-01 0.  0.
         14    1    1    2    0    0 -0.41712720573E-03  0.13866471391E-01 -0.29790252731E-02  0.14188996283E-01  0.00000000000E+00 0. -1.
     999901    1    3    3    0    0 -0.11369239157E+00 -0.15939983412E-01 -0.64428700153E-01  0.88979272888E+00  0.88000000000E+00 0.  1.
        -11    1    4    4    0    0  0.24101775349E-01 -0.18396083917E-01  0.15799515641E-01  0.34193527077E-01  0.51100000000E-03 0.  1.
         11    1    4    4    0    0  0.90007743427E-01  0.20469595938E-01  0.51608209785E-01  0.10575474776E+00  0.51100000000E-03 0. -1.
</event>
<event>
 8    1  0.2846344E+004  0.1043930E+01  0.7957747E-01            NaN
         13   -1    0    0    0    0  0.00000000000E+00  0.00000000000E+00  0.74505805969E-08  0.10566000000E+00  0.10566000000E+00 0. -1.
     999900   -1    0    0    0    0 -0.00000000000E+00 -0.00000000000E+00 -0.74505805969E-08  0.93827000000E+00  0.93827000000E+00 0. -1.
     999902    2    1    2    0    0 -0.90444346525E-02  0.99617662161E-02 -0.39492575855E-02  0.10299073319E+01  0.10298118649E+01 0.  0.
     999903    2    3    3    0    0 -0.51035590820E-01 -0.81348079613E-01 -0.91280124743E-01  0.13989192448E+00  0.44894852426E-01 0.  0.
         14    1    1    2    0    0  0.90444346525E-02 -0.99617662161E-02  0.39492575855E-02  0.14022668070E-01  0.00000000000E+00 0. -1.
     999901    1    3    3    0    0  0.41991156168E-01  0.91309845829E-01  0.87330867157E-01  0.89001540745E+00  0.88000000000E+00 0.  1.
        -11    1    4    4    0    0  0.11408359389E-02 -0.30973006924E-01 -0.14334694336E-01  0.34152207063E-01  0.51100000000E-03 0. -1.
         11    1    4    4    0    0 -0.52176426759E-01 -0.50375072689E-01 -0.76945430407E-01  0.10573971742E+00  0.51100000000E-03 0.  1.
</event>
<event>
 8    1  0.2846344E+004  0.1043930E+01  0.7957747E-01            NaN
         13   -1    0    0    0    0  0.00000000000E+00  0.00000000000E+00  0.74505805969E-08  0.10566000000E+00  0.10566000000E+00 0.  1.
     999900   -1    0    0    0    0 -0.00000000000E+00 -0.00000000000E+00 -0.74505805969E-08  0.93827000000E+00  0.93827000000E+00 0.  1.
     999902    2    1    2    0    0 -0.37281713543E-02  0.13690576390E-01 -0.57651504795E-03  0.10297291721E+01  0.10296312468E+01 0.  0.
     999903    2    3    3    0    0  0.28257627060E-01 -0.94286678047E-01  0.85947290751E-01  0.13834342634E+00  0.45425716048E-01 0.  0.
         14    1    1    2    0    0  0.37281713543E-02 -0.13690576390E-01  0.57651504795E-03  0.14200827904E-01  0.00000000000E+00 0. -1.
     999901    1    3    3    0    0 -0.31985798414E-01  0.10797725444E+00 -0.86523805799E-01  0.89138574576E+00  0.88000000000E+00 0.  1.
        -11    1    4    4    0    0  0.18912064673E-01 -0.64496640847E-01  0.83256711193E-01  0.10700198106E+00  0.51100000000E-03 0. -1.
         11    1    4    4    0    0  0.93455623868E-02 -0.29790037200E-01  0.26905795589E-02  0.31341445277E-01  0.51100000000E-03 0.  1.
</event>
<event>
 8    1  0.2846344E+004  0.1043930E+01  0.7957747E-01            NaN
         13   -1    0    0    0    0  0.00000000000E+00  0.00000000000E+00  0.74505805969E-08  0.10566000000E+00  0.10566000000E+00 0.  1.
     999900   -1    0    0    0    0 -0.00000000000E+00 -0.00000000000E+00 -0.74505805969E-08  0.93827000000E+00  0.93827000000E+00 0. -1.
     999902    2    1    2    0    0 -0.23856951440E-02 -0.10299291564E-01  0.95087474106E-02  0.10297108852E+01  0.10296127058E+01 0.  0.
     999903    2    3    3    0    0  0.57143413551E-01 -0.71092571306E-01 -0.95461689565E-01  0.13939727177E+00  0.44711763495E-01 0.  0.
         14    1    1    2    0    0  0.23856951440E-02  0.10299291564E-01 -0.95087474106E-02  0.14219114788E-01  0.00000000000E+00 0. -1.
     999901    1    3    3    0    0 -0.59529108695E-01  0.60793279743E-01  0.10497043698E+00  0.89031361344E+00  0.88000000000E+00 0.  1.
        -11    1    4    4    0    0  0.13404693720E-01 -0.49698081125E-01 -0.60591241647E-01  0.79505627263E-01  0.51100000000E-03 0. -1.
         11    1    4    4    0    0  0.43738719831E-01 -0.21394490181E-01 -0.34870447918E-01  0.59891644505E-01  0.51100000000E-03 0.  1.
</event>
<event>
 8    1  0.2846344E+004  0.1043930E+01  0.7957747E-01            NaN
         13   -1    0    0    0    0  0.00000000000E+00  0.00000000000E+00  0.74505805969E-08  0.10566000000E+00  0.10566000000E+00 0.  1.
     999900   -1    0    0    0    0 -0.00000000000E+00 -0.00000000000E+00 -0.74505805969E-08  0.93827000000E+00  0.93827000000E+00 0. -1.
     999902    2    1    2    0    0 -0.16167440409E-02  0.12882921292E-01 -0.45699050004E-02  0.10301652786E+01  0.10300733148E+01 0.  0.
     999903    2    3    3    0    0  0.11827336099E+00  0.20620774793E-01 -0.61427926037E-01  0.14018418546E+00  0.38267629707E-01 0.  0.
         14    1    1    2    0    0  0.16167440409E-02 -0.12882921292E-01  0.45699050004E-02  0.13764721357E-01  0.00000000000E+00 0. -1.
     999901    1    3    3    0    0 -0.11989010503E+00 -0.77378535006E-02  0.56858021036E-01  0.88998109318E+00  0.88000000000E+00 0.  1.
        -11    1    4    4    0    0  0.59766676799E-01 -0.64830223201E-02 -0.40103292641E-01  0.72267699809E-01  0.51100000000E-03 0. -1.
         11    1    4    4    0    0  0.58506684193E-01  0.27103797113E-01 -0.21324633396E-01  0.67916485654E-01  0.51100000000E-03 0.  1.
</event>
<event>
 8    1  0.2846344E+004  0.1043930E+01  0.7957747E-01            NaN
         13   -1    0    0    0    0  0.00000000000E+00  0.00000000000E+00  0.74505805969E-08  0.10566000000E+00  0.10566000000E+00 0. -1.
     999900   -1    0    0    0    0 -0.00000000000E+00 -0.00000000000E+00 -0.74505805969E-08  0.93827000000E+00  0.93827000000E+00 0. -1.
     999902    2    1    2    0    0 -0.19741821374E-02 -0.95693253597E-04 -0.13017179425E-01  0.10307636219E+01  0.10306795286E+01 0.  0.
     999903    2    3    3    0    0  0.26233537040E-01  0.50742508440E-02  0.12864233846E+00  0.13897338717E+00  0.45285810251E-01 0.  0.
         14    1    1    2    0    0  0.19741821374E-02  0.95693253597E-04  0.13017179425E-01  0.13166378109E-01  0.00000000000E+00 0. -1.
     999901    1    3    3    0    0 -0.28207719177E-01 -0.51699440976E-02 -0.14165951788E+00  0.89179023472E+00  0.88000000000E+00 0. -1.
        -11    1    4    4    0    0  0.19068071552E-01  0.24970607418E-01  0.75966022351E-01  0.82208395316E-01  0.51100000000E-03 0. -1.
         11    1    4    4    0    0  0.71654654876E-02 -0.19896356574E-01  0.52676316104E-01  0.56764991851E-01  0.51100000000E-03 0.  1.
</event>
<event>
 8    1  0.2846344E+004  0.1043930E+01  0.7957747E-01            NaN
         13   -1    0    0    0    0  0.00000000000E+00  0.00000000000E+00  0.74505805969E-08  0.10566000000E+00  0.10566000000E+00 0. -1.
     999900   -1    0    0    0    0 -0.00000000000E+00 -0.00000000000E+00 -0.74505805969E-08  0.93827000000E+00  0.93827000000E+00 0.  1.
     999902    2    1    2    0    0 -0.54008655618E-02 -0.60883557024E-02  0.96388596887E-02  0.10313147299E+01  0.10312375706E+01 0.  0.
     999903    2    3    3    0    0  0.85417924096E-01  0.91934647848E-01  0.44508271596E-01  0.14054403118E+00  0.44982632523E-01 0.  0.
         14    1    1    2    0    0  0.54008655618E-02  0.60883557024E-02 -0.96388596887E-02  0.12615270115E-01  0.00000000000E+00 0.  1.
     999901    1    3    3    0    0 -0.90818789658E-01 -0.98023003551E-01 -0.34869411908E-01  0.89077069870E+00  0.88000000000E+00 0. -1.
        -11    1    4    4    0    0  0.14168000531E-01  0.45875660487E-01  0.21681194671E-01  0.52684378971E-01  0.51100000000E-03 0.  1.
         11    1    4    4    0    0  0.71249923566E-01  0.46058987361E-01  0.22827076925E-01  0.87859652212E-01  0.51100000000E-03 0. -1.
</event>
<event>
 8    1  0.2846344E+004  0.1043930E+01  0.7957747E-01            NaN
         13   -1    0    0    0    0  0.00000000000E+00  0.00000000000E+00  0.74505805969E-08  0.10566000000E+00  0.10566000000E+00 0. -1.
     999900   -1    0    0    0    0 -0.00000000000E+00 -0.00000000000E+00 -0.74505805969E-08  0.93827000000E+00  0.93827000000E+00 0. -1.
     999902    2    1    2    0    0 -0.65602095628E-02 -0.11404213262E-01 -0.39865137708E-02  0.10301828286E+01  0.10300911006E+01 0.  0.
     999903    2    3    3    0    0  0.16262471321E-01 -0.12830170023E+00 -0.36025601409E-01  0.14158145545E+00  0.44962988286E-01 0.  0.
         14    1    1    2    0    0  0.65602095628E-02  0.11404213262E-01  0.39865137708E-02  0.13747171406E-01  0.00000000000E+00 0. -1.
     999901    1    3    3    0    0 -0.22822680884E-01  0.11689748696E+00  0.32039087638E-01  0.88860137315E+00  0.88000000000E+00 0.  1.
        -11    1    4    4    0    0  0.28822071754E-01 -0.63411770819E-01 -0.92507984553E-02  0.70268078753E-01  0.51100000000E-03 0. -1.
         11    1    4    4    0    0 -0.12559600433E-01 -0.64889929406E-01 -0.26774802953E-01  0.71313376695E-01  0.51100000000E-03 0.  1.
</event>
<event>
 8    1  0.2846344E+004  0.1043930E+01  0.7957747E-01            NaN
         13   -1    0    0    0    0  0.00000000000E+00  0.00000000000E+00  0.74505805969E-08  0.10566000000E+00  0.10566000000E+00 0. -1.
     999900   -1    0    0    0    0 -0.00000000000E+00 -0.00000000000E+00 -0.74505805969E-08  0.93827000000E+00  0.93827000000E+00 0.  1.
     999902    2    1    2    0    0  0.46815628249E-02  0.45279800252E-02  0.12703123827E-01  0.10296545319E+01  0.10295555673E+01 0.  0.
     999903    2    3    3    0    0 -0.11875109482E+00  0.19108261551E-01  0.55947088226E-01  0.13986902630E+00  0.44343203025E-01 0.  0.
         14    1    1    2    0    0 -0.46815628249E-02 -0.45279800252E-02 -0.12703123827E-01  0.14275468068E-01  0.00000000000E+00 0.  1.
     999901    1    3    3    0    0  0.12343265765E+00 -0.14580281526E-01 -0.43243964399E-01  0.88978550564E+00  0.88000000000E+00 0.  1.
        -11    1    4    4    0    0 -0.47399215853E-01 -0.37942750220E-02  0.42408472266E-01  0.63716731142E-01  0.51100000000E-03 0.  1.
         11    1    4    4    0    0 -0.71351878971E-01  0.22902536573E-01  0.13538615960E-01  0.76152295154E-01  0.51100000000E-03 0. -1.
</event>
<event>
 8    1  0.2846344E+004  0.1043930E+01  0.7957747E-01            NaN
         13   -1    0    0    0    0  0.00000000000E+00  0.00000000000E+00  0.74505805969E-08  0.10566000000E+00  0.10566000000E+00 0.  1.
     999900   -1    0    0    0    0 -0.00000000000E+00 -0.00000000000E+00 -0.74505805969E-08  0.93827000000E+00  0.93827000000E+00 0. -1.
     999902    2    1    2    0    0 -0.12342481966E-01  0.43281923246E-02  0.11882638483E-01  0.10262589161E+01  0.10261067662E+01 0.  0.
     999903    2    3    3    0    0  0.38744007720E-01 -0.22240131169E-01 -0.11891844067E+00  0.13472954048E+00  0.44885765866E-01 0.  0.
         14    1    1    2    0    0  0.12342481966E-01 -0.43281923246E-02 -0.11882638483E-01  0.17671083928E-01  0.00000000000E+00 0.  1.
     999901    1    3    3    0    0 -0.51086489686E-01  0.26568323493E-01  0.13080107915E+00  0.89152937560E+00  0.88000000000E+00 0.  1.
        -11    1    4    4    0    0  0.28240511120E-01 -0.65138510069E-03 -0.10069663653E+00  0.10458501088E+00  0.51100000000E-03 0. -1.
         11    1    4    4    0    0  0.10503496600E-01 -0.21588746068E-01 -0.18221804136E-01  0.30144529596E-01  0.51100000000E-03 0.  1.
</event>
<event>
 8    1  0.2846344E+004  0.1043930E+01  0.7957747E-01            NaN
         13   -1    0    0    0    0  0.00000000000E+00  0.00000000000E+00  0.74505805969E-08  0.10566000000E+00  0.10566000000E+00 0. -1.
     999900   -1    0    0    0    0 -0.00000000000E+00 -0.00000000000E+00 -0.74505805969E-08  0.93827000000E+00  0.93827000000E+00 0. -1.
     999902    2    1    2    0    0 -0.81951045933E-03 -0.94266676072E-03 -0.12063661927E-01  0.10318018444E+01  0.10317305627E+01 0.  0.
     999903    2    3    3    0    0  0.11641870003E+00 -0.62195749026E-01  0.24145859849E-01  0.14117966442E+00  0.43898179733E-01 0.  0.
         14    1    1    2    0    0  0.81951045933E-03  0.94266676072E-03  0.12063661927E-01  0.12128155552E-01  0.00000000000E+00 0. -1.
     999901    1    3    3    0    0 -0.11723821049E+00  0.61253082265E-01 -0.36209521775E-01  0.89062218003E+00  0.88000000000E+00 0.  1.
        -11    1    4    4    0    0  0.78091441145E-01 -0.62416085314E-01  0.24155416064E-01  0.10284836475E+00  0.51100000000E-03 0.  1.
         11    1    4    4    0    0  0.38327258890E-01  0.22033628750E-03 -0.95562153864E-05  0.38331299670E-01  0.51100000000E-03 0. -1.
</event>
<event>
 8    1  0.2846344E+004  0.1043930E+01  0.7957747E-01            NaN
         13   -1    0    0    0    0  0.00000000000E+00  0.00000000000E+00  0.74505805969E-08  0.10566000000E+00  0.10566000000E+00 0. -1.
     999900   -1    0    0    0    0 -0.00000000000E+00 -0.00000000000E+00 -0.74505805969E-08  0.93827000000E+00  0.93827000000E+00 0. -1.
     999902    2    1    2    0    0  0.69340517740E-02  0.84650499740E-02  0.81058914041E-02  0.10303122314E+01  0.10302222336E+01 0.  0.
     999903    2    3    3    0    0 -0.59903766615E-01 -0.75852276760E-01  0.90286486237E-01  0.13995816944E+00  0.45766914377E-01 0.  0.
         14    1    1    2    0    0 -0.69340517740E-02 -0.84650499740E-02 -0.81058914041E-02  0.13617768559E-01  0.00000000000E+00 0.  1.
     999901    1    3    3    0    0  0.66837818389E-01  0.84317326734E-01 -0.82180594833E-01  0.89035406200E+00  0.88000000000E+00 0.  1.
        -11    1    4    4    0    0 -0.24297420949E-01 -0.54927034351E-01  0.30694175604E-01  0.67451740559E-01  0.51100000000E-03 0.  1.
         11    1    4    4    0    0 -0.35606345666E-01 -0.20925242409E-01  0.59592310633E-01  0.72506428881E-01  0.51100000000E-03 0. -1.
</event>
<event>
 8    1  0.2846344E+004  0.1043930E+01  0.7957747E-01            NaN
         13   -1    0    0    0    0  0.00000000000E+00  0.00000000000E+00  0.74505805969E-08  0.10566000000E+00  0.10566000000E+00 0. -1.
     999900   -1    0    0    0    0 -0.00000000000E+00 -0.00000000000E+00 -0.74505805969E-08  0.93827000000E+00  0.93827000000E+00 0.  1.
     999902    2    1    2    0    0 -0.64595834324E-02 -0.10768416396E-01  0.41486407062E-02  0.10307051662E+01  0.10306203197E+01 0.  0.
     999903    2    3    3    0    0 -0.94274296200E-01 -0.90429936597E-01  0.32270494930E-01  0.14230873425E+00  0.46316030107E-01 0.  0.
         14    1    1    2    0    0  0.64595834324E-02  0.10768416396E-01 -0.41486407062E-02  0.13224833818E-01  0.00000000000E+00 0.  1.
     999901    1    3    3    0    0  0.87814712767E-01  0.79661520200E-01 -0.28121854224E-01  0.88839643193E+00  0.88000000000E+00 0. -1.
        -11    1    4    4    0    0 -0.75807564497E-01 -0.52229903454E-01  0.37798616899E-01  0.99517567345E-01  0.51100000000E-03 0.  1.
         11    1    4    4    0    0 -0.18466731703E-01 -0.38200033143E-01 -0.55281219690E-02  0.42791166908E-01  0.51100000000E-03 0. -1.
</event>
<event>
 8    1  0.2846344E+004  0.1043930E+01  0.7957747E-01            NaN
         13   -1    0    0    0    0  0.00000000000E+00  0.00000000000E+00  0.74505805969E-08  0.10566000000E+00  0.10566000000E+00 0. -1.
     999900   -1    0    0    0    0 -0.00000000000E+00 -0.00000000000E+00 -0.74505805969E-08  0.93827000000E+00  0.93827000000E+00 0.  1.
     999902    2    1    2    0    0  0.61165424228E-02  0.11483490085E-01  0.83502765498E-02  0.10284700597E+01  0.10283538564E+01 0.  0.
     999903    2    3    3    0    0  0.97463554946E-02  0.11015152855E+00 -0.71500677610E-01  0.13935548202E+00  0.45598824371E-01 0.  0.
         14    1    1    2    0    0 -0.61165424228E-02 -0.11483490085E-01 -0.83502765498E-02  0.15459940304E-01  0.00000000000E+00 0.  1.
     999901    1    3    3    0    0 -0.36298130718E-02 -0.98668038460E-01  0.79850954160E-01  0.88911457768E+00  0.88000000000E+00 0. -1.
        -11    1    4    4    0    0  0.14860037900E-01  0.11255241049E+00 -0.65378464722E-01  0.13100942945E+00  0.51100000000E-03 0. -1.
         11    1    4    4    0    0 -0.51136824058E-02 -0.24008819475E-02 -0.61222128875E-02  0.83460525707E-02  0.51100000000E-03 0.  1.
</event>
<event>
 8    1  0.2846344E+004  0.1043930E+01  0.7957747E-01            NaN
         13   -1    0    0    0    0  0.00000000000E+00  0.00000000000E+00  0.74505805969E-08  0.10566000000E+00  0.10566000000E+00 0. -1.
     999900   -1    0    0    0    0 -0.00000000000E+00 -0.00000000000E+00 -0.74505805969E-08  0.93827000000E+00  0.93827000000E+00 0.  1.
     999902    2    1    2    0    0 -0.59092526410E-02 -0.13686081910E-01  0.38405671357E-03  0.10290177364E+01  0.10289096784E+01 0.  0.
     999903    2    3    3    0    0  0.79424272124E-01  0.72250206824E-01 -0.73491501015E-01  0.13765672417E+00  0.44945139886E-01 0.  0.
         14    1    1    2    0    0  0.59092526410E-02  0.13686081910E-01 -0.38405671357E-03  0.14912263556E-01  0.00000000000E+00 0. -1.
     999901    1    3    3    0    0 -0.85333524765E-01 -0.85936288734E-01  0.73875557729E-01  0.89136101227E+00  0.88000000000E+00 0. -1.
        -11    1    4    4    0    0  0.39842258834E-01  0.20624620456E-01 -0.53020517379E-01  0.69456583144E-01  0.51100000000E-03 0.  1.
         11    1    4    4    0    0  0.39582013290E-01  0.51625586369E-01 -0.20470983636E-01  0.68200141027E-01  0.51100000000E-03 0. -1.
</event>
<event>
 8    1  0.2846344E+004  0.1043930E+01  0.7957747E-01            NaN
         13   -1    0    0    0    0  0.00000000000E+00  0.00000000000E+00  0.74505805969E-08  0.10566000000E+00  0.10566000000E+00 0. -1.
     999900   -1    0    0    0    0 -0.00000000000E+00 -0.00000000000E+00 -0.74505805969E-08  0.93827000000E+00  0.93827000000E+00 0.  1.
     999902    2    1    2    0    0  0.48688095391E-02 -0.80170780077E-02  0.96917998407E-02  0.10304426048E+01  0.10303543332E+01 0.  0.
     999903    2    3    3    0    0 -0.31324432417E-01  0.10628655190E+00  0.72395280004E-01  0.14010166052E+00  0.45927633650E-01 0.  0.
         14    1    1    2    0    0 -0.48688095391E-02  0.80170780077E-02 -0.96917998407E-02  0.13487395236E-01  0.00000000000E+00 0. -1.
     999901    1    3    3    0    0  0.36193241956E-01 -0.11430362991E+00 -0.62703480163E-01  0.89034094424E+00  0.88000000000E+00 0. -1.
        -11    1    4    4    0    0 -0.38939902809E-01  0.66206886613E-01  0.33728840436E-01  0.83890188126E-01  0.51100000000E-03 0.  1.
         11    1    4    4    0    0  0.76154703915E-02  0.40079665285E-01  0.38666439568E-01  0.56211472393E-01  0.51100000000E-03 0. -1.
</event>
<event>
 8    1  0.2846344E+004  0.1043930E+01  0.7957747E-01            NaN
         13   -1    0    0    0    0  0.00000000000E+00  0.00000000000E+00  0.74505805969E-08  0.10566000000E+00  0.10566000000E+00 0.  1.
     999900   -1    0    0    0    0 -0.00000000000E+00 -0.00000000000E+00 -0.74505805969E-08  0.93827000000E+00  0.93827000000E+00 0.  1.
     999902    2    1    2    0    0  0.63494594012E-02 -0.40753868553E-02  0.24488270035E-01  0.10183057969E+01  0.10179833478E+01 0.  0.
     999903    2    3    3    0    0 -0.11523501511E+00  0.43565367671E-01 -0.96076020354E-02  0.12801654371E+00  0.33449655902E-01 0.  0.
         14    1    1    2    0    0 -0.63494594012E-02  0.40753868553E-02 -0.24488270035E-01  0.25624203052E-01  0.00000000000E+00 0. -1.
     999901    1    3    3    0    0  0.12158447451E+00 -0.47640754527E-01  0.34095872071E-01  0.89028925324E+00  0.88000000000E+00 0.  1.
        -11    1    4    4    0    0 -0.95802690049E-01  0.21385277130E-01 -0.72036361870E-02  0.98425804512E-01  0.51100000000E-03 0.  1.
         11    1    4    4    0    0 -0.19432325060E-01  0.22180090542E-01 -0.24039658484E-02  0.29590739201E-01  0.51100000000E-03 0. -1.
</event>
<event>
 8    1  0.2846344E+004  0.1043930E+01  0.7957747E-01            NaN
         13   -1    0    0    0    0  0.00000000000E+00  0.00000000000E+00  0.74505805969E-08  0.10566000000E+00  0.10566000000E+00 0. -1.
     999900   -1    0    0    0    0 -0.00000000000E+00 -0.00000000000E+00 -0.74505805969E-08  0.93827000000E+00  0.93827000000E+00 0.  1.
     999902    2    1    2    0    0 -0.14718120062E-01  0.85752369360E-03 -0.85186560664E-03  0.10291623299E+01  0.10290563722E+01 0.  0.
     999903    2    3    3    0    0 -0.71899652118E-01 -0.11000260068E+00 -0.19605919923E-01  0.14016772399E+00  0.44637054372E-01 0.  0.
         14    1    1    2    0    0  0.14718120062E-01 -0.85752369360E-03  0.85186560664E-03  0.14767670096E-01  0.00000000000E+00 0.  1.
     999901    1    3    3    0    0  0.57181532056E-01  0.11086012437E+00  0.18754054317E-01  0.88899460591E+00  0.88000000000E+00 0. -1.
        -11    1    4    4    0    0 -0.56682560215E-02 -0.25055366561E-01 -0.19821505694E-01  0.32450789340E-01  0.51100000000E-03 0.  1.
         11    1    4    4    0    0 -0.66231396097E-01 -0.84947234116E-01  0.21558577037E-03  0.10771693465E+00  0.51100000000E-03 0. -1.
</event>
<event>
 8    1  0.2846344E+004  0.1043930E+01  0.7957747E-01            NaN
         13   -1    0    0    0    0  0.00000000000E+00  0.00000000000E+00  0.74505805969E-08  0.10566000000E+00  0.10566000000E+00 0. -1.
     999900   -1    0    0    0    0 -0.00000000000E+00 -0.00000000000E+00 -0.74505805969E-08  0.93827000000E+00  0.93827000000E+00 0. -1.
     999902    2    1    2    0    0  0.11506729613E-01 -0.57972172226E-02 -0.55956717493E-02  0.10298827904E+01  0.10297869867E+01 0.  0.
     999903    2    3    3    0    0 -0.85537350498E-01  0.96081219615E-01 -0.25428900510E-01  0.13848494081E+00  0.44533254504E-01 0.  0.
         14    1    1    2    0    0 -0.11506729613E-01  0.57972172226E-02  0.55956717493E-02  0.14047209553E-01  0.00000000000E+00 0.  1.
     999901    1    3    3    0    0  0.97044080110E-01 -0.10187843684E+00  0.19833228760E-01  0.89139784964E+00  0.88000000000E+00 0.  1.
        -11    1    4    4    0    0 -0.75265723511E-01  0.98595533676E-01 -0.17526067505E-01  0.12527343118E+00  0.51100000000E-03 0. -1.
         11    1    4    4    0    0 -0.10271626987E-01 -0.25143140612E-02 -0.79028330048E-02  0.13211509628E-01  0.51100000000E-03 0.  1.
</event>
<event>
 8    1  0.2846344E+004  0.1043930E+01  0.7957747E-01            NaN
         13   -1    0    0    0    0  0.00000000000E+00  0.00000000000E+00  0.74505805969E-08  0.10566000000E+00  0.10566000000E+00 0. -1.
     999900   -1    0    0    0    0 -0.00000000000E+00 -0.00000000000E+00 -0.74505805969E-08  0.93827000000E+00  0.93827000000E+00 0.  1.
     999902    2    1    2    0    0 -0.10743979624E-01 -0.78637754921E-02 -0.17494473769E-02  0.10305012015E+01  0.10304137002E+01 0.  0.
     999903    2    3    3    0    0  0.13064184467E+00 -0.17186856916E-01 -0.28233749309E-02  0.13916623389E+00  0.44683213603E-01 0.  0.
         14    1    1    2    0    0  0.10743979624E-01  0.78637754921E-02  0.17494473769E-02  0.13428798505E-01  0.00000000000E+00 0.  1.
     999901    1    3    3    0    0 -0.14138582430E+00  0.93230814244E-02  0.10739275539E-02  0.89133496761E+00  0.88000000000E+00 0.  1.
        -11    1    4    4    0    0  0.75465190986E-01 -0.23573939696E-01  0.15709317191E-01  0.80608743018E-01  0.51100000000E-03 0.  1.
         11    1    4    4    0    0  0.55176653688E-01  0.63870827797E-02 -0.18532692122E-01  0.58557490870E-01  0.51100000000E-03 0. -1.
</event>
<event>
 8    1  0.2846344E+004  0.1043930E+01  0.7957747E-01            NaN
         13   -1    0    0    0    0  0.00000000000E+00  0.00000000000E+00  0.74505805969E-08  0.10566000000E+00  0.10566000000E+00 0.  1.
     999900   -1    0    0    0    0 -0.00000000000E+00 -0.00000000000E+00 -0.74505805969E-08  0.93827000000E+00  0.93827000000E+00 0. -1.
     999902    2    1    2    0    0 -0.18122674762E-01 -0.84925957358E-02 -0.10653164347E-02  0.10238877840E+01  0.10236916058E+01 0.  0.
     999903    2    3    3    0    0  0.17482964821E-01  0.24009800285E-01  0.12253756895E+00  0.13394293145E+00  0.45200979099E-01 0.  0.
         14    1    1    2    0    0  0.18122674762E-01  0.84925957358E-02  0.10653164347E-02  0.20042215994E-01  0.00000000000E+00 0. -1.
     999901    1    3    3    0    0 -0.35605639583E-01 -0.32502396021E-01 -0.12360288539E+00  0.88994485256E+00  0.88000000000E+00 0. -1.
        -11    1    4    4    0    0  0.10350827931E-01 -0.31460031977E-02  0.31240211658E-02  0.11271983154E-01  0.51100000000E-03 0.  1.
         11    1    4    4    0    0  0.71321368901E-02  0.27155803483E-01  0.11941354779E+00  0.12267094829E+00  0.51100000000E-03 0. -1.
</event>
<event>
 8    1  0.2846344E+004  0.1043930E+01  0.7957747E-01            NaN
         13   -1    0    0    0    0  0.00000000000E+00  0.00000000000E+00  0.74505805969E-08  0.10566000000E+00  0.10566000000E+00 0. -1.
     999900   -1    0    0    0    0 -0.00000000000E+00 -0.00000000000E+00 -0.74505805969E-08  0.93827000000E+00  0.93827000000E+00 0.  1.
     999902    2    1    2    0    0 -0.29538775349E-02 -0.38271750055E-03  0.14708184720E-01  0.10289232494E+01  0.10288138076E+01 0.  0.
     999903    2    3    3    0    0  0.81066414999E-02 -0.12018474177E+00  0.54419412615E-01  0.13984966320E+00  0.45676755960E-01 0.  0.
         14    1    1    2    0    0  0.29538775349E-02  0.38271750055E-03 -0.14708184720E-01  0.15006750579E-01  0.00000000000E+00 0.  1.
     999901    1    3    3    0    0 -0.11060519035E-01  0.11980202427E+00 -0.39711227895E-01  0.88907358622E+00  0.88000000000E+00 0.  1.
        -11    1    4    4    0    0 -0.84261474737E-02 -0.93948097075E-01  0.26150599565E-01  0.97884421048E-01  0.51100000000E-03 0.  1.
         11    1    4    4    0    0  0.16532788974E-01 -0.26236644699E-01  0.28268813050E-01  0.41965242149E-01  0.51100000000E-03 0. -1.
</event>
<event>
 8    1  0.2846344E+004  0.1043930E+01  0.7957747E-01            NaN
         13   -1    0    0    0    0  0.00000000000E+00  0.00000000000E+00  0.74505805969E-08  0.10566000000E+00  0.10566000000E+00 0. -1.
     999900   -1    0    0    0    0 -0.00000000000E+00 -0.00000000000E+00 -0.74505805969E-08  0.93827000000E+00  0.93827000000E+00 0. -1.
     999902    2    1    2    0    0 -0.12206791654E-01 -0.71004435422E-03 -0.67293864631E-02  0.10299731176E+01  0.10298785503E+01 0.  0.
     999903    2    3    3    0    0 -0.50852942814E-01  0.52355640748E-01 -0.11224621007E+00  0.14124183533E+00  0.44976765792E-01 0.  0.
         14    1    1    2    0    0  0.12206791654E-01  0.71004435422E-03  0.67293864631E-02  0.13956882447E-01  0.00000000000E+00 0. -1.
     999901    1    3    3    0    0  0.38646151161E-01 -0.53065685102E-01  0.10551682361E+00  0.88873128222E+00  0.88000000000E+00 0.  1.
        -11    1    4    4    0    0 -0.23211290322E-01  0.40138414001E-01 -0.34407769642E-01  0.57740904129E-01  0.51100000000E-03 0. -1.
         11    1    4    4    0    0 -0.27641652493E-01  0.12217226747E-01 -0.77838440431E-01  0.83500931202E-01  0.51100000000E-03 0.  1.
</event>
<event>
 8    1  0.2846344E+004  0.1043930E+01  0.7957747E-01            NaN
         13   -1    0    0    0    0  0.00000000000E+00  0.00000000000E+00  0.74505805969E-08  0.10566000000E+00  0.10566000000E+00 0. -1.
     999900   -1    0    0    0    0 -0.00000000000E+00 -0.00000000000E+00 -0.74505805969E-08  0.93827000000E+00  0.93827000000E+00 0.  1.
     999902    2    1    2    0    0  0.61430926633E-02 -0.17424450248E-01 -0.18390315769E-01  0.10178617671E+01  0.10175278984E+01 0.  0.
     999903    2    3    3    0    0  0.99606479482E-01 -0.71709053884E-01  0.76577200713E-02  0.13086643279E+00  0.44763192365E-01 0.  0.
         14    1    1    2    0    0 -0.61430926633E-02  0.17424450248E-01  0.18390315769E-01  0.26068232928E-01  0.00000000000E+00 0.  1.
     999901    1    3    3    0    0 -0.93463386818E-01  0.54284603636E-01 -0.26048035840E-01  0.88699533428E+00  0.88000000000E+00 0. -1.
        -11    1    4    4    0    0  0.51988864245E-01 -0.63874729000E-01  0.59930067118E-02  0.82577238152E-01  0.51100000000E-03 0.  1.
         11    1    4    4    0    0  0.47617615236E-01 -0.78343248841E-02  0.16647133595E-02  0.48289194638E-01  0.51100000000E-03 0. -1.
</event>
<event>
 8    1  0.2846344E+004  0.1043930E+01  0.7957747E-01            NaN
         13   -1    0    0    0    0  0.00000000000E+00  0.00000000000E+00  0.74505805969E-08  0.10566000000E+00  0.10566000000E+00 0.  1.
     999900   -1    0    0    0    0 -0.00000000000E+00 -0.00000000000E+00 -0.74505805969E-08  0.93827000000E+00  0.93827000000E+00 0. -1.
     999902    2    1    2    0    0  0.34429747006E-02  0.28732657144E-02  0.14980266853E-01  0.10282929246E+01  0.10281740226E+01 0.  0.
     999903    2    3    3    0    0 -0.34029582279E-02  0.52885968645E-01  0.12201753915E+00  0.14037112915E+00  0.44802547203E-01 0.  0.
         14    1    1    2    0    0 -0.34429747006E-02 -0.28732657144E-02 -0.14980266853E-01  0.15637075354E-01  0.00000000000E+00 0. -1.
     999901    1    3    3    0    0  0.68459329285E-02 -0.50012702930E-01 -0.10703727229E+00  0.88792179549E+00  0.88000000000E+00 0. -1.
        -11    1    4    4    0    0  0.18311676114E-01  0.27836673568E-01  0.81286473176E-01  0.87851862359E-01  0.51100000000E-03 0.  1.
         11    1    4    4    0    0 -0.21714634342E-01  0.25049295076E-01  0.40731065971E-01  0.52519266794E-01  0.51100000000E-03 0. -1.
</event>
<event>
 8    1  0.2846344E+004  0.1043930E+01  0.7957747E-01            NaN
         13   -1    0    0    0    0  0.00000000000E+00  0.00000000000E+00  0.74505805969E-08  0.10566000000E+00  0.10566000000E+00 0.  1.
     999900   -1    0    0    0    0 -0.00000000000E+00 -0.00000000000E+00 -0.74505805969E-08  0.93827000000E+00  0.93827000000E+00 0. -1.
     999902    2    1    2    0    0 -0.48367877522E-02  0.13495369568E-01 -0.12412271180E-01  0.10249673000E+01  0.10247918726E+01 0.  0.
     999903    2    3    3    0    0 -0.72000815077E-01  0.90519790018E-01 -0.61643884613E-01  0.13768633003E+00  0.42185390947E-01 0.  0.
         14    1    1    2    0    0  0.48367877522E-02 -0.13495369568E-01  0.12412271180E-01  0.18962700003E-01  0.00000000000E+00 0.  1.
     999901    1    3    3    0    0  0.67164027324E-01 -0.77024420449E-01  0.49231613433E-01  0.88728096997E+00  0.88000000000E+00 0.  1.
        -11    1    4    4    0    0 -0.34988432924E-01  0.75408571703E-01 -0.42043781528E-01  0.93158916969E-01  0.51100000000E-03 0.  1.
         11    1    4    4    0    0 -0.37012382153E-01  0.15111218315E-01 -0.19600103085E-01  0.44527413057E-01  0.51100000000E-03 0. -1.
</event>
<event>
 8    1  0.2846344E+004  0.1043930E+01  0.7957747E-01            NaN
         13   -1    0    0    0    0  0.00000000000E+00  0.00000000000E+00  0.74505805969E-08  0.10566000000E+00  0.10566000000E+00 0.  1.
     999900   -1    0    0    0    0 -0.00000000000E+00 -0.00000000000E+00 -0.74505805969E-08  0.93827000000E+00  0.93827000000E+00 0. -1.
     999902    2    1    2    0    0  0.96594834770E-02  0.26978093818E-02  0.29521527145E-02  0.10334753837E+01  0.10334225030E+01 0.  0.
     999903    2    3    3    0    0 -0.55868423360E-01  0.10672751249E+00 -0.61950349946E-01  0.14256101039E+00  0.44426941979E-01 0.  0.
         14    1    1    2    0    0 -0.96594834770E-02 -0.26978093818E-02 -0.29521527145E-02  0.10454616308E-01  0.00000000000E+00 0.  1.
     999901    1    3    3    0    0  0.65527906837E-01 -0.10402970311E+00  0.64902502661E-01  0.89091437330E+00  0.88000000000E+00 0.  1.
        -11    1    4    4    0    0 -0.41705242562E-01  0.10461915430E+00 -0.61276367139E-01  0.12821680465E+00  0.51100000000E-03 0. -1.
         11    1    4    4    0    0 -0.14163180798E-01  0.21083581944E-02 -0.67398280715E-03  0.14344205744E-01  0.51100000000E-03 0.  1.
</event>
<event>
 8    1  0.2846344E+004  0.1043930E+01  0.7957747E-01            NaN
         13   -1    0    0    0    0  0.00000000000E+00  0.00000000000E+00  0.74505805969E-08  0.10566000000E+00  0.10566000000E+00 0.  1.
     999900   -1    0    0    0    0 -0.00000000000E+00 -0.00000000000E+00 -0.74505805969E-08  0.93827000000E+00  0.93827000000E+00 0. -1.
     999902    2    1    2    0    0  0.10530129109E-01 -0.72652872051E-02  0.72793824958E-02  0.10292107124E+01  0.10291054529E+01 0.  0.
     999903    2    3    3    0    0 -0.12310562228E+00 -0.27682009281E-01 -0.31483848178E-01  0.13804409240E+00  0.46299577479E-01 0.  0.
         14    1    1    2    0    0 -0.10530129109E-01  0.72652872051E-02 -0.72793824958E-02  0.14719287576E-01  0.00000000000E+00 0. -1.
     999901    1    3    3    0    0  0.13363575139E+00  0.20416722076E-01  0.38763230674E-01  0.89116662002E+00  0.88000000000E+00 0.  1.
        -11    1    4    4    0    0 -0.36385238102E-01  0.12924698733E-01 -0.76897693234E-02  0.39374192846E-01  0.51100000000E-03 0.  1.
         11    1    4    4    0    0 -0.86720384183E-01 -0.40606708014E-01 -0.23794078855E-01  0.98669899555E-01  0.51100000000E-03 0. -1.
</event>
<event>
 8    1  0.2846344E+004  0.1043930E+01  0.7957747E-01            NaN
         13   -1    0    0    0    0  0.00000000000E+00  0.00000000000E+00  0.74505805969E-08  0.10566000000E+00  0.10566000000E+00 0.  1.
     999900   -1    0    0    0    0 -0.00000000000E+00 -0.00000000000E+00 -0.74505805969E-08  0.93827000000E+00  0.93827000000E+00 0.  1.
     999902    2    1    2    0    0 -0.32817633208E-02  0.28068663751E-03 -0.10705828181E-01  0.10327289504E+01  0.10326682049E+01 0.  0.
     999903    2    3    3    0    0 -0.71485465405E-01 -0.11195622227E+00 -0.26252641956E-01  0.14284661427E+00  0.45514684784E-01 0.  0.
         14    1    1    2    0    0  0.32817633208E-02 -0.28068663751E-03  0.10705828181E-01  0.11201049617E-01  0.00000000000E+00 0.  1.
     999901    1    3    3    0    0  0.68203702085E-01  0.11223690891E+00  0.15546813775E-01  0.88988233611E+00  0.88000000000E+00 0.  1.
        -11    1    4    4    0    0 -0.24606401149E-01 -0.66616464037E-01 -0.30927458264E-01  0.77459647908E-01  0.51100000000E-03 0.  1.
         11    1    4    4    0    0 -0.46879064257E-01 -0.45339758232E-01  0.46748163083E-02  0.65386966367E-01  0.51100000000E-03 0. -1.
</event>
<event>
 8    1  0.2846344E+004  0.1043930E+01  0.7957747E-01            NaN
         13   -1    0    0    0    0  0.00000000000E+00  0.00000000000E+00  0.74505805969E-08  0.10566000000E+00  0.10566000000E+00 0.  1.
     999900   -1    0    0    0    0 -0.00000000000E+00 -0.00000000000E+00 -0.74505805969E-08  0.93827000000E+00  0.93827000000E+00 0. -1.
     999902    2    1    2    0    0 -0.11383115908E-01  0.69377807025E-02 -0.31306604860E-02  0.10302366014E+01  0.10301455945E+01 0.  0.
     999903    2    3    3    0    0 -0.47059690763E-01  0.38063375754E-02  0.12656787091E+00  0.14000947707E+00  0.36798437788E-01 0.  0.
         14    1    1    2    0    0  0.11383115908E-01 -0.69377807025E-02  0.31306604860E-02  0.13693398553E-01  0.00000000000E+00 0. -1.
     999901    1    3    3    0    0  0.35676574855E-01  0.31314431271E-02 -0.12969853139E+00  0.89022712438E+00  0.88000000000E+00 0. -1.
        -11    1    4    4    0    0 -0.21640416748E-01 -0.16365443493E-01  0.51086036792E-01  0.57846172335E-01  0.51100000000E-03 0.  1.
         11    1    4    4    0    0 -0.25419274015E-01  0.20171781068E-01  0.75481834114E-01  0.82163304736E-01  0.51100000000E-03 0. -1.
</event>
<event>
 7    1  0.2846344E+004  0.1043930E+01  0.7957747E-01            NaN
         13   -1    0    0    0    0  0.00000000000E+00  0.00000000000E+00  0.74505805969E-08  0.10566000000E+00  0.10566000000E+00 0. -1.
     999900   -1    0    0    0    0 -0.00000000000E+00 -0.00000000000E+00 -0.74505805969E-08  0.93827000000E+00  0.93827000000E+00 0. -1.
     999903    2    1    2    0    0  0.88137665606E-01  0.24260957820E-01  0.12954170511E-01  0.10239212150E+00  0.44266170370E-01 0.  0.
         14    1    1    2    0    0  0.38979122040E-01  0.31581225599E-01 -0.68403136279E-02  0.50631370274E-01  0.00000000000E+00 0.  1.
     999901    1    1    2    0    0 -0.12711678765E+00 -0.55842183419E-01 -0.61138568830E-02  0.89090650822E+00  0.88000000000E+00 0. -1.
        -11    1    3    3    0    0  0.74770398617E-01  0.72895876145E-02 -0.35354417894E-02  0.75209780391E-01  0.51100000000E-03 0.  1.
         11    1    3    3    0    0  0.13367266989E-01  0.16971370206E-01  0.16489612300E-01  0.27182341110E-01  0.51100000000E-03 0. -1.
</event>
<event>
 8    1  0.2846344E+004  0.1043930E+01  0.7957747E-01            NaN
         13   -1    0    0    0    0  0.00000000000E+00  0.00000000000E+00  0.74505805969E-08  0.10566000000E+00  0.10566000000E+00 0. -1.
     999900   -1    0    0    0    0 -0.00000000000E+00 -0.00000000000E+00 -0.74505805969E-08  0.93827000000E+00  0.93827000000E+00 0.  1.
     999902    2    1    2    0    0 -0.13985495658E-01 -0.23704154700E-02 -0.18378110942E-02  0.10296264862E+01  0.10295271296E+01 0.  0.
     999903    2    3    3    0    0 -0.43755973047E-02  0.41315879801E-01  0.12523676877E+00  0.13937439188E+00  0.44886802992E-01 0.  0.
         14    1    1    2    0    0  0.13985495658E-01  0.23704154700E-02  0.18378110942E-02  0.14303513831E-01  0.00000000000E+00 0. -1.
     999901    1    3    3    0    0 -0.96098983533E-02 -0.43686295271E-01 -0.12707457987E+00  0.89025209429E+00  0.88000000000E+00 0.  1.
        -11    1    4    4    0    0 -0.12106768452E-01  0.38944359762E-01  0.53967893066E-01  0.67646371688E-01  0.51100000000E-03 0.  1.
         11    1    4    4    0    0  0.77311711474E-02  0.23715200393E-02  0.71268875708E-01  0.71728020190E-01  0.51100000000E-03 0. -1.
</event>
<event>
 8    1  0.2846344E+004  0.1043930E+01  0.7957747E-01            NaN
         13   -1    0    0    0    0  0.00000000000E+00  0.00000000000E+00  0.74505805969E-08  0.10566000000E+00  0.10566000000E+00 0.  1.
     999900   -1    0    0    0    0 -0.00000000000E+00 -0.00000000000E+00 -0.74505805969E-08  0.93827000000E+00  0.93827000000E+00 0. -1.
     999902    2    1    2    0    0 -0.10154647507E-01 -0.93837518001E-02  0.86581370470E-02  0.10276163554E+01  0.10274868558E+01 0.  0.
     999903    2    3    3    0    0  0.64585594654E-01  0.93170199155E-01  0.63176040701E-01  0.13684387125E+00  0.43394100206E-01 0.  0.
         14    1    1    2    0    0  0.10154647507E-01  0.93837518001E-02 -0.86581370470E-02  0.16313644626E-01  0.00000000000E+00 0. -1.
     999901    1    3    3    0    0 -0.74740242162E-01 -0.10255395095E+00 -0.54517903654E-01  0.89077248412E+00  0.88000000000E+00 0. -1.
        -11    1    4    4    0    0  0.36594671319E-01  0.82023326868E-01  0.37795453662E-01  0.97446157225E-01  0.51100000000E-03 0. -1.
         11    1    4    4    0    0  0.27990923336E-01  0.11146872287E-01  0.25380587039E-01  0.39397714025E-01  0.51100000000E-03 0.  1.
</event>
<event>
 8    1  0.2846344E+004  0.1043930E+01  0.7957747E-01            NaN
         13   -1    0    0    0    0  0.00000000000E+00  0.00000000000E+00  0.74505805969E-08  0.10566000000E+00  0.10566000000E+00 0.  1.
     999900   -1    0    0    0    0 -0.00000000000E+00 -0.00000000000E+00 -0.74505805969E-08  0.93827000000E+00  0.93827000000E+00 0.  1.
     999902    2    1    2    0    0  0.12823113525E-01 -0.29428179655E-02  0.39730848445E-02  0.10301867172E+01  0.10300950415E+01 0.  0.
     999903    2    3    3    0    0  0.66628460000E-01 -0.92941120706E-01 -0.69166266881E-01  0.14094879936E+00  0.44779325226E-01 0.  0.
         14    1    1    2    0    0 -0.12823113525E-01  0.29428179655E-02 -0.39730848445E-02  0.13743282767E-01  0.00000000000E+00 0.  1.
     999901    1    3    3    0    0 -0.53805346476E-01  0.89998302740E-01  0.73139351726E-01  0.88923791787E+00  0.88000000000E+00 0. -1.
        -11    1    4    4    0    0  0.55690067411E-01 -0.62962009105E-01 -0.27457488696E-01  0.88429480408E-01  0.51100000000E-03 0. -1.
         11    1    4    4    0    0  0.10938392589E-01 -0.29979111600E-01 -0.41708778185E-01  0.52519318955E-01  0.51100000000E-03 0.  1.
</event>
<event>
 8    1  0.2846344E+004  0.1043930E+01  0.7957747E-01            NaN
         13   -1    0    0    0    0  0.00000000000E+00  0.00000000000E+00  0.74505805969E-08  0.10566000000E+00  0.10566000000E+00 0. -1.
     999900   -1    0    0    0    0 -0.00000000000E+00 -0.00000000000E+00 -0.74505805969E-08  0.93827000000E+00  0.93827000000E+00 0.  1.
     999902    2    1    2    0    0  0.71734085557E-02 -0.20568171913E-02 -0.12730558350E-01  0.10291734624E+01  0.10290676655E+01 0.  0.
     999903    2    3    3    0    0 -0.96966742329E-01 -0.79666316010E-01  0.33140835759E-01  0.13845881101E+00  0.48200169361E-01 0.  0.
         14    1    1    2    0    0 -0.71734085557E-02  0.20568171913E-02  0.12730558350E-01  0.14756537642E-01  0.00000000000E+00 0. -1.
     999901    1    3    3    0    0  0.10414015088E+00  0.77609498819E-01 -0.45871394109E-01  0.89071465135E+00  0.88000000000E+00 0.  1.
        -11    1    4    4    0    0 -0.19710164813E-01 -0.44757765718E-01  0.51492581446E-02  0.49178492957E-01  0.51100000000E-03 0.  1.
         11    1    4    4    0    0 -0.77256577516E-01 -0.34908550292E-01  0.27991577615E-01  0.89280318051E-01  0.51100000000E-03 0. -1.
</event>
<event>
 8    1  0.2846344E+004  0.1043930E+01  0.7957747E-01            NaN
         13   -1    0    0    0    0  0.00000000000E+00  0.00000000000E+00  0.74505805969E-08  0.10566000000E+00  0.10566000000E+00 0.  1.
     999900   -1    0    0    0    0 -0.00000000000E+00 -0.00000000000E+00 -0.74505805969E-08  0.93827000000E+00  0.93827000000E+00 0. -1.
     999902    2    1    2    0    0  0.24671812420E-02  0.12389958958E-01 -0.43361965139E-02  0.10305733288E+01  0.10304867710E+01 0.  0.
     999903    2    3    3    0    0  0.49110113106E-01  0.30238904445E-01 -0.12043174300E+00  0.14154446317E+00  0.46955678893E-01 0.  0.
         14    1    1    2    0    0 -0.24671812420E-02 -0.12389958958E-01  0.43361965139E-02  0.13356671235E-01  0.00000000000E+00 0.  1.
     999901    1    3    3    0    0 -0.46642931864E-01 -0.17848945487E-01  0.11609554649E+00  0.88902886560E+00  0.88000000000E+00 0.  1.
        -11    1    4    4    0    0  0.40717126359E-01  0.41291602673E-01 -0.80106676571E-01  0.98895002819E-01  0.51100000000E-03 0. -1.
         11    1    4    4    0    0  0.83929867471E-02 -0.11052698228E-01 -0.40325066430E-01  0.42649460351E-01  0.51100000000E-03 0.  1.
</event>
<event>
 8    1  0.2846344E+004  0.1043930E+01  0.7957747E-01            NaN
         13   -1    0    0    0    0  0.00000000000E+00  0.00000000000E+00  0.74505805969E-08  0.10566000000E+00  0.10566000000E+00 0. -1.
     999900   -1    0    0    0    0 -0.00000000000E+00 -0.00000000000E+00 -0.74505805969E-08  0.93827000000E+00  0.93827000000E+00 0.  1.
     999902    2    1    2    0    0  0.13898017452E-02 -0.13296515391E-01 -0.39872815057E-02  0.10299791117E+01  0.10298846262E+01 0.  0.
     999903    2    3    3    0    0 -0.10333351661E+00  0.79189823417E-01  0.15768476562E-01  0.13873785018E+00  0.45284682062E-01 0.  0.
         14    1    1    2    0    0 -0.13898017452E-02  0.13296515391E-01  0.39872815057E-02  0.13950888296E-01  0.00000000000E+00 0. -1.
     999901    1    3    3    0    0  0.10472331836E+00 -0.92486338809E-01 -0.19755758068E-01  0.89124126153E+00  0.88000000000E+00 0.  1.
        -11    1    4    4    0    0 -0.23770558785E-01  0.36009930604E-02 -0.99404166954E-02  0.26020753660E-01  0.51100000000E-03 0.  1.
         11    1    4    4    0    0 -0.79562957829E-01  0.75588830357E-01  0.25708893257E-01  0.11271709651E+00  0.51100000000E-03 0. -1.
</event>
<event>
 8    1  0.2846344E+004  0.1043930E+01  0.7957747E-01            NaN
         13   -1    0    0    0    0  0.00000000000E+00  0.00000000000E+00  0.74505805969E-08  0.10566000000E+00  0.10566000000E+00 0. -1.
     999900   -1    0    0    0    0 -0.00000000000E+00 -0.00000000000E+00 -0.74505805969E-08  0.93827000000E+00  0.93827000000E+00 0. -1.
     999902    2    1    2    0    0  0.86761773096E-02  0.71585918851E-02 -0.64669513861E-02  0.10309552957E+01  0.10308736483E+01 0.  0.
     999903    2    3    3    0    0  0.85796509804E-01  0.86960929280E-01  0.55468324587E-01  0.14182541931E+00  0.45983368900E-01 0.  0.
         14    1    1    2    0    0 -0.86761773096E-02 -0.71585918851E-02  0.64669513861E-02  0.12974704263E-01  0.00000000000E+00 0. -1.
     999901    1    3    3    0    0 -0.77120332494E-01 -0.79802337395E-01 -0.61935275973E-01  0.88912987642E+00  0.88000000000E+00 0.  1.
        -11    1    4    4    0    0  0.58637784401E-01  0.52187246567E-01  0.11152376979E-01  0.79287673045E-01  0.51100000000E-03 0.  1.
         11    1    4    4    0    0  0.27158725403E-01  0.34773682713E-01  0.44315947608E-01  0.62537746269E-01  0.51100000000E-03 0. -1.
</event>
<event>
 8    1  0.2846344E+004  0.1043930E+01  0.7957747E-01            NaN
         13   -1    0    0    0    0  0.00000000000E+00  0.00000000000E+00  0.74505805969E-08  0.10566000000E+00  0.10566000000E+00 0.  1.
     999900   -1    0    0    0    0 -0.00000000000E+00 -0.00000000000E+00 -0.74505805969E-08  0.93827000000E+00  0.93827000000E+00 0.  1.
     999902    2    1    2    0    0  0.16757307468E-01  0.99173046830E-03  0.88020855019E-03  0.10271203108E+01  0.10269827493E+01 0.  0.
     999903    2    3    3    0    0 -0.11630652121E+00 -0.51556538151E-01 -0.11000403411E-01  0.13548784620E+00  0.45284258748E-01 0.  0.
         14    1    1    2    0    0 -0.16757307468E-01 -0.99173046830E-03 -0.88020855019E-03  0.16809689170E-01  0.00000000000E+00 0.  1.
     999901    1    3    3    0    0  0.13306382868E+00  0.52548268620E-01  0.11880611962E-01  0.89163246463E+00  0.88000000000E+00 0. -1.
        -11    1    4    4    0    0 -0.53698650889E-01 -0.12807796233E-01 -0.24889801378E-01  0.60558633449E-01  0.51100000000E-03 0.  1.
         11    1    4    4    0    0 -0.62607870324E-01 -0.38748741918E-01  0.13889397967E-01  0.74929212752E-01  0.51100000000E-03 0. -1.
</event>
<event>
 8    1  0.2846344E+004  0.1043930E+01  0.7957747E-01            NaN
         13   -1    0    0    0    0  0.00000000000E+00  0.00000000000E+00  0.74505805969E-08  0.10566000000E+00  0.10566000000E+00 0.  1.
     999900   -1    0    0    0    0 -0.00000000000E+00 -0.00000000000E+00 -0.74505805969E-08  0.93827000000E+00  0.93827000000E+00 0. -1.
     999902    2    1    2    0    0  0.84867175971E-02 -0.24290848703E-02  0.99490412924E-02  0.10306293139E+01  0.10305434849E+01 0.  0.
     999903    2    3    3    0    0  0.36356928015E-01  0.99159690530E-01  0.82464036594E-01  0.14138499848E+00  0.45110198651E-01 0.  0.
         14    1    1    2    0    0 -0.84867175971E-02  0.24290848703E-02 -0.99490412924E-02  0.13300686130E-01  0.00000000000E+00 0. -1.
     999901    1    3    3    0    0 -0.27870210418E-01 -0.10158877540E+00 -0.72514995301E-01  0.88924431539E+00  0.88000000000E+00 0. -1.
        -11    1    4    4    0    0  0.30591734143E-01  0.28702204170E-01  0.17781452181E-01  0.45564370782E-01  0.51100000000E-03 0.  1.
         11    1    4    4    0    0  0.57651938719E-02  0.70457486360E-01  0.64682584413E-01  0.95820627695E-01  0.51100000000E-03 0. -1.
</event>
<event>
 8    1  0.2846344E+004  0.1043930E+01  0.7957747E-01            NaN
         13   -1    0    0    0    0  0.00000000000E+00  0.00000000000E+00  0.74505805969E-08  0.10566000000E+00  0.10566000000E+00 0. -1.
     999900   -1    0    0    0    0 -0.00000000000E+00 -0.00000000000E+00 -0.74505805969E-08  0.93827000000E+00  0.93827000000E+00 0.  1.
     999902    2    1    2    0    0  0.24983574992E-02  0.10572263678E-01 -0.94918246077E-02  0.10295040067E+01  0.10294029291E+01 0.  0.
     999903    2    3    3    0    0 -0.89363136132E-01  0.41003368434E-01 -0.89944007856E-01  0.14055117330E+00  0.44695206057E-01 0.  0.
         14    1    1    2    0    0 -0.24983574992E-02 -0.10572263678E-01  0.94918246077E-02  0.14425993340E-01  0.00000000000E+00 0. -1.
     999901    1    3    3    0    0  0.91861493631E-01 -0.30431104755E-01  0.80452183248E-01  0.88895283336E+00  0.88000000000E+00 0. -1.
        -11    1    4    4    0    0 -0.11407180008E-01  0.23917166716E-01 -0.33900392038E-01  0.43030829887E-01  0.51100000000E-03 0. -1.
         11    1    4    4    0    0 -0.77955956124E-01  0.17086201718E-01 -0.56043615819E-01  0.97520343413E-01  0.51100000000E-03 0.  1.
</event>
<event>
 8    1  0.2846344E+004  0.1043930E+01  0.7957747E-01            NaN
         13   -1    0    0    0    0  0.00000000000E+00  0.00000000000E+00  0.74505805969E-08  0.10566000000E+00  0.10566000000E+00 0. -1.
     999900   -1    0    0    0    0 -0.00000000000E+00 -0.00000000000E+00 -0.74505805969E-08  0.93827000000E+00  0.93827000000E+00 0. -1.
     999902    2    1    2    0    0 -0.59839409321E-02  0.80423248812E-02  0.19455574033E-01  0.10220437966E+01  0.10218094325E+01 0.  0.
     999903    2    3    3    0    0  0.96530806088E-02 -0.34150994028E-01  0.12056663424E+00  0.13511187187E+00  0.49592663453E-01 0.  0.
         14    1    1    2    0    0  0.59839409321E-02 -0.80423248812E-02 -0.19455574033E-01  0.21886203406E-01  0.00000000000E+00 0.  1.
     999901    1    3    3    0    0 -0.15637021541E-01  0.42193318909E-01 -0.10111106021E+00  0.88693192473E+00  0.88000000000E+00 0. -1.
        -11    1    4    4    0    0 -0.10639292815E-01 -0.13416126386E-01  0.94708295563E-01  0.96245048539E-01  0.51100000000E-03 0.  1.
         11    1    4    4    0    0  0.20292373424E-01 -0.20734867643E-01  0.25858338680E-01  0.38866823328E-01  0.51100000000E-03 0. -1.
</event>
<event>
 8    1  0.2846344E+004  0.1043930E+01  0.7957747E-01            NaN
         13   -1    0    0    0    0  0.00000000000E+00  0.00000000000E+00  0.74505805969E-08  0.10566000000E+00  0.10566000000E+00 0.  1.
     999900   -1    0    0    0    0 -0.00000000000E+00 -0.00000000000E+00 -0.74505805969E-08  0.93827000000E+00  0.93827000000E+00 0. -1.
     999902    2    1    2    0    0 -0.23451262781E-02  0.56033326900E-02 -0.12100766475E-01  0.10303902251E+01  0.10303012620E+01 0.  0.
     999903    2    3    3    0    0  0.10540654042E+00 -0.64924467398E-01 -0.39324058555E-01  0.14060053093E+00  0.53818235617E-01 0.  0.
         14    1    1    2    0    0  0.23451262781E-02 -0.56033326900E-02  0.12100766475E-01  0.13539774880E-01  0.00000000000E+00 0.  1.
     999901    1    3    3    0    0 -0.10775166670E+00  0.70527800088E-01  0.27223292080E-01  0.88978969419E+00  0.88000000000E+00 0. -1.
        -11    1    4    4    0    0  0.87528389142E-02 -0.30579550757E-01 -0.15048376653E-01  0.35191417625E-01  0.51100000000E-03 0.  1.
         11    1    4    4    0    0  0.96653701508E-01 -0.34344916641E-01 -0.24275681902E-01  0.10540911330E+00  0.51100000000E-03 0. -1.
</event>
<event>
 8    1  0.2846344E+004  0.1043930E+01  0.7957747E-01            NaN
         13   -1    0    0    0    0  0.00000000000E+00  0.00000000000E+00  0.74505805969E-08  0.10566000000E+00  0.10566000000E+00 0. -1.
     999900   -1    0    0    0    0 -0.00000000000E+00 -0.00000000000E+00 -0.74505805969E-08  0.93827000000E+00  0.93827000000E+00 0. -1.
     999902    2    1    2    0    0 -0.30850186116E-02  0.12583658915E-01 -0.62343171653E-02  0.10295518039E+01  0.10294513998E+01 0.  0.
     999903    2    3    3    0    0 -0.36848295676E-02 -0.12590158088E+00  0.32499357474E-01  0.13787988054E+00  0.45715065182E-01 0.  0.
         14    1    1    2    0    0  0.30850186116E-02 -0.12583658915E-01  0.62343171653E-02  0.14378196064E-01  0.00000000000E+00 0. -1.
     999901    1    3    3    0    0  0.59981095601E-03  0.13848523980E+00 -0.38733674639E-01  0.89167192339E+00  0.88000000000E+00 0. -1.
        -11    1    4    4    0    0  0.19778834519E-01 -0.38398168852E-01  0.69618730955E-02  0.43753290895E-01  0.51100000000E-03 0.  1.
         11    1    4    4    0    0 -0.23463664087E-01 -0.87503412031E-01  0.25537484378E-01  0.94126589649E-01  0.51100000000E-03 0. -1.
</event>
<event>
 8    1  0.2846344E+004  0.1043930E+01  0.7957747E-01            NaN
         13   -1    0    0    0    0  0.00000000000E+00  0.00000000000E+00  0.74505805969E-08  0.10566000000E+00  0.10566000000E+00 0.  1.
     999900   -1    0    0    0    0 -0.00000000000E+00 -0.00000000000E+00 -0.74505805969E-08  0.93827000000E+00  0.93827000000E+00 0.  1.
     999902    2    1    2    0    0  0.74240356733E-02 -0.91554182261E-02  0.71708003069E-02  0.10301329581E+01  0.10300405589E+01 0.  0.
     999903    2    3    3    0    0  0.87209824235E-01  0.73061969191E-01  0.68790800300E-01  0.14056986575E+00  0.45652033526E-01 0.  0.
         14    1    1    2    0    0 -0.74240356733E-02  0.91554182261E-02 -0.71708003069E-02  0.13797041915E-01  0.00000000000E+00 0. -1.
     999901    1    3    3    0    0 -0.79785788562E-01 -0.82217387417E-01 -0.61619999993E-01  0.88956309234E+00  0.88000000000E+00 0.  1.
        -11    1    4    4    0    0  0.28679169607E-01  0.59948005114E-02  0.34277575757E-01  0.45095961274E-01  0.51100000000E-03 0.  1.
         11    1    4    4    0    0  0.58530654628E-01  0.67067168679E-01  0.34513224543E-01  0.95473904473E-01  0.51100000000E-03 0. -1.
</event>
<event>
 8    1  0.2846344E+004  0.1043930E+01  0.7957747E-01            NaN
         13   -1    0    0    0    0  0.00000000000E+00  0.00000000000E+00  0.74505805969E-08  0.10566000000E+00  0.10566000000E+00 0. -1.
     999900   -1    0    0    0    0 -0.00000000000E+00 -0.00000000000E+00 -0.74505805969E-08  0.93827000000E+00  0.93827000000E+00 0.  1.
     999902    2    1    2    0    0  0.13431969602E-02 -0.14037522201E-01  0.23998540310E-02  0.10296256123E+01  0.10295262435E+01 0.  0.
     999903    2    3    3    0    0  0.55616308145E-01 -0.32579855308E-01  0.11692861085E+00  0.14035274933E+00  0.43266309111E-01 0.  0.
         14    1    1    2    0    0 -0.13431969602E-02  0.14037522201E-01 -0.23998540310E-02  0.14304387683E-01  0.00000000000E+00 0.  1.
     999901    1    3    3    0    0 -0.54273111185E-01  0.18542333107E-01 -0.11452875682E+00  0.88927286299E+00  0.88000000000E+00 0. -1.
        -11    1    4    4    0    0  0.37150536864E-01 -0.14576803616E-02  0.82086830666E-01  0.90115459889E-01  0.51100000000E-03 0.  1.
         11    1    4    4    0    0  0.18465771282E-01 -0.31122174946E-01  0.34841780185E-01  0.50237289436E-01  0.51100000000E-03 0. -1.
</event>
<event>
 8    1  0.2846344E+004  0.1043930E+01  0.7957747E-01            NaN
         13   -1    0    0    0    0  0.00000000000E+00  0.00000000000E+00  0.74505805969E-08  0.10566000000E+00  0.10566000000E+00 0.  1.
     999900   -1    0    0    0    0 -0.00000000000E+00 -0.00000000000E+00 -0.74505805969E-08  0.93827000000E+00  0.93827000000E+00 0.  1.
     999902    2    1    2    0    0  0.25733479169E-02  0.12416335373E-01  0.57096762932E-02  0.10300236019E+01  0.10299297222E+01 0.  0.
     999903    2    3    3    0    0  0.74362588874E-01 -0.10686956182E+00 -0.15444639953E-01  0.13882759349E+00  0.45647189858E-01 0.  0.
         14    1    1    2    0    0 -0.25733479169E-02 -0.12416335373E-01 -0.57096762932E-02  0.13906398059E-01  0.00000000000E+00 0. -1.
     999901    1    3    3    0    0 -0.71789240957E-01  0.11928589720E+00  0.21154316246E-01  0.89119600845E+00  0.88000000000E+00 0.  1.
        -11    1    4    4    0    0  0.75724789688E-01 -0.85815817394E-01 -0.22370906969E-01  0.11661610904E+00  0.51100000000E-03 0. -1.
         11    1    4    4    0    0 -0.13622008137E-02 -0.21053744429E-01  0.69262670159E-02  0.22211484447E-01  0.51100000000E-03 0.  1.
</event>
<event>
 8    1  0.2846344E+004  0.1043930E+01  0.7957747E-01            NaN
         13   -1    0    0    0    0  0.00000000000E+00  0.00000000000E+00  0.74505805969E-08  0.10566000000E+00  0.10566000000E+00 0.  1.
     999900   -1    0    0    0    0 -0.00000000000E+00 -0.00000000000E+00 -0.74505805969E-08  0.93827000000E+00  0.93827000000E+00 0.  1.
     999902    2    1    2    0    0  0.66472071339E-02  0.21414679875E-02  0.12336807396E-01  0.10297536794E+01  0.10296560942E+01 0.  0.
     999903    2    3    3    0    0 -0.29158774113E-01 -0.32051207238E-01  0.12614390145E+00  0.14104491838E+00  0.45867975027E-01 0.  0.
         14    1    1    2    0    0 -0.66472071339E-02 -0.21414679875E-02 -0.12336807396E-01  0.14176320558E-01  0.00000000000E+00 0. -1.
     999901    1    3    3    0    0  0.35805981247E-01  0.34192675225E-01 -0.11380709406E+00  0.88870876106E+00  0.88000000000E+00 0.  1.
        -11    1    4    4    0    0 -0.13222749100E-01  0.10111818329E-01  0.48312662480E-01  0.51102489573E-01  0.51100000000E-03 0. -1.
         11    1    4    4    0    0 -0.15936025013E-01 -0.42163025566E-01  0.77831238975E-01  0.89942428806E-01  0.51100000000E-03 0.  1.
</event>
<event>
 8    1  0.2846344E+004  0.1043930E+01  0.7957747E-01            NaN
         13   -1    0    0    0    0  0.00000000000E+00  0.00000000000E+00  0.74505805969E-08  0.10566000000E+00  0.10566000000E+00 0. -1.
     999900   -1    0    0    0    0 -0.00000000000E+00 -0.00000000000E+00 -0.74505805969E-08  0.93827000000E+00  0.93827000000E+00 0.  1.
     999902    2    1    2    0    0 -0.63751391194E-02  0.62755282661E-02 -0.10245293472E-01  0.10303288717E+01  0.10302390951E+01 0.  0.
     999903    2    3    3    0    0  0.53546257779E-01 -0.12030326488E+00 -0.93790148279E-02  0.13925451162E+00  0.44314510311E-01 0.  0.
         14    1    1    2    0    0  0.63751391194E-02 -0.62755282661E-02  0.10245293472E-01  0.13601128341E-01  0.00000000000E+00 0. -1.
     999901    1    3    3    0    0 -0.59921396898E-01  0.12657879315E+00 -0.86627864432E-03  0.89107436004E+00  0.88000000000E+00 0. -1.
        -11    1    4    4    0    0  0.50814624737E-01 -0.64262252845E-01 -0.13336098783E-01  0.83005276216E-01  0.51100000000E-03 0.  1.
         11    1    4    4    0    0  0.27316330418E-02 -0.56041012036E-01  0.39570839556E-02  0.56249235404E-01  0.51100000000E-03 0. -1.
</event>
<event>
 8    1  0.2846344E+004  0.1043930E+01  0.7957747E-01            NaN
         13   -1    0    0    0    0  0.00000000000E+00  0.00000000000E+00  0.74505805969E-08  0.10566000000E+00  0.10566000000E+00 0. -1.
     999900   -1    0    0    0    0 -0.00000000000E+00 -0.00000000000E+00 -0.74505805969E-08  0.93827000000E+00  0.93827000000E+00 0. -1.
     999902    2    1    2    0    0  0.11432919282E-01 -0.52712655460E-02 -0.28517880660E-02  0.10310214533E+01  0.10309406416E+01 0.  0.
     999903    2    3    3    0    0 -0.16977317647E-01 -0.11798791212E+00  0.55305600585E-01  0.14147411566E+00  0.52410296931E-01 0.  0.
         14    1    1    2    0    0 -0.11432919282E-01  0.52712655460E-02  0.28517880660E-02  0.12908546740E-01  0.00000000000E+00 0.  1.
     999901    1    3    3    0    0  0.28410236929E-01  0.11271664658E+00 -0.58157388651E-01  0.88954733760E+00  0.88000000000E+00 0. -1.
        -11    1    4    4    0    0 -0.34585996949E-01 -0.73641846662E-01  0.25718797292E-01  0.85328954171E-01  0.51100000000E-03 0. -1.
         11    1    4    4    0    0  0.17608679302E-01 -0.44346065459E-01  0.29586803293E-01  0.56145161489E-01  0.51100000000E-03 0.  1.
</event>
<event>
 8    1  0.2846344E+004  0.1043930E+01  0.7957747E-01            NaN
         13   -1    0    0    0    0  0.00000000000E+00  0.00000000000E+00  0.74505805969E-08  0.10566000000E+00  0.10566000000E+00 0. -1.
     999900   -1    0    0    0    0 -0.00000000000E+00 -0.00000000000E+00 -0.74505805969E-08  0.93827000000E+00  0.93827000000E+00 0.  1.
     999902    2    1    2    0    0 -0.65937166624E-02 -0.48373703466E-02  0.10406372615E-01  0.10306948256E+01  0.10306098455E+01 0.  0.
     999903    2    3    3    0    0 -0.85201391581E-02 -0.98777632417E-01  0.91237495619E-01  0.14200919252E+00  0.44863311464E-01 0.  0.
         14    1    1    2    0    0  0.65937166624E-02  0.48373703466E-02 -0.10406372615E-01  0.13235174434E-01  0.00000000000E+00 0.  1.
     999901    1    3    3    0    0  0.19264224957E-02  0.93940262070E-01 -0.80831123004E-01  0.88868563305E+00  0.88000000000E+00 0. -1.
        -11    1    4    4    0    0 -0.13408485966E-01 -0.10348148932E-01  0.29596168287E-01  0.34103753173E-01  0.51100000000E-03 0.  1.
         11    1    4    4    0    0  0.48883468081E-02 -0.88429483484E-01  0.61641327332E-01  0.10790543934E+00  0.51100000000E-03 0. -1.
</event>
<event>
 8    1  0.2846344E+004  0.1043930E+01  0.7957747E-01            NaN
         13   -1    0    0    0    0  0.00000000000E+00  0.00000000000E+00  0.74505805969E-08  0.10566000000E+00  0.10566000000E+00 0.  1.
     999900   -1    0    0    0    0 -0.00000000000E+00 -0.00000000000E+00 -0.74505805969E-08  0.93827000000E+00  0.93827000000E+00 0.  1.
     999902    2    1    2    0    0  0.11571118669E-01  0.60260771785E-02 -0.33924429950E-02  0.10304499012E+01  0.10303617257E+01 0.  0.
     999903    2    3    3    0    0  0.10378252558E+00 -0.58858771031E-01  0.59954093461E-01  0.14099738941E+00  0.45283583738E-01 0.  0.
         14    1    1    2    0    0 -0.11571118669E-01 -0.60260771785E-02  0.33924429950E-02  0.13480098772E-01  0.00000000000E+00 0. -1.
     999901    1    3    3    0    0 -0.92211406908E-01  0.64884848210E-01 -0.63346536456E-01  0.88945251181E+00  0.88000000000E+00 0.  1.
        -11    1    4    4    0    0  0.53918521368E-01 -0.50447474462E-01  0.19870410142E-01  0.76467306388E-01  0.51100000000E-03 0. -1.
         11    1    4    4    0    0  0.49864004210E-01 -0.84112965690E-02  0.40083683319E-01  0.64530083026E-01  0.51100000000E-03 0.  1.
</event>
<event>
 8    1  0.2846344E+004  0.1043930E+01  0.7957747E-01            NaN
         13   -1    0    0    0    0  0.00000000000E+00  0.00000000000E+00  0.74505805969E-08  0.10566000000E+00  0.10566000000E+00 0.  1.
     999900   -1    0    0    0    0 -0.00000000000E+00 -0.00000000000E+00 -0.74505805969E-08  0.93827000000E+00  0.93827000000E+00 0.  1.
     999902    2    1    2    0    0 -0.13431411776E-01 -0.26793211502E-02 -0.16710669721E-02  0.10301323897E+01  0.10300399829E+01 0.  0.
     999903    2    3    3    0    0 -0.70343004535E-01  0.22019963775E-01 -0.11176759223E+00  0.14110470235E+00  0.44559233177E-01 0.  0.
         14    1    1    2    0    0  0.13431411776E-01  0.26793211502E-02  0.16710669721E-02  0.13797610262E-01  0.00000000000E+00 0. -1.
     999901    1    3    3    0    0  0.56911592759E-01 -0.24699284925E-01  0.11009652526E+00  0.88902768739E+00  0.88000000000E+00 0. -1.
        -11    1    4    4    0    0  0.12863800608E-02  0.49858658269E-02 -0.32530717474E-01  0.32939677170E-01  0.51100000000E-03 0.  1.
         11    1    4    4    0    0 -0.71629384596E-01  0.17034097948E-01 -0.79236874755E-01  0.10816502518E+00  0.51100000000E-03 0. -1.
</event>
<event>
 8    1  0.2846344E+004  0.1043930E+01  0.7957747E-01            NaN
         13   -1    0    0    0    0  0.00000000000E+00  0.00000000000E+00  0.74505805969E-08  0.10566000000E+00  0.10566000000E+00 0.  1.
     999900   -1    0    0    0    0 -0.00000000000E+00 -0.00000000000E+00 -0.74505805969E-08  0.93827000000E+00  0.93827000000E+00 0. -1.
     999902    2    1    2    0    0 -0.16220571645E-01 -0.16230124313E-02 -0.14084354754E-02  0.10275677017E+01  0.10274374224E+01 0.  0.
     999903    2    3    3    0    0  0.56573601744E-01 -0.11645850864E+00  0.73127240134E-02  0.13708342816E+00  0.44443601297E-01 0.  0.
         14    1    1    2    0    0  0.16220571645E-01  0.16230124313E-02  0.14084354754E-02  0.16362298260E-01  0.00000000000E+00 0. -1.
     999901    1    3    3    0    0 -0.72794173389E-01  0.11483549620E+00 -0.87211594888E-02  0.89048427358E+00  0.88000000000E+00 0. -1.
        -11    1    4    4    0    0  0.22410673391E-01 -0.57171599258E-01 -0.18208206216E-01  0.64051775449E-01  0.51100000000E-03 0. -1.
         11    1    4    4    0    0  0.34162928353E-01 -0.59286909377E-01  0.25520930230E-01  0.73031652713E-01  0.51100000000E-03 0.  1.
</event>
<event>
 8    1  0.2846344E+004  0.1043930E+01  0.7957747E-01            NaN
         13   -1    0    0    0    0  0.00000000000E+00  0.00000000000E+00  0.74505805969E-08  0.10566000000E+00  0.10566000000E+00 0.  1.
     999900   -1    0    0    0    0 -0.00000000000E+00 -0.00000000000E+00 -0.74505805969E-08  0.93827000000E+00  0.93827000000E+00 0. -1.
     999902    2    1    2    0    0  0.95511033294E-03 -0.69003343036E-02 -0.11554232773E-01  0.10304382564E+01  0.10303499275E+01 0.  0.
     999903    2    3    3    0    0  0.12419653859E+00  0.35179814009E-01  0.29963444744E-01  0.13988623322E+00  0.44810163027E-01 0.  0.
         14    1    1    2    0    0 -0.95511033294E-03  0.69003343036E-02  0.11554232773E-01  0.13491743558E-01  0.00000000000E+00 0.  1.
     999901    1    3    3    0    0 -0.12324142826E+00 -0.42080148312E-01 -0.41517677518E-01  0.89055202322E+00  0.88000000000E+00 0.  1.
        -11    1    4    4    0    0  0.10471509798E+00  0.20020114296E-01  0.39104467736E-01  0.11355825483E+00  0.51100000000E-03 0.  1.
         11    1    4    4    0    0  0.19481440611E-01  0.15159699713E-01 -0.91410229922E-02  0.26327978388E-01  0.51100000000E-03 0. -1.
</event>
<event>
 8    1  0.2846344E+004  0.1043930E+01  0.7957747E-01            NaN
         13   -1    0    0    0    0  0.00000000000E+00  0.00000000000E+00  0.74505805969E-08  0.10566000000E+00  0.10566000000E+00 0. -1.
     999900   -1    0    0    0    0 -0.00000000000E+00 -0.00000000000E+00 -0.74505805969E-08  0.93827000000E+00  0.93827000000E+00 0. -1.
     999902    2    1    2    0    0  0.53525525871E-02  0.95160230136E-02 -0.87752035484E-02  0.10299225480E+01  0.10298272895E+01 0.  0.
     999903    2    3    3    0    0  0.70253654204E-01  0.97949019490E-01 -0.57664869406E-01  0.14176560960E+00  0.47356779399E-01 0.  0.
         14    1    1    2    0    0 -0.53525525871E-02 -0.95160230136E-02  0.87752035484E-02  0.14007451964E-01  0.00000000000E+00 0. -1.
     999901    1    3    3    0    0 -0.64901101616E-01 -0.88432996476E-01  0.48889665858E-01  0.88815693843E+00  0.88000000000E+00 0.  1.
        -11    1    4    4    0    0  0.15334777840E-01  0.35870518358E-01  0.28820205052E-02  0.39120540153E-01  0.51100000000E-03 0. -1.
         11    1    4    4    0    0  0.54918876364E-01  0.62078501132E-01 -0.60546889912E-01  0.10264506945E+00  0.51100000000E-03 0.  1.
</event>
<event>
 8    1  0.2846344E+004  0.1043930E+01  0.7957747E-01            NaN
         13   -1    0    0    0    0  0.00000000000E+00  0.00000000000E+00  0.74505805969E-08  0.10566000000E+00  0.10566000000E+00 0.  1.
     999900   -1    0    0    0    0 -0.00000000000E+00 -0.00000000000E+00 -0.74505805969E-08  0.93827000000E+00  0.93827000000E+00 0.  1.
     999902    2    1    2    0    0  0.31588663385E-02  0.66111670412E-02  0.12501957939E-01  0.10294391436E+01  0.10293371486E+01 0.  0.
     999903    2    3    3    0    0  0.58247559630E-01  0.10892838190E+00 -0.47923815063E-01  0.13974546003E+00  0.44428942854E-01 0.  0.
         14    1    1    2    0    0 -0.31588663385E-02 -0.66111670412E-02 -0.12501957939E-01  0.14490856375E-01  0.00000000000E+00 0. -1.
     999901    1    3    3    0    0 -0.55088693292E-01 -0.10231721486E+00  0.60425773001E-01  0.88969368359E+00  0.88000000000E+00 0. -1.
        -11    1    4    4    0    0 -0.43609925772E-02  0.29565592392E-01 -0.14924417207E-01  0.33408709340E-01  0.51100000000E-03 0. -1.
         11    1    4    4    0    0  0.62608552207E-01  0.79362789506E-01 -0.32999397856E-01  0.10633675069E+00  0.51100000000E-03 0.  1.
</event>
<event>
 8    1  0.2846344E+004  0.1043930E+01  0.7957747E-01            NaN
         13   -1    0    0    0    0  0.00000000000E+00  0.00000000000E+00  0.74505805969E-08  0.10566000000E+00  0.10566000000E+00 0.  1.
     999900   -1    0    0    0    0 -0.00000000000E+00 -0.00000000000E+00 -0.74505805969E-08  0.93827000000E+00  0.93827000000E+00 0.  1.
     999902    2    1    2    0    0  0.12749801774E-01  0.49257113217E-02  0.67198481459E-03  0.10302452771E+01  0.10301543862E+01 0.  0.
     999903    2    3    3    0    0  0.41709394951E-01  0.83585854732E-01  0.93553453314E-01  0.14139599663E+00  0.50142900772E-01 0.  0.
         14    1    1    2    0    0 -0.12749801774E-01 -0.49257113217E-02 -0.67198481459E-03  0.13684722901E-01  0.00000000000E+00 0.  1.
     999901    1    3    3    0    0 -0.28959593177E-01 -0.78660143410E-01 -0.92881468499E-01  0.88884928047E+00  0.88000000000E+00 0. -1.
        -11    1    4    4    0    0  0.22162995990E-01  0.24197681180E-01  0.64675033578E-01  0.72524804412E-01  0.51100000000E-03 0. -1.
         11    1    4    4    0    0  0.19546398960E-01  0.59388173552E-01  0.28878419736E-01  0.68871192218E-01  0.51100000000E-03 0.  1.
</event>
<event>
 8    1  0.2846344E+004  0.1043930E+01  0.7957747E-01            NaN
         13   -1    0    0    0    0  0.00000000000E+00  0.00000000000E+00  0.74505805969E-08  0.10566000000E+00  0.10566000000E+00 0. -1.
     999900   -1    0    0    0    0 -0.00000000000E+00 -0.00000000000E+00 -0.74505805969E-08  0.93827000000E+00  0.93827000000E+00 0. -1.
     999902    2    1    2    0    0 -0.10581627092E-01 -0.91399941871E-02 -0.65166423962E-02  0.10285034983E+01  0.10283878009E+01 0.  0.
     999903    2    3    3    0    0  0.49548921273E-01  0.10540224400E+00 -0.57525699736E-01  0.13758401201E+00  0.45336801721E-01 0.  0.
         14    1    1    2    0    0  0.10581627092E-01  0.91399941871E-02  0.65166423962E-02  0.15426501670E-01  0.00000000000E+00 0.  1.
     999901    1    3    3    0    0 -0.60130548364E-01 -0.11454223819E+00  0.51009057340E-01  0.89091948632E+00  0.88000000000E+00 0.  1.
        -11    1    4    4    0    0 -0.61314656226E-02  0.32539832790E-01 -0.18379418607E-01  0.37874790270E-01  0.51100000000E-03 0.  1.
         11    1    4    4    0    0  0.55680386895E-01  0.72862411213E-01 -0.39146281129E-01  0.99709221739E-01  0.51100000000E-03 0. -1.
</event>
<event>
 8    1  0.2846344E+004  0.1043930E+01  0.7957747E-01            NaN
         13   -1    0    0    0    0  0.00000000000E+00  0.00000000000E+00  0.74505805969E-08  0.10566000000E+00  0.10566000000E+00 0.  1.
     999900   -1    0    0    0    0 -0.00000000000E+00 -0.00000000000E+00 -0.74505805969E-08  0.93827000000E+00  0.93827000000E+00 0. -1.
     999902    2    1    2    0    0 -0.12157138970E-01 -0.55439888378E-02  0.51900177290E-02  0.10295958407E+01  0.10294960549E+01 0.  0.
     999903    2    3    3    0    0 -0.87565886118E-01 -0.32522627423E-01 -0.94601257606E-01  0.14034186978E+00  0.44954830279E-01 0.  0.
         14    1    1    2    0    0  0.12157138970E-01  0.55439888378E-02 -0.51900177290E-02  0.14334159347E-01  0.00000000000E+00 0.  1.
     999901    1    3    3    0    0  0.75408747148E-01  0.26978638585E-01  0.99791275335E-01  0.88925397088E+00  0.88000000000E+00 0.  1.
        -11    1    4    4    0    0 -0.49231759430E-01 -0.37402435200E-01 -0.40722418119E-01  0.74035699186E-01  0.51100000000E-03 0. -1.
         11    1    4    4    0    0 -0.38334126688E-01  0.48798077772E-02 -0.53878839487E-01  0.66306170590E-01  0.51100000000E-03 0.  1.
</event>
<event>
 8    1  0.2846344E+004  0.1043930E+01  0.7957747E-01            NaN
         13   -1    0    0    0    0  0.00000000000E+00  0.00000000000E+00  0.74505805969E-08  0.10566000000E+00  0.10566000000E+00 0.  1.
     999900   -1    0    0    0    0 -0.00000000000E+00 -0.00000000000E+00 -0.74505805969E-08  0.93827000000E+00  0.93827000000E+00 0. -1.
     999902    2    1    2    0    0 -0.89918323009E-02 -0.59917986110E-02  0.81710895707E-02  0.10303829928E+01  0.10302939340E+01 0.  0.
     999903    2    3    3    0    0  0.65941698539E-01 -0.81980190986E-01  0.81206275385E-01  0.14093180912E+00  0.46885566433E-01 0.  0.
         14    1    1    2    0    0  0.89918323009E-02  0.59917986110E-02 -0.81710895707E-02  0.13547007179E-01  0.00000000000E+00 0. -1.
     999901    1    3    3    0    0 -0.74933530840E-01  0.75988392375E-01 -0.73035185814E-01  0.88945118370E+00  0.88000000000E+00 0.  1.
        -11    1    4    4    0    0  0.16601397106E-01 -0.35263084863E-01  0.57689572635E-02  0.39403471026E-01  0.51100000000E-03 0.  1.
         11    1    4    4    0    0  0.49340301433E-01 -0.46717106123E-01  0.75437318121E-01  0.10152833810E+00  0.51100000000E-03 0. -1.
</event>
<event>
 8    1  0.2846344E+004  0.1043930E+01  0.7957747E-01            NaN
         13   -1    0    0    0    0  0.00000000000E+00  0.00000000000E+00  0.74505805969E-08  0.10566000000E+00  0.10566000000E+00 0.  1.
     999900   -1    0    0    0    0 -0.00000000000E+00 -0.00000000000E+00 -0.74505805969E-08  0.93827000000E+00  0.93827000000E+00 0.  1.
     999902    2    1    2    0    0 -0.17247289785E-02  0.14057724719E-01  0.60433093097E-02  0.10285314318E+01  0.10284161562E+01 0.  0.
     999903    2    3    3    0    0 -0.11131128397E+00 -0.66270337511E-01  0.17478232258E-01  0.13803013027E+00  0.44326839332E-01 0.  0.
         14    1    1    2    0    0  0.17247289785E-02 -0.14057724719E-01 -0.60433093097E-02  0.15398568172E-01  0.00000000000E+00 0.  1.
     999901    1    3    3    0    0  0.10958655500E+00  0.80328062230E-01 -0.11434922948E-01  0.89050130156E+00  0.88000000000E+00 0.  1.
        -11    1    4    4    0    0 -0.10007590246E-01 -0.19023379711E-01 -0.87498159488E-02  0.23213384895E-01  0.51100000000E-03 0.  1.
         11    1    4    4    0    0 -0.10130369373E+00 -0.47246957800E-01  0.26228048206E-01  0.11481674537E+00  0.51100000000E-03 0. -1.
</event>
<event>
 8    1  0.2846344E+004  0.1043930E+01  0.7957747E-01            NaN
         13   -1    0    0    0    0  0.00000000000E+00  0.00000000000E+00  0.74505805969E-08  0.10566000000E+00  0.10566000000E+00 0. -1.
     999900   -1    0    0    0    0 -0.00000000000E+00 -0.00000000000E+00 -0.74505805969E-08  0.93827000000E+00  0.93827000000E+00 0. -1.
     999902    2    1    2    0    0 -0.46189894856E-02 -0.31415842863E-04  0.13945652093E-01  0.10292392797E+01  0.10291344313E+01 0.  0.
     999903    2    3    3    0    0 -0.83431565661E-01 -0.80791540730E-01 -0.65439464793E-01  0.13848924926E+00  0.37534642743E-01 0.  0.
         14    1    1    2    0    0  0.46189894856E-02  0.31415842863E-04 -0.13945652093E-01  0.14690720307E-01  0.00000000000E+00 0.  1.
     999901    1    3    3    0    0  0.78812576176E-01  0.80760124887E-01  0.79385116887E-01  0.89075003043E+00  0.88000000000E+00 0.  1.
        -11    1    4    4    0    0 -0.22954044517E-01 -0.81209973653E-02 -0.27184404996E-01  0.36497832181E-01  0.51100000000E-03 0. -1.
         11    1    4    4    0    0 -0.60477521145E-01 -0.72670543364E-01 -0.38255059797E-01  0.10199141708E+00  0.51100000000E-03 0.  1.
</event>
<event>
 8    1  0.2846344E+004  0.1043930E+01  0.7957747E-01            NaN
         13   -1    0    0    0    0  0.00000000000E+00  0.00000000000E+00  0.74505805969E-08  0.10566000000E+00  0.10566000000E+00 0.  1.
     999900   -1    0    0    0    0 -0.00000000000E+00 -0.00000000000E+00 -0.74505805969E-08  0.93827000000E+00  0.93827000000E+00 0.  1.
     999902    2    1    2    0    0 -0.49812795741E-02  0.72799199700E-02 -0.12586737340E-01  0.10285600183E+01  0.10284451735E+01 0.  0.
     999903    2    3    3    0    0 -0.95563476059E-01  0.79085401050E-01  0.44330085282E-01  0.13917782478E+00  0.44926961096E-01 0.  0.
         14    1    1    2    0    0  0.49812795741E-02 -0.72799199700E-02  0.12586737340E-01  0.15369981712E-01  0.00000000000E+00 0.  1.
     999901    1    3    3    0    0  0.90582196484E-01 -0.71805481080E-01 -0.56916822623E-01  0.88938219351E+00  0.88000000000E+00 0. -1.
        -11    1    4    4    0    0 -0.16409469425E-01  0.36221841366E-01  0.23065417378E-02  0.39835583773E-01  0.51100000000E-03 0. -1.
         11    1    4    4    0    0 -0.79154006634E-01  0.42863559684E-01  0.42023543544E-01  0.99342241005E-01  0.51100000000E-03 0.  1.
</event>
<event>
 8    1  0.2846344E+004  0.1043930E+01  0.7957747E-01            NaN
         13   -1    0    0    0    0  0.00000000000E+00  0.00000000000E+00  0.74505805969E-08  0.10566000000E+00  0.10566000000E+00 0. -1.
     999900   -1    0    0    0    0 -0.00000000000E+00 -0.00000000000E+00 -0.74505805969E-08  0.93827000000E+00  0.93827000000E+00 0. -1.
     999902    2    1    2    0    0  0.81371201127E-02 -0.47692111235E-02  0.90870423603E-02  0.10308329607E+01  0.10307497565E+01 0.  0.
     999903    2    3    3    0    0 -0.12672182280E+00  0.36849032173E-01  0.17803783210E-01  0.13954457070E+00  0.41706605800E-01 0.  0.
         14    1    1    2    0    0 -0.81371201127E-02  0.47692111235E-02 -0.90870423603E-02  0.13097039258E-01  0.00000000000E+00 0.  1.
     999901    1    3    3    0    0  0.13485894292E+00 -0.41618243297E-01 -0.87167408502E-02  0.89128839005E+00  0.88000000000E+00 0. -1.
        -11    1    4    4    0    0 -0.10435614822E+00  0.37021501433E-01 -0.35528526122E-03  0.11073023339E+00  0.51100000000E-03 0.  1.
         11    1    4    4    0    0 -0.22365674588E-01 -0.17246926040E-03  0.18159068472E-01  0.28814337303E-01  0.51100000000E-03 0. -1.
</event>
<event>
 8    1  0.2846344E+004  0.1043930E+01  0.7957747E-01            NaN
         13   -1    0    0    0    0  0.00000000000E+00  0.00000000000E+00  0.74505805969E-08  0.10566000000E+00  0.10566000000E+00 0.  1.
     999900   -1    0    0    0    0 -0.00000000000E+00 -0.00000000000E+00 -0.74505805969E-08  0.93827000000E+00  0.93827000000E+00 0.  1.
     999902    2    1    2    0    0 -0.13731420814E-02 -0.99970119315E-02  0.88750756379E-02  0.10304915204E+01  0.10304038921E+01 0.  0.
     999903    2    3    3    0    0  0.74690901554E-01 -0.10465060698E+00 -0.35688597719E-01  0.14103608993E+00  0.45683939603E-01 0.  0.
         14    1    1    2    0    0  0.13731420814E-02  0.99970119315E-02 -0.88750756379E-02  0.13438479613E-01  0.00000000000E+00 0.  1.
     999901    1    3    3    0    0 -0.76064043636E-01  0.94653595053E-01  0.44563673357E-01  0.88945543046E+00  0.88000000000E+00 0.  1.
        -11    1    4    4    0    0  0.37312600281E-01 -0.17522207107E-01 -0.15891895912E-01  0.44182251621E-01  0.51100000000E-03 0.  1.
         11    1    4    4    0    0  0.37378301273E-01 -0.87128399877E-01 -0.19796701807E-01  0.96853838306E-01  0.51100000000E-03 0. -1.
</event>
<event>
 8    1  0.2846344E+004  0.1043930E+01  0.7957747E-01            NaN
         13   -1    0    0    0    0  0.00000000000E+00  0.00000000000E+00  0.74505805969E-08  0.10566000000E+00  0.10566000000E+00 0.  1.
     999900   -1    0    0    0    0 -0.00000000000E+00 -0.00000000000E+00 -0.74505805969E-08  0.93827000000E+00  0.93827000000E+00 0.  1.
     999902    2    1    2    0    0  0.12220074634E-01 -0.36408120344E-02  0.59165915764E-02  0.10298732652E+01  0.10297773306E+01 0.  0.
     999903    2    3    3    0    0  0.90220473712E-01  0.87417165553E-02 -0.98680178443E-01  0.14016664305E+00  0.41143149128E-01 0.  0.
         14    1    1    2    0    0 -0.12220074634E-01  0.36408120344E-02 -0.59165915764E-02  0.14056734763E-01  0.00000000000E+00 0. -1.
     999901    1    3    3    0    0 -0.78000399078E-01 -0.12382528590E-01  0.10459677002E+00  0.88970662219E+00  0.88000000000E+00 0. -1.
        -11    1    4    4    0    0  0.73822539839E-01 -0.68824378663E-02 -0.60172806747E-01  0.95489073365E-01  0.51100000000E-03 0. -1.
         11    1    4    4    0    0  0.16397933873E-01  0.15624154422E-01 -0.38507371696E-01  0.44677569681E-01  0.51100000000E-03 0.  1.
</event>
<event>
 8    1  0.2846344E+004  0.1043930E+01  0.7957747E-01            NaN
         13   -1    0    0    0    0  0.00000000000E+00  0.00000000000E+00  0.74505805969E-08  0.10566000000E+00  0.10566000000E+00 0. -1.
     999900   -1    0    0    0    0 -0.00000000000E+00 -0.00000000000E+00 -0.74505805969E-08  0.93827000000E+00  0.93827000000E+00 0. -1.
     999902    2    1    2    0    0 -0.56384463430E-02 -0.12587037852E-01 -0.21279700471E-02  0.10299745761E+01  0.10298800287E+01 0.  0.
     999903    2    3    3    0    0  0.99482914322E-01  0.12938340018E-01 -0.85387861543E-01  0.13944986848E+00  0.45726666586E-01 0.  0.
         14    1    1    2    0    0  0.56384463430E-02  0.12587037852E-01  0.21279700471E-02  0.13955423877E-01  0.00000000000E+00 0. -1.
     999901    1    3    3    0    0 -0.10512136066E+00 -0.25525377870E-01  0.83259891496E-01  0.89052470764E+00  0.88000000000E+00 0. -1.
        -11    1    4    4    0    0  0.57300024212E-01  0.21086915592E-01 -0.26519327666E-01  0.66569412231E-01  0.51100000000E-03 0.  1.
         11    1    4    4    0    0  0.42182890109E-01 -0.81485755748E-02 -0.58868533877E-01  0.72880456253E-01  0.51100000000E-03 0. -1.
</event>
<event>
 8    1  0.2846344E+004  0.1043930E+01  0.7957747E-01            NaN
         13   -1    0    0    0    0  0.00000000000E+00  0.00000000000E+00  0.74505805969E-08  0.10566000000E+00  0.10566000000E+00 0.  1.
     999900   -1    0    0    0    0 -0.00000000000E+00 -0.00000000000E+00 -0.74505805969E-08  0.93827000000E+00  0.93827000000E+00 0. -1.
     999902    2    1    2    0    0  0.60316644504E-03  0.13124799000E-01  0.36446136061E-02  0.10302952148E+01  0.10302049904E+01 0.  0.
     999903    2    3    3    0    0 -0.75488862333E-02  0.11610437242E+00 -0.66241034440E-01  0.14150094599E+00  0.45797730218E-01 0.  0.
         14    1    1    2    0    0 -0.60316644504E-03 -0.13124799000E-01 -0.36446136061E-02  0.13634785179E-01  0.00000000000E+00 0.  1.
     999901    1    3    3    0    0  0.81520526784E-02 -0.10297957342E+00  0.69885648046E-01  0.88879426883E+00  0.88000000000E+00 0. -1.
        -11    1    4    4    0    0  0.13552887034E-01  0.41305933715E-01 -0.41069701661E-01  0.59806708843E-01  0.51100000000E-03 0.  1.
         11    1    4    4    0    0 -0.21101773267E-01  0.74798438707E-01 -0.25171332778E-01  0.81694237146E-01  0.51100000000E-03 0. -1.
</event>
<event>
 8    1  0.2846344E+004  0.1043930E+01  0.7957747E-01            NaN
         13   -1    0    0    0    0  0.00000000000E+00  0.00000000000E+00  0.74505805969E-08  0.10566000000E+00  0.10566000000E+00 0. -1.
     999900   -1    0    0    0    0 -0.00000000000E+00 -0.00000000000E+00 -0.74505805969E-08  0.93827000000E+00  0.93827000000E+00 0.  1.
     999902    2    1    2    0    0  0.12959478801E-01  0.11165625404E-02  0.48985025110E-02  0.10300307148E+01  0.10299369317E+01 0.  0.
     999903    2    3    3    0    0 -0.54066085426E-01  0.43520882129E-01  0.11283697999E+00  0.13989518156E+00  0.44958525286E-01 0.  0.
         14    1    1    2    0    0 -0.12959478801E-01 -0.11165625404E-02 -0.48985025110E-02  0.13899285217E-01  0.00000000000E+00 0.  1.
     999901    1    3    3    0    0  0.67025564227E-01 -0.42404319589E-01 -0.10793847748E+00  0.89013553322E+00  0.88000000000E+00 0.  1.
        -11    1    4    4    0    0 -0.40828794918E-01  0.47072021410E-02  0.64753900603E-01  0.76697307715E-01  0.51100000000E-03 0.  1.
         11    1    4    4    0    0 -0.13237290508E-01  0.38813679988E-01  0.48083079391E-01  0.63197873848E-01  0.51100000000E-03 0. -1.
</event>
<event>
 8    1  0.2846344E+004  0.1043930E+01  0.7957747E-01            NaN
         13   -1    0    0    0    0  0.00000000000E+00  0.00000000000E+00  0.74505805969E-08  0.10566000000E+00  0.10566000000E+00 0. -1.
     999900   -1    0    0    0    0 -0.00000000000E+00 -0.00000000000E+00 -0.74505805969E-08  0.93827000000E+00  0.93827000000E+00 0. -1.
     999902    2    1    2    0    0 -0.13751285449E-01 -0.18882897986E-02  0.20238746360E-02  0.10299028991E+01  0.10298073714E+01 0.  0.
     999903    2    3    3    0    0 -0.74139310651E-01  0.82759019425E-01  0.74102402213E-01  0.14085442202E+00  0.44756111402E-01 0.  0.
         14    1    1    2    0    0  0.13751285449E-01  0.18882897986E-02 -0.20238746360E-02  0.14027100855E-01  0.00000000000E+00 0. -1.
     999901    1    3    3    0    0  0.60388025202E-01 -0.84647309224E-01 -0.72078527577E-01  0.88904847713E+00  0.88000000000E+00 0. -1.
        -11    1    4    4    0    0 -0.56991790164E-01  0.49895639011E-01  0.25919841534E-01  0.80060840894E-01  0.51100000000E-03 0. -1.
         11    1    4    4    0    0 -0.17147520486E-01  0.32863380414E-01  0.48182560680E-01  0.60793581123E-01  0.51100000000E-03 0.  1.
</event>
<event>
 8    1  0.2846344E+004  0.1043930E+01  0.7957747E-01            NaN
         13   -1    0    0    0    0  0.00000000000E+00  0.00000000000E+00  0.74505805969E-08  0.10566000000E+00  0.10566000000E+00 0. -1.
     999900   -1    0    0    0    0 -0.00000000000E+00 -0.00000000000E+00 -0.74505805969E-08  0.93827000000E+00  0.93827000000E+00 0. -1.
     999902    2    1    2    0    0  0.61940061123E-02 -0.12202781074E-01  0.13160118235E-02  0.10301820742E+01  0.10300903361E+01 0.  0.
     999903    2    3    3    0    0  0.51505919780E-01 -0.58303691377E-01 -0.10883158948E+00  0.14096277752E+00  0.44429827546E-01 0.  0.
         14    1    1    2    0    0 -0.61940061123E-02  0.12202781074E-01 -0.13160118235E-02  0.13747925836E-01  0.00000000000E+00 0.  1.
     999901    1    3    3    0    0 -0.45311913667E-01  0.46100910303E-01  0.11014760131E+00  0.88921929664E+00  0.88000000000E+00 0.  1.
        -11    1    4    4    0    0 -0.11954217832E-02 -0.29481108095E-01 -0.36794760544E-01  0.47166516643E-01  0.51100000000E-03 0.  1.
         11    1    4    4    0    0  0.52701341563E-01 -0.28822583282E-01 -0.72036828940E-01  0.93796260876E-01  0.51100000000E-03 0. -1.
</event>
<event>
 8    1  0.2846344E+004  0.1043930E+01  0.7957747E-01            NaN
         13   -1    0    0    0    0  0.00000000000E+00  0.00000000000E+00  0.74505805969E-08  0.10566000000E+00  0.10566000000E+00 0. -1.
     999900   -1    0    0    0    0 -0.00000000000E+00 -0.00000000000E+00 -0.74505805969E-08  0.93827000000E+00  0.93827000000E+00 0. -1.
     999902    2    1    2    0    0 -0.27091362549E-02 -0.13207275815E-01  0.69065722959E-02  0.10287816570E+01  0.10286701248E+01 0.  0.
     999903    2    3    3    0    0 -0.66647679899E-01 -0.27741049733E-01 -0.10977178015E+00  0.13866188651E+00  0.44337297810E-01 0.  0.
         14    1    1    2    0    0  0.27091362549E-02  0.13207275815E-01 -0.69065722959E-02  0.15148342965E-01  0.00000000000E+00 0.  1.
     999901    1    3    3    0    0  0.63938543644E-01  0.14533773918E-01  0.11667835245E+00  0.89011977052E+00  0.88000000000E+00 0.  1.
        -11    1    4    4    0    0  0.23811491306E-02 -0.14139694928E-01 -0.17694039911E-01  0.22780276846E-01  0.51100000000E-03 0.  1.
         11    1    4    4    0    0 -0.69028829029E-01 -0.13601354805E-01 -0.92077740240E-01  0.11588160966E+00  0.51100000000E-03 0. -1.
</event>
<event>
 8    1  0.2846344E+004  0.1043930E+01  0.7957747E-01            NaN
         13   -1    0    0    0    0  0.00000000000E+00  0.00000000000E+00  0.74505805969E-08  0.10566000000E+00  0.10566000000E+00 0.  1.
     999900   -1    0    0    0    0 -0.00000000000E+00 -0.00000000000E+00 -0.74505805969E-08  0.93827000000E+00  0.93827000000E+00 0.  1.
     999902    2    1    2    0    0  0.11736560337E-01 -0.52415396063E-02  0.61354023242E-02  0.10296869755E+01  0.10295884633E+01 0.  0.
     999903    2    3    3    0    0  0.11309033002E+00 -0.22349325337E-01 -0.66904410211E-01  0.14069874317E+00  0.45066851845E-01 0.  0.
         14    1    1    2    0    0 -0.11736560337E-01  0.52415396063E-02 -0.61354023242E-02  0.14243024527E-01  0.00000000000E+00 0. -1.
     999901    1    3    3    0    0 -0.10135376969E+00  0.17107785731E-01  0.73039812535E-01  0.88898823231E+00  0.88000000000E+00 0.  1.
        -11    1    4    4    0    0  0.64734308973E-01  0.78009584675E-02 -0.24460044779E-01  0.69641515081E-01  0.51100000000E-03 0. -1.
         11    1    4    4    0    0  0.48356021052E-01 -0.30150283805E-01 -0.42444365432E-01  0.71057228087E-01  0.51100000000E-03 0.  1.
</event>
<event>
 8    1  0.2846344E+004  0.1043930E+01  0.7957747E-01            NaN
         13   -1    0    0    0    0  0.00000000000E+00  0.00000000000E+00  0.74505805969E-08  0.10566000000E+00  0.10566000000E+00 0. -1.
     999900   -1    0    0    0    0 -0.00000000000E+00 -0.00000000000E+00 -0.74505805969E-08  0.93827000000E+00  0.93827000000E+00 0. -1.
     999902    2    1    2    0    0  0.87766179683E-02  0.10750696444E-01  0.24853108314E-02  0.10298309480E+01  0.10297344309E+01 0.  0.
     999903    2    3    3    0    0  0.54981438730E-01 -0.79672443023E-01  0.90153647578E-01  0.13966412832E+00  0.44807720161E-01 0.  0.
         14    1    1    2    0    0 -0.87766179683E-02 -0.10750696444E-01 -0.24853108314E-02  0.14099051987E-01  0.00000000000E+00 0.  1.
     999901    1    3    3    0    0 -0.46204820761E-01  0.90423139467E-01 -0.87668336747E-01  0.89016681969E+00  0.88000000000E+00 0. -1.
        -11    1    4    4    0    0  0.60822130019E-01 -0.67331513758E-01  0.67047047444E-01  0.11282035249E+00  0.51100000000E-03 0. -1.
         11    1    4    4    0    0 -0.58406912896E-02 -0.12340929265E-01  0.23106600134E-01  0.26843775826E-01  0.51100000000E-03 0.  1.
</event>
<event>
 8    1  0.2846344E+004  0.1043930E+01  0.7957747E-01            NaN
         13   -1    0    0    0    0  0.00000000000E+00  0.00000000000E+00  0.74505805969E-08  0.10566000000E+00  0.10566000000E+00 0. -1.
     999900   -1    0    0    0    0 -0.00000000000E+00 -0.00000000000E+00 -0.74505805969E-08  0.93827000000E+00  0.93827000000E+00 0. -1.
     999902    2    1    2    0    0 -0.37822838022E-02 -0.10209934482E-01  0.10275400852E-01  0.10289589514E+01  0.10288500335E+01 0.  0.
     999903    2    3    3    0    0  0.50859388417E-01 -0.88965974478E-01  0.84187660396E-01  0.14067338456E+00  0.46902206304E-01 0.  0.
         14    1    1    2    0    0  0.37822838022E-02  0.10209934482E-01 -0.10275400852E-01  0.14971048579E-01  0.00000000000E+00 0.  1.
     999901    1    3    3    0    0 -0.54641672219E-01  0.78756039996E-01 -0.73912259543E-01  0.88828556686E+00  0.88000000000E+00 0. -1.
        -11    1    4    4    0    0  0.51745092557E-01 -0.46203363045E-01  0.58743049794E-01  0.90902763328E-01  0.51100000000E-03 0.  1.
         11    1    4    4    0    0 -0.88570414006E-03 -0.42762611433E-01  0.25444610601E-01  0.49770621234E-01  0.51100000000E-03 0. -1.
</event>
<event>
 8    1  0.2846344E+004  0.1043930E+01  0.7957747E-01            NaN
         13   -1    0    0    0    0  0.00000000000E+00  0.00000000000E+00  0.74505805969E-08  0.10566000000E+00  0.10566000000E+00 0.  1.
     999900   -1    0    0    0    0 -0.00000000000E+00 -0.00000000000E+00 -0.74505805969E-08  0.93827000000E+00  0.93827000000E+00 0. -1.
     999902    2    1    2    0    0  0.86645670271E-02  0.51965627510E-02  0.10135093611E-01  0.10296191961E+01  0.10295197375E+01 0.  0.
     999903    2    3    3    0    0  0.11941651312E+00  0.32007357733E-01 -0.48782959697E-01  0.14031826316E+00  0.44996258334E-01 0.  0.
         14    1    1    2    0    0 -0.86645670271E-02 -0.51965627510E-02 -0.10135093611E-01  0.14310803915E-01  0.00000000000E+00 0. -1.
     999901    1    3    3    0    0 -0.11075194610E+00 -0.26810794982E-01  0.58918053308E-01  0.88930093292E+00  0.88000000000E+00 0.  1.
        -11    1    4    4    0    0  0.94877861291E-01  0.21243828763E-01 -0.56469457702E-01  0.11243740302E+00  0.51100000000E-03 0. -1.
         11    1    4    4    0    0  0.24538651834E-01  0.10763528970E-01  0.76864980048E-02  0.27880860143E-01  0.51100000000E-03 0.  1.
</event>
<event>
 8    1  0.2846344E+004  0.1043930E+01  0.7957747E-01            NaN
         13   -1    0    0    0    0  0.00000000000E+00  0.00000000000E+00  0.74505805969E-08  0.10566000000E+00  0.10566000000E+00 0. -1.
     999900   -1    0    0    0    0 -0.00000000000E+00 -0.00000000000E+00 -0.74505805969E-08  0.93827000000E+00  0.93827000000E+00 0. -1.
     999902    2    1    2    0    0 -0.54208876604E-02  0.12397271563E-01  0.36059819785E-02  0.10299270906E+01  0.10298318943E+01 0.  0.
     999903    2    3    3    0    0 -0.11550829479E+00 -0.58350141784E-02  0.65984359772E-01  0.14068993694E+00  0.45425863400E-01 0.  0.
         14    1    1    2    0    0  0.54208876604E-02 -0.12397271563E-01 -0.36059819785E-02  0.14002909386E-01  0.00000000000E+00 0. -1.
     999901    1    3    3    0    0  0.11008740713E+00  0.18232285742E-01 -0.62378377793E-01  0.88923715367E+00  0.88000000000E+00 0. -1.
        -11    1    4    4    0    0 -0.13128211983E-01  0.14326356751E-01  0.60672953762E-02  0.20363389743E-01  0.51100000000E-03 0.  1.
         11    1    4    4    0    0 -0.10238008281E+00 -0.20161370930E-01  0.59917064396E-01  0.12032654720E+00  0.51100000000E-03 0. -1.
</event>
<event>
 8    1  0.2846344E+004  0.1043930E+01  0.7957747E-01            NaN
         13   -1    0    0    0    0  0.00000000000E+00  0.00000000000E+00  0.74505805969E-08  0.10566000000E+00  0.10566000000E+00 0. -1.
     999900   -1    0    0    0    0 -0.00000000000E+00 -0.00000000000E+00 -0.74505805969E-08  0.93827000000E+00  0.93827000000E+00 0. -1.
     999902    2    1    2    0    0 -0.66242779501E-02 -0.64971828415E-02  0.95946521670E-02  0.10305826484E+01  0.10304962123E+01 0.  0.
     999903    2    3    3    0    0 -0.73532599604E-02 -0.30175648963E-01  0.13100080459E+00  0.14193161738E+00  0.44930312544E-01 0.  0.
         14    1    1    2    0    0  0.66242779501E-02  0.64971828415E-02 -0.95946521670E-02  0.13347351552E-01  0.00000000000E+00 0.  1.
     999901    1    3    3    0    0  0.72898201029E-03  0.23678466121E-01 -0.12140615243E+00  0.88865103107E+00  0.88000000000E+00 0. -1.
        -11    1    4    4    0    0  0.11706276051E-01 -0.32220110619E-01  0.97214234049E-01  0.10308268938E+00  0.51100000000E-03 0. -1.
         11    1    4    4    0    0 -0.19059536011E-01  0.20444616563E-02  0.33786570545E-01  0.38848927998E-01  0.51100000000E-03 0.  1.
</event>
<event>
 8    1  0.2846344E+004  0.1043930E+01  0.7957747E-01            NaN
         13   -1    0    0    0    0  0.00000000000E+00  0.00000000000E+00  0.74505805969E-08  0.10566000000E+00  0.10566000000E+00 0. -1.
     999900   -1    0    0    0    0 -0.00000000000E+00 -0.00000000000E+00 -0.74505805969E-08  0.93827000000E+00  0.93827000000E+00 0.  1.
     999902    2    1    2    0    0  0.99168971836E-02 -0.89391002477E-02 -0.24931367883E-02  0.10303480968E+01  0.10302585756E+01 0.  0.
     999903    2    3    3    0    0  0.13193397748E+00 -0.25492894328E-02 -0.25419108390E-01  0.14161045401E+00  0.44657768903E-01 0.  0.
         14    1    1    2    0    0 -0.99168971836E-02  0.89391002477E-02  0.24931367883E-02  0.13581903182E-01  0.00000000000E+00 0. -1.
     999901    1    3    3    0    0 -0.12201708030E+00 -0.63898108149E-02  0.22925971601E-01  0.88873764281E+00  0.88000000000E+00 0. -1.
        -11    1    4    4    0    0  0.72932177252E-01 -0.21476525553E-01 -0.23635540384E-01  0.79619366480E-01  0.51100000000E-03 0.  1.
         11    1    4    4    0    0  0.59001800230E-01  0.18927236120E-01 -0.17835680058E-02  0.61991087532E-01  0.51100000000E-03 0. -1.
</event>
<event>
 8    1  0.2846344E+004  0.1043930E+01  0.7957747E-01            NaN
         13   -1    0    0    0    0  0.00000000000E+00  0.00000000000E+00  0.74505805969E-08  0.10566000000E+00  0.10566000000E+00 0. -1.
     999900   -1    0    0    0    0 -0.00000000000E+00 -0.00000000000E+00 -0.74505805969E-08  0.93827000000E+00  0.93827000000E+00 0.  1.
     999902    2    1    2    0    0  0.10957079126E-01  0.65806417621E-02  0.62205176238E-02  0.10297153150E+01  0.10296171972E+01 0.  0.
     999903    2    3    3    0    0 -0.61420765202E-01 -0.67554892405E-01 -0.93758981736E-01  0.13801439541E+00  0.43829816322E-01 0.  0.
         14    1    1    2    0    0 -0.10957079126E-01 -0.65806417621E-02 -0.62205176238E-02  0.14214684959E-01  0.00000000000E+00 0.  1.
     999901    1    3    3    0    0  0.72377844327E-01  0.74135534168E-01  0.99979499360E-01  0.89170091963E+00  0.88000000000E+00 0. -1.
        -11    1    4    4    0    0 -0.56757090769E-01 -0.42303274820E-01 -0.47963674118E-01  0.85508535065E-01  0.51100000000E-03 0. -1.
         11    1    4    4    0    0 -0.46636744323E-02 -0.25251617586E-01 -0.45795307618E-01  0.52505860347E-01  0.51100000000E-03 0.  1.
</event>
<event>
 8    1  0.2846344E+004  0.1043930E+01  0.7957747E-01            NaN
         13   -1    0    0    0    0  0.00000000000E+00  0.00000000000E+00  0.74505805969E-08  0.10566000000E+00  0.10566000000E+00 0. -1.
     999900   -1    0    0    0    0 -0.00000000000E+00 -0.00000000000E+00 -0.74505805969E-08  0.93827000000E+00  0.93827000000E+00 0. -1.
     999902    2    1    2    0    0 -0.12769227356E-01  0.35559473165E-02  0.27495881923E-02  0.10303927121E+01  0.10303037819E+01 0.  0.
     999903    2    3    3    0    0 -0.71827396521E-02 -0.24575505156E-02  0.13302965441E+00  0.14076342601E+00  0.45385260229E-01 0.  0.
         14    1    1    2    0    0  0.12769227356E-01 -0.35559473165E-02 -0.27495881923E-02  0.13537287905E-01  0.00000000000E+00 0.  1.
     999901    1    3    3    0    0 -0.55864877038E-02  0.60134978320E-02 -0.13028006622E+00  0.88962928608E+00  0.88000000000E+00 0. -1.
        -11    1    4    4    0    0  0.20802624426E-02  0.19555280729E-01  0.83335915465E-01  0.85626353558E-01  0.51100000000E-03 0.  1.
         11    1    4    4    0    0 -0.92630020948E-02 -0.22012831245E-01  0.49693738949E-01  0.55137072455E-01  0.51100000000E-03 0. -1.
</event>
<event>
 8    1  0.2846344E+004  0.1043930E+01  0.7957747E-01            NaN
         13   -1    0    0    0    0  0.00000000000E+00  0.00000000000E+00  0.74505805969E-08  0.10566000000E+00  0.10566000000E+00 0. -1.
     999900   -1    0    0    0    0 -0.00000000000E+00 -0.00000000000E+00 -0.74505805969E-08  0.93827000000E+00  0.93827000000E+00 0. -1.
     999902    2    1    2    0    0 -0.50842339546E-02  0.12611441906E-01  0.39226554511E-02  0.10297777872E+01  0.10296805358E+01 0.  0.
     999903    2    3    3    0    0 -0.17141797849E-02  0.52575734031E-02  0.13275442501E+00  0.14036052768E+00  0.45241130432E-01 0.  0.
         14    1    1    2    0    0  0.50842339546E-02 -0.12611441906E-01 -0.39226554511E-02  0.14152212818E-01  0.00000000000E+00 0.  1.
     999901    1    3    3    0    0 -0.33700541698E-02  0.73538685029E-02 -0.12883176955E+00  0.88941725950E+00  0.88000000000E+00 0. -1.
        -11    1    4    4    0    0 -0.28409985863E-02 -0.17088252218E-01  0.25736520530E-01  0.31027556250E-01  0.51100000000E-03 0.  1.
         11    1    4    4    0    0  0.11268188014E-02  0.22345825621E-01  0.10701790448E+00  0.10933297143E+00  0.51100000000E-03 0. -1.
</event>
<event>
 8    1  0.2846344E+004  0.1043930E+01  0.7957747E-01            NaN
         13   -1    0    0    0    0  0.00000000000E+00  0.00000000000E+00  0.74505805969E-08  0.10566000000E+00  0.10566000000E+00 0. -1.
     999900   -1    0    0    0    0 -0.00000000000E+00 -0.00000000000E+00 -0.74505805969E-08  0.93827000000E+00  0.93827000000E+00 0. -1.
     999902    2    1    2    0    0  0.13181403271E-01 -0.21129479671E-02 -0.45114874957E-02  0.10298386033E+01  0.10297421917E+01 0.  0.
     999903    2    3    3    0    0 -0.75432933697E-01 -0.83369228365E-01  0.66580210162E-01  0.13882282719E+00  0.46886002588E-01 0.  0.
         14    1    1    2    0    0 -0.13181403271E-01  0.21129479671E-02  0.45114874957E-02  0.14091396692E-01  0.00000000000E+00 0.  1.
     999901    1    3    3    0    0  0.88614336968E-01  0.81256280398E-01 -0.71091697657E-01  0.89101577612E+00  0.88000000000E+00 0. -1.
        -11    1    4    4    0    0 -0.70633820205E-01 -0.46364301585E-01  0.45687648677E-01  0.96054189814E-01  0.51100000000E-03 0.  1.
         11    1    4    4    0    0 -0.47991134917E-02 -0.37004926781E-01  0.20892561484E-01  0.42768637373E-01  0.51100000000E-03 0. -1.
</event>
<event>
 8    1  0.2846344E+004  0.1043930E+01  0.7957747E-01            NaN
         13   -1    0    0    0    0  0.00000000000E+00  0.00000000000E+00  0.74505805969E-08  0.10566000000E+00  0.10566000000E+00 0.  1.
     999900   -1    0    0    0    0 -0.00000000000E+00 -0.00000000000E+00 -0.74505805969E-08  0.93827000000E+00  0.93827000000E+00 0. -1.
     999902    2    1    2    0    0 -0.36695224043E-02  0.14003479999E-01  0.14012116666E-02  0.10293860583E+01  0.10292833093E+01 0.  0.
     999903    2    3    3    0    0  0.43018547724E-01  0.70711336724E-02 -0.12512484391E+00  0.13908460592E+00  0.42281256636E-01 0.  0.
         14    1    1    2    0    0  0.36695224043E-02 -0.14003479999E-01 -0.14012116666E-02  0.14543941725E-01  0.00000000000E+00 0. -1.
     999901    1    3    3    0    0 -0.46688070128E-01  0.69323463268E-02  0.12652605557E+00  0.89030145235E+00  0.88000000000E+00 0.  1.
        -11    1    4    4    0    0  0.51109251841E-01  0.31531237453E-02 -0.99148765957E-01  0.11159227897E+00  0.51100000000E-03 0. -1.
         11    1    4    4    0    0 -0.80907041171E-02  0.39180099271E-02 -0.25976077950E-01  0.27492326958E-01  0.51100000000E-03 0.  1.
</event>
<event>
 8    1  0.2846344E+004  0.1043930E+01  0.7957747E-01            NaN
         13   -1    0    0    0    0  0.00000000000E+00  0.00000000000E+00  0.74505805969E-08  0.10566000000E+00  0.10566000000E+00 0.  1.
     999900   -1    0    0    0    0 -0.00000000000E+00 -0.00000000000E+00 -0.74505805969E-08  0.93827000000E+00  0.93827000000E+00 0.  1.
     999902    2    1    2    0    0  0.41680109796E-02  0.16598483257E-02 -0.13211378378E-01  0.10299776550E+01  0.10298831496E+01 0.  0.
     999903    2    3    3    0    0  0.10074160513E+00 -0.83603262515E-01 -0.29037390479E-01  0.14045715507E+00  0.41793131710E-01 0.  0.
         14    1    1    2    0    0 -0.41680109796E-02 -0.16598483257E-02  0.13211378378E-01  0.13952344987E-01  0.00000000000E+00 0.  1.
     999901    1    3    3    0    0 -0.96573594147E-01  0.85263110841E-01  0.15826012101E-01  0.88952049994E+00  0.88000000000E+00 0.  1.
        -11    1    4    4    0    0  0.73889035639E-01 -0.80343242457E-01 -0.30582156988E-01  0.11335852700E+00  0.51100000000E-03 0.  1.
         11    1    4    4    0    0  0.26852569488E-01 -0.32600200584E-02  0.15447665084E-02  0.27098628073E-01  0.51100000000E-03 0. -1.
</event>
<event>
 8    1  0.2846344E+004  0.1043930E+01  0.7957747E-01            NaN
         13   -1    0    0    0    0  0.00000000000E+00  0.00000000000E+00  0.74505805969E-08  0.10566000000E+00  0.10566000000E+00 0. -1.
     999900   -1    0    0    0    0 -0.00000000000E+00 -0.00000000000E+00 -0.74505805969E-08  0.93827000000E+00  0.93827000000E+00 0. -1.
     999902    2    1    2    0    0  0.13495799553E-02  0.74641065800E-02 -0.11660045258E-01  0.10300198990E+01  0.10299259690E+01 0.  0.
     999903    2    3    3    0    0  0.87812331270E-01  0.82376636952E-01 -0.59222220018E-01  0.14134118599E+00  0.44420081887E-01 0.  0.
         14    1    1    2    0    0 -0.13495799553E-02 -0.74641065800E-02  0.11660045258E-01  0.13910100953E-01  0.00000000000E+00 0. -1.
     999901    1    3    3    0    0 -0.86462751315E-01 -0.74912530372E-01  0.47562174760E-01  0.88867871306E+00  0.88000000000E+00 0.  1.
        -11    1    4    4    0    0  0.20311729372E-01  0.17032472203E-01 -0.35742603546E-01  0.44502430144E-01  0.51100000000E-03 0. -1.
         11    1    4    4    0    0  0.67500601898E-01  0.65344164749E-01 -0.23479616472E-01  0.96838755847E-01  0.51100000000E-03 0.  1.
</event>
<event>
 8    1  0.2846344E+004  0.1043930E+01  0.7957747E-01            NaN
         13   -1    0    0    0    0  0.00000000000E+00  0.00000000000E+00  0.74505805969E-08  0.10566000000E+00  0.10566000000E+00 0.  1.
     999900   -1    0    0    0    0 -0.00000000000E+00 -0.00000000000E+00 -0.74505805969E-08  0.93827000000E+00  0.93827000000E+00 0.  1.
     999902    2    1    2    0    0 -0.13694725548E-01 -0.42382204098E-02 -0.13187201124E-02  0.10295339227E+01  0.10294332668E+01 0.  0.
     999903    2    3    3    0    0  0.26085609389E-01  0.80846715341E-01  0.10025004176E+00  0.13872634819E+00  0.44477841808E-01 0.  0.
         14    1    1    2    0    0  0.13694725548E-01  0.42382204098E-02  0.13187201124E-02  0.14396077341E-01  0.00000000000E+00 0. -1.
     999901    1    3    3    0    0 -0.39780334937E-01 -0.85084935751E-01 -0.10156876187E+00  0.89080757447E+00  0.88000000000E+00 0.  1.
        -11    1    4    4    0    0  0.20371552621E-01  0.55232828745E-01  0.35230485886E-01  0.68608408990E-01  0.51100000000E-03 0. -1.
         11    1    4    4    0    0  0.57140567674E-02  0.25613886596E-01  0.65019555871E-01  0.70117939202E-01  0.51100000000E-03 0.  1.
</event>
<event>
 8    1  0.2846344E+004  0.1043930E+01  0.7957747E-01            NaN
         13   -1    0    0    0    0  0.00000000000E+00  0.00000000000E+00  0.74505805969E-08  0.10566000000E+00  0.10566000000E+00 0.  1.
     999900   -1    0    0    0    0 -0.00000000000E+00 -0.00000000000E+00 -0.74505805969E-08  0.93827000000E+00  0.93827000000E+00 0. -1.
     999902    2    1    2    0    0 -0.13546489964E-01  0.45654512288E-03  0.21183370856E-02  0.10302112837E+01  0.10301199377E+01 0.  0.
     999903    2    3    3    0    0  0.59223672594E-01 -0.11836656829E+00  0.24515637951E-02  0.13924857976E+00  0.43198019838E-01 0.  0.
         14    1    1    2    0    0  0.13546489964E-01 -0.45654512288E-03 -0.21183370856E-02  0.13718716259E-01  0.00000000000E+00 0. -1.
     999901    1    3    3    0    0 -0.72770162558E-01  0.11882311341E+00 -0.33322670957E-03  0.89096270398E+00  0.88000000000E+00 0. -1.
        -11    1    4    4    0    0  0.47069338694E-01 -0.48702677317E-01  0.85391600724E-02  0.68268966585E-01  0.51100000000E-03 0.  1.
         11    1    4    4    0    0  0.12154333900E-01 -0.69663890969E-01 -0.60875962773E-02  0.70979613178E-01  0.51100000000E-03 0. -1.
</event>
<event>
 8    1  0.2846344E+004  0.1043930E+01  0.7957747E-01            NaN
         13   -1    0    0    0    0  0.00000000000E+00  0.00000000000E+00  0.74505805969E-08  0.10566000000E+00  0.10566000000E+00 0. -1.
     999900   -1    0    0    0    0 -0.00000000000E+00 -0.00000000000E+00 -0.74505805969E-08  0.93827000000E+00  0.93827000000E+00 0.  1.
     999902    2    1    2    0    0 -0.12890966516E-01  0.56285915117E-02 -0.28254358673E-02  0.10295828348E+01  0.10294828666E+01 0.  0.
     999903    2    3    3    0    0 -0.11572918544E-01  0.99979006207E-01  0.84065269801E-01  0.14028326061E+00  0.49826594256E-01 0.  0.
         14    1    1    2    0    0  0.12890966516E-01 -0.56285915117E-02  0.28254358673E-02  0.14347165154E-01  0.00000000000E+00 0.  1.
     999901    1    3    3    0    0 -0.13180479716E-02 -0.94350414696E-01 -0.86890705668E-01  0.88929957424E+00  0.88000000000E+00 0.  1.
        -11    1    4    4    0    0  0.17317722133E-01  0.58477433695E-01  0.37874456900E-01  0.71793101046E-01  0.51100000000E-03 0.  1.
         11    1    4    4    0    0 -0.28890640677E-01  0.41501572513E-01  0.46190812900E-01  0.68490159564E-01  0.51100000000E-03 0. -1.
</event>
<event>
 8    1  0.2846344E+004  0.1043930E+01  0.7957747E-01            NaN
         13   -1    0    0    0    0  0.00000000000E+00  0.00000000000E+00  0.74505805969E-08  0.10566000000E+00  0.10566000000E+00 0.  1.
     999900   -1    0    0    0    0 -0.00000000000E+00 -0.00000000000E+00 -0.74505805969E-08  0.93827000000E+00  0.93827000000E+00 0. -1.
     999902    2    1    2    0    0  0.15236148406E-01  0.86466437861E-03  0.10527013051E-01  0.10253906940E+01  0.10252230828E+01 0.  0.
     999903    2    3    3    0    0 -0.21547229820E-01  0.12021242614E+00  0.39815177065E-01  0.13609057499E+00  0.44945364222E-01 0.  0.
         14    1    1    2    0    0 -0.15236148406E-01 -0.86466437861E-03 -0.10527013051E-01  0.18539305987E-01  0.00000000000E+00 0.  1.
     999901    1    3    3    0    0  0.36783378226E-01 -0.11934776176E+00 -0.29288164015E-01  0.88930011903E+00  0.88000000000E+00 0.  1.
        -11    1    4    4    0    0  0.66541942056E-02  0.73812840681E-01  0.11994186116E-01  0.75078195047E-01  0.51100000000E-03 0. -1.
         11    1    4    4    0    0 -0.28201424026E-01  0.46399585454E-01  0.27820990949E-01  0.61012379938E-01  0.51100000000E-03 0.  1.
</event>
<event>
 8    1  0.2846344E+004  0.1043930E+01  0.7957747E-01            NaN
         13   -1    0    0    0    0  0.00000000000E+00  0.00000000000E+00  0.74505805969E-08  0.10566000000E+00  0.10566000000E+00 0.  1.
     999900   -1    0    0    0    0 -0.00000000000E+00 -0.00000000000E+00 -0.74505805969E-08  0.93827000000E+00  0.93827000000E+00 0.  1.
     999902    2    1    2    0    0 -0.31643421052E-02 -0.12980369881E-01 -0.56265879215E-02  0.10294330502E+01  0.10293309687E+01 0.  0.
     999903    2    3    3    0    0 -0.95879051500E-01  0.55488802293E-01 -0.71966571939E-01  0.13944145561E+00  0.44642271109E-01 0.  0.
         14    1    1    2    0    0  0.31643421052E-02  0.12980369881E-01  0.56265879215E-02  0.14496949847E-01  0.00000000000E+00 0.  1.
     999901    1    3    3    0    0  0.92714709395E-01 -0.68469172175E-01  0.66339984018E-01  0.88999159454E+00  0.88000000000E+00 0.  1.
        -11    1    4    4    0    0 -0.60672312499E-01  0.46295050889E-01 -0.25597619653E-01  0.80497580669E-01  0.51100000000E-03 0. -1.
         11    1    4    4    0    0 -0.35206739001E-01  0.91937514044E-02 -0.46368952287E-01  0.58943874942E-01  0.51100000000E-03 0.  1.
</event>
<event>
 8    1  0.2846344E+004  0.1043930E+01  0.7957747E-01            NaN
         13   -1    0    0    0    0  0.00000000000E+00  0.00000000000E+00  0.74505805969E-08  0.10566000000E+00  0.10566000000E+00 0. -1.
     999900   -1    0    0    0    0 -0.00000000000E+00 -0.00000000000E+00 -0.74505805969E-08  0.93827000000E+00  0.93827000000E+00 0. -1.
     999902    2    1    2    0    0 -0.14327866962E-01 -0.41437993151E-03 -0.55539970242E-02  0.10285577404E+01  0.10284428613E+01 0.  0.
     999903    2    3    3    0    0 -0.77888145554E-02  0.65575373471E-01 -0.11422962944E+00  0.13939645028E+00  0.44968509752E-01 0.  0.
         14    1    1    2    0    0  0.14327866962E-01  0.41437993151E-03  0.55539970242E-02  0.15372259605E-01  0.00000000000E+00 0.  1.
     999901    1    3    3    0    0 -0.65390524066E-02 -0.65989753402E-01  0.10867563242E+00  0.88916129012E+00  0.88000000000E+00 0.  1.
        -11    1    4    4    0    0  0.80549573023E-02  0.51321900602E-02 -0.45553115651E-01  0.46546419610E-01  0.51100000000E-03 0. -1.
         11    1    4    4    0    0 -0.15843771858E-01  0.60443183410E-01 -0.68676513793E-01  0.92850030669E-01  0.51100000000E-03 0.  1.
</event>
<event>
 8    1  0.2846344E+004  0.1043930E+01  0.7957747E-01            NaN
         13   -1    0    0    0    0  0.00000000000E+00  0.00000000000E+00  0.74505805969E-08  0.10566000000E+00  0.10566000000E+00 0.  1.
     999900   -1    0    0    0    0 -0.00000000000E+00 -0.00000000000E+00 -0.74505805969E-08  0.93827000000E+00  0.93827000000E+00 0. -1.
     999902    2    1    2    0    0  0.11602584257E-01 -0.45900779924E-02 -0.65050336917E-02  0.10298586020E+01  0.10297624658E+01 0.  0.
     999903    2    3    3    0    0 -0.10063187613E+00  0.36002989477E-01  0.75049672015E-01  0.13806516112E+00  0.44794482947E-01 0.  0.
         14    1    1    2    0    0 -0.11602584257E-01  0.45900779924E-02  0.65050336917E-02  0.14071397967E-01  0.00000000000E+00 0.  1.
     999901    1    3    3    0    0  0.11223446038E+00 -0.40593067469E-01 -0.81554705707E-01  0.89179344091E+00  0.88000000000E+00 0. -1.
        -11    1    4    4    0    0 -0.77663864905E-01  0.40605662265E-01  0.73846721051E-01  0.11460407956E+00  0.51100000000E-03 0. -1.
         11    1    4    4    0    0 -0.22968011223E-01 -0.46026727885E-02  0.12029509643E-02  0.23461081568E-01  0.51100000000E-03 0.  1.
</event>
<event>
 8    1  0.2846344E+004  0.1043930E+01  0.7957747E-01            NaN
         13   -1    0    0    0    0  0.00000000000E+00  0.00000000000E+00  0.74505805969E-08  0.10566000000E+00  0.10566000000E+00 0. -1.
     999900   -1    0    0    0    0 -0.00000000000E+00 -0.00000000000E+00 -0.74505805969E-08  0.93827000000E+00  0.93827000000E+00 0. -1.
     999902    2    1    2    0    0 -0.10785270092E-01  0.61214799550E-02 -0.47315191170E-02  0.10306566492E+01  0.10305711750E+01 0.  0.
     999903    2    3    3    0    0  0.12545638785E+00  0.14742568568E-01  0.37364957764E-01  0.13913647228E+00  0.44790280963E-01 0.  0.
         14    1    1    2    0    0  0.10785270092E-01 -0.61214799550E-02  0.47315191170E-02  0.13273350781E-01  0.00000000000E+00 0.  1.
     999901    1    3    3    0    0 -0.13624165794E+00 -0.86210886131E-02 -0.42096476881E-01  0.89152017694E+00  0.88000000000E+00 0.  1.
        -11    1    4    4    0    0  0.87357333178E-01 -0.76556386010E-02  0.12954285779E-01  0.88645288106E-01  0.51100000000E-03 0.  1.
         11    1    4    4    0    0  0.38099054672E-01  0.22398207169E-01  0.24410671984E-01  0.50491184172E-01  0.51100000000E-03 0. -1.
</event>
<event>
 8    1  0.2846344E+004  0.1043930E+01  0.7957747E-01            NaN
         13   -1    0    0    0    0  0.00000000000E+00  0.00000000000E+00  0.74505805969E-08  0.10566000000E+00  0.10566000000E+00 0. -1.
     999900   -1    0    0    0    0 -0.00000000000E+00 -0.00000000000E+00 -0.74505805969E-08  0.93827000000E+00  0.93827000000E+00 0.  1.
     999902    2    1    2    0    0  0.12110334513E-01 -0.12452149684E-01 -0.33894172634E-02  0.10262324187E+01  0.10260798082E+01 0.  0.
     999903    2    3    3    0    0 -0.28593065307E-01 -0.48289032624E-01 -0.11686180755E+00  0.13729089517E+00  0.45196391202E-01 0.  0.
         14    1    1    2    0    0 -0.12110334513E-01  0.12452149684E-01  0.33894172634E-02  0.17697581279E-01  0.00000000000E+00 0. -1.
     999901    1    3    3    0    0  0.40703399820E-01  0.35836882940E-01  0.11347239028E+00  0.88894152355E+00  0.88000000000E+00 0. -1.
        -11    1    4    4    0    0 -0.27144403663E-01 -0.55760582912E-01 -0.11260851195E+00  0.12855737763E+00  0.51100000000E-03 0. -1.
         11    1    4    4    0    0 -0.14486616438E-02  0.74715502878E-02 -0.42532955948E-02  0.87335175433E-02  0.51100000000E-03 0.  1.
</event>
<event>
 8    1  0.2846344E+004  0.1043930E+01  0.7957747E-01            NaN
         13   -1    0    0    0    0  0.00000000000E+00  0.00000000000E+00  0.74505805969E-08  0.10566000000E+00  0.10566000000E+00 0. -1.
     999900   -1    0    0    0    0 -0.00000000000E+00 -0.00000000000E+00 -0.74505805969E-08  0.93827000000E+00  0.93827000000E+00 0.  1.
     999902    2    1    2    0    0  0.68587979334E-02  0.11717021587E-01  0.30593482720E-02  0.10300126973E+01  0.10299186692E+01 0.  0.
     999903    2    3    3    0    0  0.43216449329E-01 -0.11355261250E+00 -0.49976053367E-01  0.13881849066E+00  0.44845402662E-01 0.  0.
         14    1    1    2    0    0 -0.68587979334E-02 -0.11717021587E-01 -0.30593482720E-02  0.13917302749E-01  0.00000000000E+00 0.  1.
     999901    1    3    3    0    0 -0.36357651396E-01  0.12526963409E+00  0.53035401639E-01  0.89119420659E+00  0.88000000000E+00 0. -1.
        -11    1    4    4    0    0  0.39812642215E-02 -0.48034649075E-01 -0.38291848881E-01  0.61560578199E-01  0.51100000000E-03 0. -1.
         11    1    4    4    0    0  0.39235185108E-01 -0.65517963426E-01 -0.11684204487E-01  0.77257912458E-01  0.51100000000E-03 0.  1.
</event>
<event>
 8    1  0.2846344E+004  0.1043930E+01  0.7957747E-01            NaN
         13   -1    0    0    0    0  0.00000000000E+00  0.00000000000E+00  0.74505805969E-08  0.10566000000E+00  0.10566000000E+00 0. -1.
     999900   -1    0    0    0    0 -0.00000000000E+00 -0.00000000000E+00 -0.74505805969E-08  0.93827000000E+00  0.93827000000E+00 0. -1.
     999902    2    1    2    0    0  0.11362934428E-01  0.85588566106E-02  0.12133899188E-02  0.10296526536E+01  0.10295536627E+01 0.  0.
     999903    2    3    3    0    0  0.85549393531E-01 -0.65656825234E-01 -0.76971968700E-01  0.13997599972E+00  0.45156163464E-01 0.  0.
         14    1    1    2    0    0 -0.11362934428E-01 -0.85588566106E-02 -0.12133899188E-02  0.14277346406E-01  0.00000000000E+00 0. -1.
     999901    1    3    3    0    0 -0.74186459103E-01  0.74215681844E-01  0.78185358619E-01  0.88967665387E+00  0.88000000000E+00 0.  1.
        -11    1    4    4    0    0  0.46305054974E-01 -0.20038936846E-01 -0.58004454091E-01  0.76879743246E-01  0.51100000000E-03 0.  1.
         11    1    4    4    0    0  0.39244338557E-01 -0.45617888387E-01 -0.18967514609E-01  0.63096256475E-01  0.51100000000E-03 0. -1.
</event>
<event>
 8    1  0.2846344E+004  0.1043930E+01  0.7957747E-01            NaN
         13   -1    0    0    0    0  0.00000000000E+00  0.00000000000E+00  0.74505805969E-08  0.10566000000E+00  0.10566000000E+00 0.  1.
     999900   -1    0    0    0    0 -0.00000000000E+00 -0.00000000000E+00 -0.74505805969E-08  0.93827000000E+00  0.93827000000E+00 0.  1.
     999902    2    1    2    0    0  0.69751718624E-02 -0.56061939385E-02 -0.14164877033E-01  0.10271751149E+01  0.10270384562E+01 0.  0.
     999903    2    3    3    0    0 -0.10510415438E+00  0.47878939804E-01  0.55516853569E-01  0.13572798889E+00  0.44729071014E-01 0.  0.
         14    1    1    2    0    0 -0.69751718624E-02  0.56061939385E-02  0.14164877033E-01  0.16754885089E-01  0.00000000000E+00 0.  1.
     999901    1    3    3    0    0  0.11207932625E+00 -0.53485133743E-01 -0.69681730602E-01  0.89144712602E+00  0.88000000000E+00 0. -1.
        -11    1    4    4    0    0 -0.72920974060E-01  0.19512423061E-01  0.15508001026E-01  0.77064663293E-01  0.51100000000E-03 0. -1.
         11    1    4    4    0    0 -0.32183180323E-01  0.28366516743E-01  0.40008852543E-01  0.58663325602E-01  0.51100000000E-03 0.  1.
</event>
<event>
 8    1  0.2846344E+004  0.1043930E+01  0.7957747E-01            NaN
         13   -1    0    0    0    0  0.00000000000E+00  0.00000000000E+00  0.74505805969E-08  0.10566000000E+00  0.10566000000E+00 0. -1.
     999900   -1    0    0    0    0 -0.00000000000E+00 -0.00000000000E+00 -0.74505805969E-08  0.93827000000E+00  0.93827000000E+00 0. -1.
     999902    2    1    2    0    0  0.23408420342E-02 -0.12429205627E-01  0.10147590931E-01  0.10277146278E+01  0.10275866960E+01 0.  0.
     999903    2    3    3    0    0  0.69138868189E-02 -0.85617602412E-02  0.13126129666E+00  0.13939914353E+00  0.45623323486E-01 0.  0.
         14    1    1    2    0    0 -0.23408420342E-02  0.12429205627E-01 -0.10147590931E-01  0.16215372202E-01  0.00000000000E+00 0.  1.
     999901    1    3    3    0    0 -0.45730447848E-02 -0.38674453859E-02 -0.12111370573E+00  0.88831548427E+00  0.88000000000E+00 0. -1.
        -11    1    4    4    0    0  0.41796111646E-02  0.18610672767E-01  0.64592152924E-01  0.67351567396E-01  0.51100000000E-03 0.  1.
         11    1    4    4    0    0  0.27342756544E-02 -0.27172433008E-01  0.66669143739E-01  0.72047576135E-01  0.51100000000E-03 0. -1.
</event>
<event>
 8    1  0.2846344E+004  0.1043930E+01  0.7957747E-01            NaN
         13   -1    0    0    0    0  0.00000000000E+00  0.00000000000E+00  0.74505805969E-08  0.10566000000E+00  0.10566000000E+00 0. -1.
     999900   -1    0    0    0    0 -0.00000000000E+00 -0.00000000000E+00 -0.74505805969E-08  0.93827000000E+00  0.93827000000E+00 0. -1.
     999902    2    1    2    0    0 -0.10362053558E-01 -0.53297984513E-02  0.70044225597E-02  0.10303343816E+01  0.10302446782E+01 0.  0.
     999903    2    3    3    0    0  0.10012959591E+00  0.79567685671E-01  0.31196236855E-01  0.13904249262E+00  0.44751055616E-01 0.  0.
         14    1    1    2    0    0  0.10362053558E-01  0.53297984513E-02 -0.70044225597E-02  0.13595618444E-01  0.00000000000E+00 0.  1.
     999901    1    3    3    0    0 -0.11049164947E+00 -0.84897484122E-01 -0.24191814295E-01  0.89129188894E+00  0.88000000000E+00 0. -1.
        -11    1    4    4    0    0  0.70539901870E-01  0.55549810167E-01 -0.17790347727E-05  0.89788196828E-01  0.51100000000E-03 0.  1.
         11    1    4    4    0    0  0.29589694040E-01  0.24017875503E-01  0.31198015889E-01  0.49254295787E-01  0.51100000000E-03 0. -1.
</event>
<event>
 8    1  0.2846344E+004  0.1043930E+01  0.7957747E-01            NaN
         13   -1    0    0    0    0  0.00000000000E+00  0.00000000000E+00  0.74505805969E-08  0.10566000000E+00  0.10566000000E+00 0. -1.
     999900   -1    0    0    0    0 -0.00000000000E+00 -0.00000000000E+00 -0.74505805969E-08  0.93827000000E+00  0.93827000000E+00 0.  1.
     999902    2    1    2    0    0  0.12269710256E-01  0.60835821723E-02 -0.85177157464E-02  0.10278021594E+01  0.10276756159E+01 0.  0.
     999903    2    3    3    0    0  0.20822320675E-01 -0.74838353655E-01 -0.10499281497E+00  0.13879768716E+00  0.46978277424E-01 0.  0.
         14    1    1    2    0    0 -0.12269710256E-01 -0.60835821723E-02  0.85177157464E-02  0.16127840629E-01  0.00000000000E+00 0. -1.
     999901    1    3    3    0    0 -0.85526104192E-02  0.80921935828E-01  0.96475099221E-01  0.88900447221E+00  0.88000000000E+00 0. -1.
        -11    1    4    4    0    0 -0.12967464557E-01 -0.35145040516E-01 -0.33088426606E-01  0.49984338609E-01  0.51100000000E-03 0.  1.
         11    1    4    4    0    0  0.33789785232E-01 -0.39693313139E-01 -0.71904388362E-01  0.88813348551E-01  0.51100000000E-03 0. -1.
</event>
<event>
 8    1  0.2846344E+004  0.1043930E+01  0.7957747E-01            NaN
         13   -1    0    0    0    0  0.00000000000E+00  0.00000000000E+00  0.74505805969E-08  0.10566000000E+00  0.10566000000E+00 0. -1.
     999900   -1    0    0    0    0 -0.00000000000E+00 -0.00000000000E+00 -0.74505805969E-08  0.93827000000E+00  0.93827000000E+00 0.  1.
     999902    2    1    2    0    0 -0.11939151310E-01  0.16199983262E-03 -0.68696487009E-02  0.10301545998E+01  0.10300624922E+01 0.  0.
     999903    2    3    3    0    0 -0.83269077955E-01  0.36492943373E-01 -0.99029176437E-01  0.14172830883E+00  0.44884980554E-01 0.  0.
         14    1    1    2    0    0  0.11939151310E-01 -0.16199983262E-03  0.68696487009E-02  0.13775400220E-01  0.00000000000E+00 0.  1.
     999901    1    3    3    0    0  0.71329926644E-01 -0.36330943540E-01  0.92159527736E-01  0.88842629095E+00  0.88000000000E+00 0. -1.
        -11    1    4    4    0    0 -0.64931195619E-01  0.89504253068E-02 -0.80466775400E-01  0.10378503429E+00  0.51100000000E-03 0.  1.
         11    1    4    4    0    0 -0.18337882335E-01  0.27542518066E-01 -0.18562401036E-01  0.37943274545E-01  0.51100000000E-03 0. -1.
</event>
<event>
 8    1  0.2846344E+004  0.1043930E+01  0.7957747E-01            NaN
         13   -1    0    0    0    0  0.00000000000E+00  0.00000000000E+00  0.74505805969E-08  0.10566000000E+00  0.10566000000E+00 0.  1.
     999900   -1    0    0    0    0 -0.00000000000E+00 -0.00000000000E+00 -0.74505805969E-08  0.93827000000E+00  0.93827000000E+00 0.  1.
     999902    2    1    2    0    0 -0.85685069166E-03  0.26262269344E-02  0.13963845187E-01  0.10296955266E+01  0.10295971335E+01 0.  0.
     999903    2    3    3    0    0  0.10406531057E+00  0.75682802988E-01  0.33535766376E-01  0.14024120885E+00  0.44558652384E-01 0.  0.
         14    1    1    2    0    0  0.85685069166E-03 -0.26262269344E-02 -0.13963845187E-01  0.14234473416E-01  0.00000000000E+00 0. -1.
     999901    1    3    3    0    0 -0.10492216126E+00 -0.73056576053E-01 -0.19571921189E-01  0.88945431773E+00  0.88000000000E+00 0. -1.
        -11    1    4    4    0    0  0.50870463371E-01  0.26340541786E-01 -0.60176001781E-02  0.57602958414E-01  0.51100000000E-03 0.  1.
         11    1    4    4    0    0  0.53194847200E-01  0.49342261201E-01  0.39553366554E-01  0.82638250440E-01  0.51100000000E-03 0. -1.
</event>
<event>
 8    1  0.2846344E+004  0.1043930E+01  0.7957747E-01            NaN
         13   -1    0    0    0    0  0.00000000000E+00  0.00000000000E+00  0.74505805969E-08  0.10566000000E+00  0.10566000000E+00 0.  1.
     999900   -1    0    0    0    0 -0.00000000000E+00 -0.00000000000E+00 -0.74505805969E-08  0.93827000000E+00  0.93827000000E+00 0. -1.
     999902    2    1    2    0    0  0.54984101690E-02 -0.15073347587E-02  0.14014070973E-01  0.10288005996E+01  0.10286893481E+01 0.  0.
     999903    2    3    3    0    0 -0.42304717243E-01  0.35127987973E-01 -0.11711844096E+00  0.13704781905E+00  0.45185294647E-01 0.  0.
         14    1    1    2    0    0 -0.54984101690E-02  0.15073347587E-02 -0.14014070973E-01  0.15129400441E-01  0.00000000000E+00 0. -1.
     999901    1    3    3    0    0  0.47803127412E-01 -0.36635322731E-01  0.13113251194E+00  0.89175278051E+00  0.88000000000E+00 0.  1.
        -11    1    4    4    0    0  0.29123188752E-02 -0.79971937497E-02 -0.17236689599E-01  0.19230218367E-01  0.51100000000E-03 0.  1.
         11    1    4    4    0    0 -0.45217036118E-01  0.43125181722E-01 -0.99881751364E-01  0.11781760068E+00  0.51100000000E-03 0. -1.
</event>
<event>
 8    1  0.2846344E+004  0.1043930E+01  0.7957747E-01            NaN
         13   -1    0    0    0    0  0.00000000000E+00  0.00000000000E+00  0.74505805969E-08  0.10566000000E+00  0.10566000000E+00 0. -1.
     999900   -1    0    0    0    0 -0.00000000000E+00 -0.00000000000E+00 -0.74505805969E-08  0.93827000000E+00  0.93827000000E+00 0.  1.
     999902    2    1    2    0    0  0.10309514578E-01  0.67167466370E-02 -0.63635246932E-02  0.10300773749E+01  0.10299842246E+01 0.  0.
     999903    2    3    3    0    0  0.81721696367E-01 -0.10472987682E+00 -0.24788548113E-02  0.14016999754E+00  0.44662072639E-01 0.  0.
         14    1    1    2    0    0 -0.10309514578E-01 -0.67167466370E-02  0.63635246932E-02  0.13852625121E-01  0.00000000000E+00 0.  1.
     999901    1    3    3    0    0 -0.71412181789E-01  0.11144662346E+00 -0.38846698819E-02  0.88990737734E+00  0.88000000000E+00 0.  1.
        -11    1    4    4    0    0  0.62279741208E-01 -0.78791436279E-01  0.17701003571E-01  0.10198256343E+00  0.51100000000E-03 0.  1.
         11    1    4    4    0    0  0.19441955159E-01 -0.25938440542E-01 -0.20179858383E-01  0.38187434104E-01  0.51100000000E-03 0. -1.
</event>
<event>
 8    1  0.2846344E+004  0.1043930E+01  0.7957747E-01            NaN
         13   -1    0    0    0    0  0.00000000000E+00  0.00000000000E+00  0.74505805969E-08  0.10566000000E+00  0.10566000000E+00 0.  1.
     999900   -1    0    0    0    0 -0.00000000000E+00 -0.00000000000E+00 -0.74505805969E-08  0.93827000000E+00  0.93827000000E+00 0.  1.
     999902    2    1    2    0    0 -0.11261384702E-01 -0.27878573071E-02  0.60152459996E-02  0.10308619428E+01  0.10307791088E+01 0.  0.
     999903    2    3    3    0    0  0.29452736713E-01  0.29529868129E-01 -0.12636718452E+00  0.13944330775E+00  0.41668860558E-01 0.  0.
         14    1    1    2    0    0  0.11261384702E-01  0.27878573071E-02 -0.60152459996E-02  0.13068057170E-01  0.00000000000E+00 0. -1.
     999901    1    3    3    0    0 -0.40714121414E-01 -0.32317725436E-01  0.13238243052E+00  0.89141863508E+00  0.88000000000E+00 0. -1.
        -11    1    4    4    0    0  0.31815605179E-01  0.34159799450E-01 -0.78802308556E-01  0.91592519270E-01  0.51100000000E-03 0. -1.
         11    1    4    4    0    0 -0.23628684662E-02 -0.46299313205E-02 -0.47564875965E-01  0.47850788479E-01  0.51100000000E-03 0.  1.
</event>
<event>
 8    1  0.2846344E+004  0.1043930E+01  0.7957747E-01            NaN
         13   -1    0    0    0    0  0.00000000000E+00  0.00000000000E+00  0.74505805969E-08  0.10566000000E+00  0.10566000000E+00 0. -1.
     999900   -1    0    0    0    0 -0.00000000000E+00 -0.00000000000E+00 -0.74505805969E-08  0.93827000000E+00  0.93827000000E+00 0. -1.
     999902    2    1    2    0    0  0.11903025240E-01  0.14478531105E-02 -0.73773624811E-02  0.10298515141E+01  0.10297552803E+01 0.  0.
     999903    2    3    3    0    0  0.98346009609E-02 -0.21104751724E-01  0.12923002284E+00  0.13902354187E+00  0.45661980554E-01 0.  0.
         14    1    1    2    0    0 -0.11903025240E-01 -0.14478531105E-02  0.73773624811E-02  0.14078485916E-01  0.00000000000E+00 0.  1.
     999901    1    3    3    0    0  0.20684242793E-02  0.22552604835E-01 -0.13660738532E+00  0.89082797222E+00  0.88000000000E+00 0. -1.
        -11    1    4    4    0    0  0.25188687031E-01 -0.21559602551E-01  0.64868448177E-01  0.72852337686E-01  0.51100000000E-03 0.  1.
         11    1    4    4    0    0 -0.15354086070E-01  0.45485082677E-03  0.64361574664E-01  0.66171204179E-01  0.51100000000E-03 0. -1.
</event>
<event>
 8    1  0.2846344E+004  0.1043930E+01  0.7957747E-01            NaN
         13   -1    0    0    0    0  0.00000000000E+00  0.00000000000E+00  0.74505805969E-08  0.10566000000E+00  0.10566000000E+00 0. -1.
     999900   -1    0    0    0    0 -0.00000000000E+00 -0.00000000000E+00 -0.74505805969E-08  0.93827000000E+00  0.93827000000E+00 0.  1.
     999902    2    1    2    0    0  0.11369467841E-01 -0.86369245412E-02 -0.43712656877E-03  0.10296453108E+01  0.10295462174E+01 0.  0.
     999903    2    3    3    0    0 -0.45480937772E-02  0.10704152588E+00  0.75668565485E-01  0.13867564300E+00  0.45018093467E-01 0.  0.
         14    1    1    2    0    0 -0.11369467841E-01  0.86369245412E-02  0.43712656876E-03  0.14284689151E-01  0.00000000000E+00 0. -1.
     999901    1    3    3    0    0  0.15917561618E-01 -0.11567845042E+00 -0.76105692054E-01  0.89096966785E+00  0.88000000000E+00 0.  1.
        -11    1    4    4    0    0  0.22377403900E-02  0.19952919228E-01 -0.39641591091E-02  0.20471984423E-01  0.51100000000E-03 0. -1.
         11    1    4    4    0    0 -0.67858341671E-02  0.87088606654E-01  0.79632724594E-01  0.11820365858E+00  0.51100000000E-03 0.  1.
</event>
<event>
 8    1  0.2846344E+004  0.1043930E+01  0.7957747E-01            NaN
         13   -1    0    0    0    0  0.00000000000E+00  0.00000000000E+00  0.74505805969E-08  0.10566000000E+00  0.10566000000E+00 0.  1.
     999900   -1    0    0    0    0 -0.00000000000E+00 -0.00000000000E+00 -0.74505805969E-08  0.93827000000E+00  0.93827000000E+00 0.  1.
     999902    2    1    2    0    0 -0.99334344444E-02  0.71066148995E-02  0.60971793435E-02  0.10302788941E+01  0.10301884522E+01 0.  0.
     999903    2    3    3    0    0 -0.11454066953E-01  0.10159639034E+00 -0.85083451791E-01  0.14053480876E+00  0.45363162629E-01 0.  0.
         14    1    1    2    0    0  0.99334344444E-02 -0.71066148995E-02 -0.60971793435E-02  0.13651105858E-01  0.00000000000E+00 0.  1.
     999901    1    3    3    0    0  0.15206325087E-02 -0.94489775440E-01  0.91180631134E-01  0.88974408539E+00  0.88000000000E+00 0. -1.
        -11    1    4    4    0    0  0.69295969878E-02  0.89547728081E-01 -0.66678711804E-01  0.11186208762E+00  0.51100000000E-03 0. -1.
         11    1    4    4    0    0 -0.18383663941E-01  0.12048662259E-01 -0.18404739987E-01  0.28672721132E-01  0.51100000000E-03 0.  1.
</event>
<event>
 8    1  0.2846344E+004  0.1043930E+01  0.7957747E-01            NaN
         13   -1    0    0    0    0  0.00000000000E+00  0.00000000000E+00  0.74505805969E-08  0.10566000000E+00  0.10566000000E+00 0.  1.
     999900   -1    0    0    0    0 -0.00000000000E+00 -0.00000000000E+00 -0.74505805969E-08  0.93827000000E+00  0.93827000000E+00 0.  1.
     999902    2    1    2    0    0  0.96572437793E-03 -0.10091420354E-01  0.80250709514E-02  0.10310005316E+01  0.10309194562E+01 0.  0.
     999903    2    3    3    0    0 -0.91368916058E-01 -0.63423603293E-02 -0.95624488819E-01  0.14011166510E+00  0.45811914173E-01 0.  0.
         14    1    1    2    0    0 -0.96572437793E-03  0.10091420354E-01 -0.80250709514E-02  0.12929468361E-01  0.00000000000E+00 0. -1.
     999901    1    3    3    0    0  0.92334640436E-01 -0.37490600245E-02  0.10364955977E+00  0.89088886653E+00  0.88000000000E+00 0. -1.
        -11    1    4    4    0    0 -0.26877571850E-01  0.12060555627E-01 -0.53017723139E-01  0.60654768637E-01  0.51100000000E-03 0. -1.
         11    1    4    4    0    0 -0.64491344207E-01 -0.18402915957E-01 -0.42606765680E-01  0.79456896466E-01  0.51100000000E-03 0.  1.
</event>
<event>
 8    1  0.2846344E+004  0.1043930E+01  0.7957747E-01            NaN
         13   -1    0    0    0    0  0.00000000000E+00  0.00000000000E+00  0.74505805969E-08  0.10566000000E+00  0.10566000000E+00 0. -1.
     999900   -1    0    0    0    0 -0.00000000000E+00 -0.00000000000E+00 -0.74505805969E-08  0.93827000000E+00  0.93827000000E+00 0. -1.
     999902    2    1    2    0    0  0.12187616333E-01  0.56451897152E-02  0.19009709853E-02  0.10303646084E+01  0.10302753061E+01 0.  0.
     999903    2    3    3    0    0  0.38117274894E-01 -0.11961306193E+00  0.42832772047E-01  0.14017508411E+00  0.45323245847E-01 0.  0.
         14    1    1    2    0    0 -0.12187616333E-01 -0.56451897152E-02 -0.19009709853E-02  0.13565391608E-01  0.00000000000E+00 0.  1.
     999901    1    3    3    0    0 -0.25929658562E-01  0.12525825165E+00 -0.40931801061E-01  0.89018952428E+00  0.88000000000E+00 0. -1.
        -11    1    4    4    0    0 -0.38153570509E-02 -0.33732753160E-02  0.11655407179E-01  0.12729712223E-01  0.51100000000E-03 0.  1.
         11    1    4    4    0    0  0.41932631945E-01 -0.11623978662E+00  0.31177364868E-01  0.12744537189E+00  0.51100000000E-03 0. -1.
</event>
<event>
 8    1  0.2846344E+004  0.1043930E+01  0.7957747E-01            NaN
         13   -1    0    0    0    0  0.00000000000E+00  0.00000000000E+00  0.74505805969E-08  0.10566000000E+00  0.10566000000E+00 0.  1.
     999900   -1    0    0    0    0 -0.00000000000E+00 -0.00000000000E+00 -0.74505805969E-08  0.93827000000E+00  0.93827000000E+00 0. -1.
     999902    2    1    2    0    0  0.90048031178E-02 -0.40528826447E-03  0.19196259223E-01  0.10227227582E+01  0.10225028572E+01 0.  0.
     999903    2    3    3    0    0 -0.80345060671E-01  0.20494619862E-01 -0.91319744115E-01  0.13107597199E+00  0.44342491473E-01 0.  0.
         14    1    1    2    0    0 -0.90048031178E-02  0.40528826447E-03 -0.19196259223E-01  0.21207241827E-01  0.00000000000E+00 0. -1.
     999901    1    3    3    0    0  0.89349863788E-01 -0.20899908127E-01  0.11051600334E+00  0.89164678618E+00  0.88000000000E+00 0.  1.
        -11    1    4    4    0    0 -0.25505566426E-01  0.27733227794E-01 -0.27685923467E-01  0.46759355446E-01  0.51100000000E-03 0. -1.
         11    1    4    4    0    0 -0.54839494245E-01 -0.72386079313E-02 -0.63633820648E-01  0.84316616542E-01  0.51100000000E-03 0.  1.
</event>
<event>
 8    1  0.2846344E+004  0.1043930E+01  0.7957747E-01            NaN
         13   -1    0    0    0    0  0.00000000000E+00  0.00000000000E+00  0.74505805969E-08  0.10566000000E+00  0.10566000000E+00 0. -1.
     999900   -1    0    0    0    0 -0.00000000000E+00 -0.00000000000E+00 -0.74505805969E-08  0.93827000000E+00  0.93827000000E+00 0.  1.
     999902    2    1    2    0    0 -0.13355403553E-01 -0.79749452613E-03 -0.20352981321E-03  0.10305492591E+01  0.10304623871E+01 0.  0.
     999903    2    3    3    0    0 -0.10906041886E+00  0.72060739276E-01 -0.31538716198E-01  0.14181439086E+00  0.45052255547E-01 0.  0.
         14    1    1    2    0    0  0.13355403553E-01  0.79749452613E-03  0.20352981321E-03  0.13380740860E-01  0.00000000000E+00 0. -1.
     999901    1    3    3    0    0  0.95705015303E-01 -0.72858233802E-01  0.31335186384E-01  0.88873486828E+00  0.88000000000E+00 0. -1.
        -11    1    4    4    0    0 -0.50299191025E-01  0.59172241105E-01 -0.23360644839E-01  0.81100823568E-01  0.51100000000E-03 0.  1.
         11    1    4    4    0    0 -0.58761227831E-01  0.12888498171E-01 -0.81780713589E-02  0.60713567294E-01  0.51100000000E-03 0. -1.
</event>
<event>
 8    1  0.2846344E+004  0.1043930E+01  0.7957747E-01            NaN
         13   -1    0    0    0    0  0.00000000000E+00  0.00000000000E+00  0.74505805969E-08  0.10566000000E+00  0.10566000000E+00 0.  1.
     999900   -1    0    0    0    0 -0.00000000000E+00 -0.00000000000E+00 -0.74505805969E-08  0.93827000000E+00  0.93827000000E+00 0.  1.
     999902    2    1    2    0    0 -0.11659975987E-01  0.77771848879E-02 -0.28075674565E-02  0.10296358725E+01  0.10295366472E+01 0.  0.
     999903    2    3    3    0    0  0.72540919107E-01 -0.10769399273E+00 -0.10871069964E-01  0.13807072985E+00  0.45663609832E-01 0.  0.
         14    1    1    2    0    0  0.11659975987E-01 -0.77771848879E-02  0.28075674565E-02  0.14294127460E-01  0.00000000000E+00 0.  1.
     999901    1    3    3    0    0 -0.84200895094E-01  0.11547117762E+00  0.80635025080E-02  0.89156514269E+00  0.88000000000E+00 0. -1.
        -11    1    4    4    0    0  0.11534982592E-01 -0.43373087359E-01  0.12109841187E-01  0.46488599732E-01  0.51100000000E-03 0.  1.
         11    1    4    4    0    0  0.61005936515E-01 -0.64320905372E-01 -0.22980911152E-01  0.91582130114E-01  0.51100000000E-03 0. -1.
</event>
<event>
 8    1  0.2846344E+004  0.1043930E+01  0.7957747E-01            NaN
         13   -1    0    0    0    0  0.00000000000E+00  0.00000000000E+00  0.74505805969E-08  0.10566000000E+00  0.10566000000E+00 0.  1.
     999900   -1    0    0    0    0 -0.00000000000E+00 -0.00000000000E+00 -0.74505805969E-08  0.93827000000E+00  0.93827000000E+00 0.  1.
     999902    2    1    2    0    0  0.60821567901E-02  0.81660938019E-02  0.53128051320E-02  0.10324450700E+01  0.10323811888E+01 0.  0.
     999903    2    3    3    0    0 -0.73214346891E-01  0.47361944738E-01 -0.10212388180E+00  0.14150910599E+00  0.44632336309E-01 0.  0.
         14    1    1    2    0    0 -0.60821567901E-02 -0.81660938019E-02 -0.53128051320E-02  0.11484930020E-01  0.00000000000E+00 0. -1.
     999901    1    3    3    0    0  0.79296503681E-01 -0.39195850936E-01  0.10743668693E+00  0.89093596399E+00  0.88000000000E+00 0.  1.
        -11    1    4    4    0    0 -0.43047601352E-01  0.31459402128E-02 -0.34470086962E-01  0.55239849186E-01  0.51100000000E-03 0.  1.
         11    1    4    4    0    0 -0.30166745540E-01  0.44216004525E-01 -0.67653794841E-01  0.86269256806E-01  0.51100000000E-03 0. -1.
</event>
<event>
 8    1  0.2846344E+004  0.1043930E+01  0.7957747E-01            NaN
         13   -1    0    0    0    0  0.00000000000E+00  0.00000000000E+00  0.74505805969E-08  0.10566000000E+00  0.10566000000E+00 0. -1.
     999900   -1    0    0    0    0 -0.00000000000E+00 -0.00000000000E+00 -0.74505805969E-08  0.93827000000E+00  0.93827000000E+00 0. -1.
     999902    2    1    2    0    0  0.62167221274E-02 -0.50589916415E-03 -0.11995762546E-01  0.10304095752E+01  0.10303208679E+01 0.  0.
     999903    2    3    3    0    0  0.78835365288E-01 -0.10563224278E+00 -0.22120619080E-01  0.14112473433E+00  0.45317582866E-01 0.  0.
         14    1    1    2    0    0 -0.62167221274E-02  0.50589916415E-03  0.11995762546E-01  0.13520424809E-01  0.00000000000E+00 0. -1.
     999901    1    3    3    0    0 -0.72618643160E-01  0.10512634362E+00  0.10124856535E-01  0.88928484086E+00  0.88000000000E+00 0.  1.
        -11    1    4    4    0    0  0.21507582293E-01 -0.22515851167E-01  0.13654523558E-01  0.34003628989E-01  0.51100000000E-03 0.  1.
         11    1    4    4    0    0  0.57327782995E-01 -0.83116391617E-01 -0.35775142638E-01  0.10712110534E+00  0.51100000000E-03 0. -1.
</event>
<event>
 7    1  0.2846344E+004  0.1043930E+01  0.7957747E-01            NaN
         13   -1    0    0    0    0  0.00000000000E+00  0.00000000000E+00  0.74505805969E-08  0.10566000000E+00  0.10566000000E+00 0. -1.
     999900   -1    0    0    0    0 -0.00000000000E+00 -0.00000000000E+00 -0.74505805969E-08  0.93827000000E+00  0.93827000000E+00 0.  1.
     999903    2    1    2    0    0 -0.43674351348E-01  0.10714654803E+00  0.24115420673E-01  0.12658896289E+00  0.45336302137E-01 0.  0.
         14    1    1    2    0    0  0.15835295470E-01 -0.21964693552E-01  0.16761507294E-01  0.31845760664E-01  0.00000000000E+00 0.  1.
     999901    1    1    2    0    0  0.27839055877E-01 -0.85181854478E-01 -0.40876927967E-01  0.88549527644E+00  0.88000000000E+00 0.  1.
        -11    1    3    3    0    0 -0.10838361954E-01  0.43316386350E-01  0.31174561658E-01  0.54460020490E-01  0.51100000000E-03 0. -1.
         11    1    3    3    0    0 -0.32835989394E-01  0.63830161681E-01 -0.70591409842E-02  0.72128942402E-01  0.51100000000E-03 0.  1.
</event>
<event>
 8    1  0.2846344E+004  0.1043930E+01  0.7957747E-01            NaN
         13   -1    0    0    0    0  0.00000000000E+00  0.00000000000E+00  0.74505805969E-08  0.10566000000E+00  0.10566000000E+00 0.  1.
     999900   -1    0    0    0    0 -0.00000000000E+00 -0.00000000000E+00 -0.74505805969E-08  0.93827000000E+00  0.93827000000E+00 0. -1.
     999902    2    1    2    0    0  0.87288050947E-02  0.56507712175E-02 -0.56041826213E-02  0.10321177133E+01  0.10320501170E+01 0.  0.
     999903    2    3    3    0    0  0.86108419689E-01  0.88598190111E-01 -0.56515433914E-01  0.14337712431E+00  0.45811639038E-01 0.  0.
         14    1    1    2    0    0 -0.87288050947E-02 -0.56507712175E-02  0.56041826213E-02  0.11812286679E-01  0.00000000000E+00 0.  1.
     999901    1    3    3    0    0 -0.77379614594E-01 -0.82947418893E-01  0.50911251293E-01  0.88874058902E+00  0.88000000000E+00 0. -1.
        -11    1    4    4    0    0  0.67908387343E-01  0.57526322480E-01 -0.18292542254E-01  0.90860910587E-01  0.51100000000E-03 0. -1.
         11    1    4    4    0    0  0.18200032346E-01  0.31071867631E-01 -0.38222891660E-01  0.52516213718E-01  0.51100000000E-03 0.  1.
</event>
<event>
 8    1  0.2846344E+004  0.1043930E+01  0.7957747E-01            NaN
         13   -1    0    0    0    0  0.00000000000E+00  0.00000000000E+00  0.74505805969E-08  0.10566000000E+00  0.10566000000E+00 0.  1.
     999900   -1    0    0    0    0 -0.00000000000E+00 -0.00000000000E+00 -0.74505805969E-08  0.93827000000E+00  0.93827000000E+00 0.  1.
     999902    2    1    2    0    0 -0.40058274425E-02  0.68222170605E-02  0.84576930614E-02  0.10323489003E+01  0.10322839387E+01 0.  0.
     999903    2    3    3    0    0 -0.79633968743E-01  0.10869743203E+00 -0.58885523339E-02  0.14313352144E+00  0.47914811941E-01 0.  0.
         14    1    1    2    0    0  0.40058274425E-02 -0.68222170605E-02 -0.84576930614E-02  0.11581099734E-01  0.00000000000E+00 0. -1.
     999901    1    3    3    0    0  0.75628141300E-01 -0.10187521497E+00  0.14346245395E-01  0.88921537883E+00  0.88000000000E+00 0. -1.
        -11    1    4    4    0    0 -0.18409765028E-01  0.57491330750E-01 -0.16578104467E-01  0.62604051215E-01  0.51100000000E-03 0.  1.
         11    1    4    4    0    0 -0.61224203715E-01  0.51206101282E-01  0.10689552133E-01  0.80529470226E-01  0.51100000000E-03 0. -1.
</event>
<event>
 8    1  0.2846344E+004  0.1043930E+01  0.7957747E-01            NaN
         13   -1    0    0    0    0  0.00000000000E+00  0.00000000000E+00  0.74505805969E-08  0.10566000000E+00  0.10566000000E+00 0.  1.
     999900   -1    0    0    0    0 -0.00000000000E+00 -0.00000000000E+00 -0.74505805969E-08  0.93827000000E+00  0.93827000000E+00 0.  1.
     999902    2    1    2    0    0 -0.87716161489E-02 -0.10475559834E-01  0.18542506662E-02  0.10301417133E+01  0.10300494322E+01 0.  0.
     999903    2    3    3    0    0  0.77358308069E-01  0.32294255472E-01 -0.10121920990E+00  0.13892245904E+00  0.45021044073E-01 0.  0.
         14    1    1    2    0    0  0.87716161489E-02  0.10475559834E-01 -0.18542506662E-02  0.13788286667E-01  0.00000000000E+00 0. -1.
     999901    1    3    3    0    0 -0.86129924218E-01 -0.42769815306E-01  0.10307346057E+00  0.89121925429E+00  0.88000000000E+00 0. -1.
        -11    1    4    4    0    0  0.68022430431E-01  0.11489661045E-01 -0.58316719845E-01  0.90333627665E-01  0.51100000000E-03 0. -1.
         11    1    4    4    0    0  0.93358776379E-02  0.20804594427E-01 -0.42902490055E-01  0.48588831375E-01  0.51100000000E-03 0.  1.
</event>
<event>
 8    1  0.2846344E+004  0.1043930E+01  0.7957747E-01            NaN
         13   -1    0    0    0    0  0.00000000000E+00  0.00000000000E+00  0.74505805969E-08  0.10566000000E+00  0.10566000000E+00 0.  1.
     999900   -1    0    0    0    0 -0.00000000000E+00 -0.00000000000E+00 -0.74505805969E-08  0.93827000000E+00  0.93827000000E+00 0.  1.
     999902    2    1    2    0    0  0.90622299806E-02 -0.10525956296E-01  0.49427997920E-03  0.10300316519E+01  0.10299378815E+01 0.  0.
     999903    2    3    3    0    0 -0.65741220114E-01  0.84611595019E-01  0.75561184634E-01  0.13858241047E+00  0.44883870530E-01 0.  0.
         14    1    1    2    0    0 -0.90622299806E-02  0.10525956296E-01 -0.49427997920E-03  0.13898348134E-01  0.00000000000E+00 0. -1.
     999901    1    3    3    0    0  0.74803450095E-01 -0.95137551315E-01 -0.75066904654E-01  0.89144924140E+00  0.88000000000E+00 0.  1.
        -11    1    4    4    0    0 -0.31888379347E-01  0.73960632912E-01  0.55484171743E-01  0.97804899638E-01  0.51100000000E-03 0. -1.
         11    1    4    4    0    0 -0.33852840767E-01  0.10650962107E-01  0.20077012891E-01  0.40777510829E-01  0.51100000000E-03 0.  1.
</event>
<event>
 8    1  0.2846344E+004  0.1043930E+01  0.7957747E-01            NaN
         13   -1    0    0    0    0  0.00000000000E+00  0.00000000000E+00  0.74505805969E-08  0.10566000000E+00  0.10566000000E+00 0.  1.
     999900   -1    0    0    0    0 -0.00000000000E+00 -0.00000000000E+00 -0.74505805969E-08  0.93827000000E+00  0.93827000000E+00 0. -1.
     999902    2    1    2    0    0 -0.11231882584E-01  0.29617204387E-02  0.95968086926E-02  0.10288626276E+01  0.10287522932E+01 0.  0.
     999903    2    3    3    0    0 -0.16151440466E-01 -0.67815126579E-01 -0.11020853522E+00  0.13791544366E+00  0.44888617054E-01 0.  0.
         14    1    1    2    0    0  0.11231882584E-01 -0.29617204387E-02 -0.95968086926E-02  0.15067372413E-01  0.00000000000E+00 0. -1.
     999901    1    3    3    0    0  0.49195578820E-02  0.70776847018E-01  0.11980534391E+00  0.89094718393E+00  0.88000000000E+00 0.  1.
        -11    1    4    4    0    0  0.11090185901E-01 -0.44661386329E-01 -0.73130451071E-01  0.86405761654E-01  0.51100000000E-03 0. -1.
         11    1    4    4    0    0 -0.27241626367E-01 -0.23153740250E-01 -0.37078084151E-01  0.51509682002E-01  0.51100000000E-03 0.  1.
</event>
<event>
 8    1  0.2846344E+004  0.1043930E+01  0.7957747E-01            NaN
         13   -1    0    0    0    0  0.00000000000E+00  0.00000000000E+00  0.74505805969E-08  0.10566000000E+00  0.10566000000E+00 0. -1.
     999900   -1    0    0    0    0 -0.00000000000E+00 -0.00000000000E+00 -0.74505805969E-08  0.93827000000E+00  0.93827000000E+00 0.  1.
     999902    2    1    2    0    0  0.94917405008E-02 -0.62547946394E-02  0.61331791928E-02  0.10310136739E+01  0.10309327642E+01 0.  0.
     999903    2    3    3    0    0  0.92488619496E-02 -0.12045180083E+00 -0.58735867891E-01  0.14126707596E+00  0.43729930310E-01 0.  0.
         14    1    1    2    0    0 -0.94917405008E-02  0.62547946394E-02 -0.61331791928E-02  0.12916326131E-01  0.00000000000E+00 0.  1.
     999901    1    3    3    0    0  0.24287855118E-03  0.11419700619E+00  0.64869047084E-01  0.88974659790E+00  0.88000000000E+00 0. -1.
        -11    1    4    4    0    0  0.58147012906E-02 -0.60067645270E-01 -0.53338068893E-01  0.80542805226E-01  0.51100000000E-03 0. -1.
         11    1    4    4    0    0  0.34341606590E-02 -0.60384155557E-01 -0.53977989975E-02  0.60724270739E-01  0.51100000000E-03 0.  1.
</event>
<event>
 8    1  0.2846344E+004  0.1043930E+01  0.7957747E-01            NaN
         13   -1    0    0    0    0  0.00000000000E+00  0.00000000000E+00  0.74505805969E-08  0.10566000000E+00  0.10566000000E+00 0.  1.
     999900   -1    0    0    0    0 -0.00000000000E+00 -0.00000000000E+00 -0.74505805969E-08  0.93827000000E+00  0.93827000000E+00 0.  1.
     999902    2    1    2    0    0 -0.21074948467E-04 -0.11106509192E-01  0.10513388845E-01  0.10286366571E+01  0.10285229633E+01 0.  0.
     999903    2    3    3    0    0  0.54151654287E-01 -0.74438530650E-01 -0.92725304030E-01  0.13869067157E+00  0.46514770412E-01 0.  0.
         14    1    1    2    0    0  0.21074948467E-04  0.11106509192E-01 -0.10513388845E-01  0.15293342852E-01  0.00000000000E+00 0. -1.
     999901    1    3    3    0    0 -0.54172729236E-01  0.63332021458E-01  0.10323869288E+00  0.88994598558E+00  0.88000000000E+00 0. -1.
        -11    1    4    4    0    0  0.50927589188E-01 -0.70442141425E-01 -0.60145059314E-01  0.10570432304E+00  0.51100000000E-03 0.  1.
         11    1    4    4    0    0  0.32240650989E-02 -0.39963892251E-02 -0.32580244715E-01  0.32986348530E-01  0.51100000000E-03 0. -1.
</event>
<event>
 8    1  0.2846344E+004  0.1043930E+01  0.7957747E-01            NaN
         13   -1    0    0    0    0  0.00000000000E+00  0.00000000000E+00  0.74505805969E-08  0.10566000000E+00  0.10566000000E+00 0. -1.
     999900   -1    0    0    0    0 -0.00000000000E+00 -0.00000000000E+00 -0.74505805969E-08  0.93827000000E+00  0.93827000000E+00 0.  1.
     999902    2    1    2    0    0 -0.13203012235E-01  0.67133629699E-02 -0.57002996744E-02  0.10280592032E+01  0.10279366922E+01 0.  0.
     999903    2    3    3    0    0  0.62716594103E-01 -0.94185239824E-01  0.61602333942E-01  0.13650216119E+00  0.45097249219E-01 0.  0.
         14    1    1    2    0    0  0.13203012235E-01 -0.67133629699E-02  0.57002996744E-02  0.15870796792E-01  0.00000000000E+00 0. -1.
     999901    1    3    3    0    0 -0.75919606337E-01  0.10089860279E+00 -0.67302633616E-01  0.89155704201E+00  0.88000000000E+00 0.  1.
        -11    1    4    4    0    0  0.52946033262E-01 -0.46052699539E-01  0.22411415240E-01  0.73665909531E-01  0.51100000000E-03 0. -1.
         11    1    4    4    0    0  0.97705608411E-02 -0.48132540285E-01  0.39190918702E-01  0.62836251663E-01  0.51100000000E-03 0.  1.
</event>
<event>
 8    1  0.2846344E+004  0.1043930E+01  0.7957747E-01            NaN
         13   -1    0    0    0    0  0.00000000000E+00  0.00000000000E+00  0.74505805969E-08  0.10566000000E+00  0.10566000000E+00 0. -1.
     999900   -1    0    0    0    0 -0.00000000000E+00 -0.00000000000E+00 -0.74505805969E-08  0.93827000000E+00  0.93827000000E+00 0. -1.
     999902    2    1    2    0    0  0.10389923599E-01  0.73373186469E-02  0.34281776429E-02  0.10307565737E+01  0.10306723898E+01 0.  0.
     999903    2    3    3    0    0 -0.74751325179E-01  0.10749842066E+00 -0.27445408878E-01  0.14045636767E+00  0.42791000091E-01 0.  0.
         14    1    1    2    0    0 -0.10389923599E-01 -0.73373186469E-02 -0.34281776429E-02  0.13173426254E-01  0.00000000000E+00 0. -1.
     999901    1    3    3    0    0  0.85141248777E-01 -0.10016110202E+00  0.30873586521E-01  0.89030020608E+00  0.88000000000E+00 0. -1.
        -11    1    4    4    0    0 -0.44878946563E-01  0.74498328466E-01  0.21510689438E-02  0.87000051767E-01  0.51100000000E-03 0.  1.
         11    1    4    4    0    0 -0.29872378616E-01  0.33000092196E-01 -0.29596477822E-01  0.53456315900E-01  0.51100000000E-03 0. -1.
</event>
<event>
 8    1  0.2846344E+004  0.1043930E+01  0.7957747E-01            NaN
         13   -1    0    0    0    0  0.00000000000E+00  0.00000000000E+00  0.74505805969E-08  0.10566000000E+00  0.10566000000E+00 0.  1.
     999900   -1    0    0    0    0 -0.00000000000E+00 -0.00000000000E+00 -0.74505805969E-08  0.93827000000E+00  0.93827000000E+00 0.  1.
     999902    2    1    2    0    0 -0.12613757194E-01  0.21058894139E-02  0.58305120124E-02  0.10298752317E+01  0.10297793241E+01 0.  0.
     999903    2    3    3    0    0 -0.55446348577E-01 -0.10701648268E+00  0.56845320810E-01  0.14063688703E+00  0.44950176416E-01 0.  0.
         14    1    1    2    0    0  0.12613757194E-01 -0.21058894139E-02 -0.58305120124E-02  0.14054768269E-01  0.00000000000E+00 0.  1.
     999901    1    3    3    0    0  0.42832591383E-01  0.10912237209E+00 -0.51014808798E-01  0.88923834470E+00  0.88000000000E+00 0. -1.
        -11    1    4    4    0    0 -0.54026786362E-01 -0.56819221470E-01  0.35507797432E-01  0.86071960431E-01  0.51100000000E-03 0.  1.
         11    1    4    4    0    0 -0.14195622151E-02 -0.50197261206E-01  0.21337523379E-01  0.54564926596E-01  0.51100000000E-03 0. -1.
</event>
<event>
 8    1  0.2846344E+004  0.1043930E+01  0.7957747E-01            NaN
         13   -1    0    0    0    0  0.00000000000E+00  0.00000000000E+00  0.74505805969E-08  0.10566000000E+00  0.10566000000E+00 0. -1.
     999900   -1    0    0    0    0 -0.00000000000E+00 -0.00000000000E+00 -0.74505805969E-08  0.93827000000E+00  0.93827000000E+00 0. -1.
     999902    2    1    2    0    0  0.78933243497E-02  0.12477343904E-01 -0.37813034484E-02  0.10286890376E+01  0.10285761270E+01 0.  0.
     999903    2    3    3    0    0 -0.11816547078E+00 -0.11967674371E-01  0.52026999789E-01  0.13762060840E+00  0.46112031350E-01 0.  0.
         14    1    1    2    0    0 -0.78933243497E-02 -0.12477343904E-01  0.37813034484E-02  0.15240962435E-01  0.00000000000E+00 0. -1.
     999901    1    3    3    0    0  0.12605879513E+00  0.24445018275E-01 -0.55808303237E-01  0.89106842917E+00  0.88000000000E+00 0. -1.
        -11    1    4    4    0    0 -0.10223981331E+00 -0.22973451274E-01  0.31549905909E-01  0.10943681544E+00  0.51100000000E-03 0. -1.
         11    1    4    4    0    0 -0.15925657468E-01  0.11005776903E-01  0.20477093880E-01  0.28183792963E-01  0.51100000000E-03 0.  1.
</event>
<event>
 8    1  0.2846344E+004  0.1043930E+01  0.7957747E-01            NaN
         13   -1    0    0    0    0  0.00000000000E+00  0.00000000000E+00  0.74505805969E-08  0.10566000000E+00  0.10566000000E+00 0.  1.
     999900   -1    0    0    0    0 -0.00000000000E+00 -0.00000000000E+00 -0.74505805969E-08  0.93827000000E+00  0.93827000000E+00 0.  1.
     999902    2    1    2    0    0 -0.34650858441E-02  0.83496698301E-02 -0.95946349234E-02  0.10307474044E+01  0.10306631025E+01 0.  0.
     999903    2    3    3    0    0  0.75499450929E-02 -0.17739782138E-01 -0.13288002788E+00  0.14170225457E+00  0.45284937883E-01 0.  0.
         14    1    1    2    0    0  0.34650858441E-02 -0.83496698301E-02  0.95946349234E-02  0.13182595552E-01  0.00000000000E+00 0.  1.
     999901    1    3    3    0    0 -0.11015030937E-01  0.26089451968E-01  0.12328539296E+00  0.88904514988E+00  0.88000000000E+00 0. -1.
        -11    1    4    4    0    0 -0.61059884704E-02  0.11990961343E-01 -0.64577880311E-01  0.65966885599E-01  0.51100000000E-03 0.  1.
         11    1    4    4    0    0  0.13655933563E-01 -0.29730743480E-01 -0.68302147568E-01  0.75735368968E-01  0.51100000000E-03 0. -1.
</event>
<event>
 8    1  0.2846344E+004  0.1043930E+01  0.7957747E-01            NaN
         13   -1    0    0    0    0  0.00000000000E+00  0.00000000000E+00  0.74505805969E-08  0.10566000000E+00  0.10566000000E+00 0. -1.
     999900   -1    0    0    0    0 -0.00000000000E+00 -0.00000000000E+00 -0.74505805969E-08  0.93827000000E+00  0.93827000000E+00 0.  1.
     999902    2    1    2    0    0  0.12816271166E-01  0.44834479703E-02 -0.31665540408E-03  0.10303484543E+01  0.10302589378E+01 0.  0.
     999903    2    3    3    0    0 -0.67664921449E-01 -0.62392860351E-01 -0.94127661236E-01  0.13919741898E+00  0.45216083679E-01 0.  0.
         14    1    1    2    0    0 -0.12816271166E-01 -0.44834479703E-02  0.31665540408E-03  0.13581545676E-01  0.00000000000E+00 0. -1.
     999901    1    3    3    0    0  0.80481192615E-01  0.66876308321E-01  0.93811005832E-01  0.89115103534E+00  0.88000000000E+00 0. -1.
        -11    1    4    4    0    0 -0.42749297280E-01 -0.59293627340E-01 -0.50461382863E-01  0.88824821658E-01  0.51100000000E-03 0.  1.
         11    1    4    4    0    0 -0.24915624170E-01 -0.30992330111E-02 -0.43666278373E-01  0.50372597322E-01  0.51100000000E-03 0. -1.
</event>
<event>
 8    1  0.2846344E+004  0.1043930E+01  0.7957747E-01            NaN
         13   -1    0    0    0    0  0.00000000000E+00  0.00000000000E+00  0.74505805969E-08  0.10566000000E+00  0.10566000000E+00 0.  1.
     999900   -1    0    0    0    0 -0.00000000000E+00 -0.00000000000E+00 -0.74505805969E-08  0.93827000000E+00  0.93827000000E+00 0.  1.
     999902    2    1    2    0    0 -0.70061776603E-02  0.11996510091E-01  0.30880857171E-02  0.10296983784E+01  0.10296000250E+01 0.  0.
     999903    2    3    3    0    0  0.26559472378E-02  0.35892057469E-01  0.12790116961E+00  0.14051748581E+00  0.45729211522E-01 0.  0.
         14    1    1    2    0    0  0.70061776603E-02 -0.11996510091E-01 -0.30880857171E-02  0.14231621593E-01  0.00000000000E+00 0.  1.
     999901    1    3    3    0    0 -0.96621248981E-02 -0.23895547378E-01 -0.12481308389E+00  0.88918089259E+00  0.88000000000E+00 0.  1.
        -11    1    4    4    0    0  0.22473458883E-01  0.93422119651E-02  0.43550333862E-01  0.49892143460E-01  0.51100000000E-03 0.  1.
         11    1    4    4    0    0 -0.19817511645E-01  0.26549845504E-01  0.84350835750E-01  0.90625342354E-01  0.51100000000E-03 0. -1.
</event>
<event>
 8    1  0.2846344E+004  0.1043930E+01  0.7957747E-01            NaN
         13   -1    0    0    0    0  0.00000000000E+00  0.00000000000E+00  0.74505805969E-08  0.10566000000E+00  0.10566000000E+00 0.  1.
     999900   -1    0    0    0    0 -0.00000000000E+00 -0.00000000000E+00 -0.74505805969E-08  0.93827000000E+00  0.93827000000E+00 0.  1.
     999902    2    1    2    0    0  0.73459774406E-02  0.40241131351E-02 -0.13185315739E-01  0.10283091991E+01  0.10281905463E+01 0.  0.
     999903    2    3    3    0    0 -0.11711478673E+00 -0.21456404330E-01  0.50779913218E-01  0.13688826083E+00  0.44537016152E-01 0.  0.
         14    1    1    2    0    0 -0.73459774406E-02 -0.40241131351E-02  0.13185315739E-01  0.15620800947E-01  0.00000000000E+00 0.  1.
     999901    1    3    3    0    0  0.12446076417E+00  0.25480517465E-01 -0.63965228957E-01  0.89142093822E+00  0.88000000000E+00 0.  1.
        -11    1    4    4    0    0 -0.46618117379E-01  0.28176218405E-02  0.40116017196E-01  0.61569016700E-01  0.51100000000E-03 0. -1.
         11    1    4    4    0    0 -0.70496669355E-01 -0.24274026171E-01  0.10663896022E-01  0.75319244128E-01  0.51100000000E-03 0.  1.
</event>
<event>
 8    1  0.2846344E+004  0.1043930E+01  0.7957747E-01            NaN
         13   -1    0    0    0    0  0.00000000000E+00  0.00000000000E+00  0.74505805969E-08  0.10566000000E+00  0.10566000000E+00 0. -1.
     999900   -1    0    0    0    0 -0.00000000000E+00 -0.00000000000E+00 -0.74505805969E-08  0.93827000000E+00  0.93827000000E+00 0.  1.
     999902    2    1    2    0    0 -0.15810843807E-02 -0.13574524331E-01 -0.50240478826E-02  0.10293694850E+01  0.10292665001E+01 0.  0.
     999903    2    3    3    0    0 -0.65914566960E-02 -0.22195357227E-01  0.12945412080E+00  0.13909772853E+00  0.45318070432E-01 0.  0.
         14    1    1    2    0    0  0.15810843807E-02  0.13574524331E-01  0.50240478826E-02  0.14560514956E-01  0.00000000000E+00 0. -1.
     999901    1    3    3    0    0  0.50103723153E-02  0.86208328955E-02 -0.13447816868E+00  0.89027175651E+00  0.88000000000E+00 0.  1.
        -11    1    4    4    0    0 -0.15080535696E-01 -0.25228895918E-01  0.42500846118E-01  0.51676907685E-01  0.51100000000E-03 0.  1.
         11    1    4    4    0    0  0.84890789996E-02  0.30335386910E-02  0.86953274680E-01  0.87420820848E-01  0.51100000000E-03 0. -1.
</event>
<event>
 8    1  0.2846344E+004  0.1043930E+01  0.7957747E-01            NaN
         13   -1    0    0    0    0  0.00000000000E+00  0.00000000000E+00  0.74505805969E-08  0.10566000000E+00  0.10566000000E+00 0. -1.
     999900   -1    0    0    0    0 -0.00000000000E+00 -0.00000000000E+00 -0.74505805969E-08  0.93827000000E+00  0.93827000000E+00 0. -1.
     999902    2    1    2    0    0 -0.98282987724E-02  0.51772371093E-02  0.33310359586E-02  0.10323328003E+01  0.10322676569E+01 0.  0.
     999903    2    3    3    0    0  0.18204897179E-01 -0.12291505834E+00  0.50185427134E-01  0.14138452445E+00  0.45071907091E-01 0.  0.
         14    1    1    2    0    0  0.98282987724E-02 -0.51772371093E-02 -0.33310359586E-02  0.11597199722E-01  0.00000000000E+00 0. -1.
     999901    1    3    3    0    0 -0.28033195951E-01  0.12809229545E+00 -0.46854391176E-01  0.89094827583E+00  0.88000000000E+00 0. -1.
        -11    1    4    4    0    0  0.18430146125E-01 -0.14129586501E-01  0.11539252021E-01  0.25937057641E-01  0.51100000000E-03 0. -1.
         11    1    4    4    0    0 -0.22524894585E-03 -0.10878547184E+00  0.38646175113E-01  0.11544746681E+00  0.51100000000E-03 0.  1.
</event>
<event>
 8    1  0.2846344E+004  0.1043930E+01  0.7957747E-01            NaN
         13   -1    0    0    0    0  0.00000000000E+00  0.00000000000E+00  0.74505805969E-08  0.10566000000E+00  0.10566000000E+00 0.  1.
     999900   -1    0    0    0    0 -0.00000000000E+00 -0.00000000000E+00 -0.74505805969E-08  0.93827000000E+00  0.93827000000E+00 0.  1.
     999902    2    1    2    0    0  0.11794692230E-02  0.23727833317E-01  0.14497768423E-01  0.10160986057E+01  0.10157173770E+01 0.  0.
     999903    2    3    3    0    0 -0.73763999734E-01 -0.19553531828E-01 -0.87809056492E-01  0.12595452377E+00  0.48276737581E-01 0.  0.
         14    1    1    2    0    0 -0.11794692230E-02 -0.23727833317E-01 -0.14497768423E-01  0.27831394339E-01  0.00000000000E+00 0. -1.
     999901    1    3    3    0    0  0.74943468957E-01  0.43281365145E-01  0.10230682492E+00  0.89014408189E+00  0.88000000000E+00 0.  1.
        -11    1    4    4    0    0 -0.22907793374E-01  0.16087652329E-01 -0.23489404528E-01  0.36545763103E-01  0.51100000000E-03 0. -1.
         11    1    4    4    0    0 -0.50856206360E-01 -0.35641184158E-01 -0.64319651965E-01  0.89408760663E-01  0.51100000000E-03 0.  1.
</event>
<event>
 8    1  0.2846344E+004  0.1043930E+01  0.7957747E-01            NaN
         13   -1    0    0    0    0  0.00000000000E+00  0.00000000000E+00  0.74505805969E-08  0.10566000000E+00  0.10566000000E+00 0. -1.
     999900   -1    0    0    0    0 -0.00000000000E+00 -0.00000000000E+00 -0.74505805969E-08  0.93827000000E+00  0.93827000000E+00 0. -1.
     999902    2    1    2    0    0 -0.15116560971E-01  0.97047263099E-03 -0.22962950175E-02  0.10286092558E+01  0.10284951511E+01 0.  0.
     999903    2    3    3    0    0 -0.61269400695E-01 -0.11629667891E+00 -0.11771533404E-01  0.13958088188E+00  0.45446634654E-01 0.  0.
         14    1    1    2    0    0  0.15116560971E-01 -0.97047263099E-03  0.22962950175E-02  0.15320744223E-01  0.00000000000E+00 0. -1.
     999901    1    3    3    0    0  0.46152839724E-01  0.11726715154E+00  0.94752383864E-02  0.88902837389E+00  0.88000000000E+00 0.  1.
        -11    1    4    4    0    0 -0.44963523969E-02 -0.52957133061E-01 -0.12141511563E-01  0.54519286046E-01  0.51100000000E-03 0. -1.
         11    1    4    4    0    0 -0.56773048299E-01 -0.63339545851E-01  0.36997815905E-03  0.85061595838E-01  0.51100000000E-03 0.  1.
</event>
<event>
 8    1  0.2846344E+004  0.1043930E+01  0.7957747E-01            NaN
         13   -1    0    0    0    0  0.00000000000E+00  0.00000000000E+00  0.74505805969E-08  0.10566000000E+00  0.10566000000E+00 0. -1.
     999900   -1    0    0    0    0 -0.00000000000E+00 -0.00000000000E+00 -0.74505805969E-08  0.93827000000E+00  0.93827000000E+00 0.  1.
     999902    2    1    2    0    0 -0.68820906715E-03  0.13941811442E-01 -0.10827748561E-02  0.10299292808E+01  0.10298341144E+01 0.  0.
     999903    2    3    3    0    0 -0.37903259415E-01 -0.71453168241E-01  0.10337703563E+00  0.13886861249E+00  0.45337266253E-01 0.  0.
         14    1    1    2    0    0  0.68820906715E-03 -0.13941811442E-01  0.10827748561E-02  0.14000719246E-01  0.00000000000E+00 0.  1.
     999901    1    3    3    0    0  0.37215050348E-01  0.85394979684E-01 -0.10445981049E+00  0.89106066827E+00  0.88000000000E+00 0. -1.
        -11    1    4    4    0    0 -0.13532360836E-01  0.34120245735E-02  0.16740361069E-01  0.21800630982E-01  0.51100000000E-03 0. -1.
         11    1    4    4    0    0 -0.24370898579E-01 -0.74865192815E-01  0.86636674564E-01  0.11706798150E+00  0.51100000000E-03 0.  1.
</event>
<event>
 7    1  0.2846344E+004  0.1043930E+01  0.7957747E-01            NaN
         13   -1    0    0    0    0  0.00000000000E+00  0.00000000000E+00  0.74505805969E-08  0.10566000000E+00  0.10566000000E+00 0.  1.
     999900   -1    0    0    0    0 -0.00000000000E+00 -0.00000000000E+00 -0.74505805969E-08  0.93827000000E+00  0.93827000000E+00 0.  1.
     999903    2    1    2    0    0 -0.13222627777E-01 -0.10502002719E+00 -0.47403177183E-02  0.11476747486E+00  0.44102819378E-01 0.  0.
         14    1    1    2    0    0  0.39770090703E-01  0.14347228907E-01  0.12442572822E-01  0.44071767723E-01  0.00000000000E+00 0.  1.
     999901    1    1    2    0    0 -0.26547462927E-01  0.90672798281E-01 -0.77022551032E-02  0.88509075742E+00  0.88000000000E+00 0.  1.
        -11    1    3    3    0    0 -0.20609559723E-02 -0.38011996759E-01 -0.22927311850E-01  0.44441896751E-01  0.51100000000E-03 0. -1.
         11    1    3    3    0    0 -0.11161671804E-01 -0.67008030429E-01  0.18186994132E-01  0.70325578106E-01  0.51100000000E-03 0.  1.
</event>
<event>
 8    1  0.2846344E+004  0.1043930E+01  0.7957747E-01            NaN
         13   -1    0    0    0    0  0.00000000000E+00  0.00000000000E+00  0.74505805969E-08  0.10566000000E+00  0.10566000000E+00 0.  1.
     999900   -1    0    0    0    0 -0.00000000000E+00 -0.00000000000E+00 -0.74505805969E-08  0.93827000000E+00  0.93827000000E+00 0. -1.
     999902    2    1    2    0    0  0.59139781295E-02 -0.12789862699E-01 -0.26804294330E-02  0.10295863454E+01  0.10294864264E+01 0.  0.
     999903    2    3    3    0    0  0.38391096817E-02  0.10061641781E+00 -0.83591866672E-01  0.13862509472E+00  0.45726517664E-01 0.  0.
         14    1    1    2    0    0 -0.59139781295E-02  0.12789862699E-01  0.26804294330E-02  0.14343654595E-01  0.00000000000E+00 0.  1.
     999901    1    3    3    0    0  0.20748684478E-02 -0.11340628051E+00  0.80911437239E-01  0.89096125068E+00  0.88000000000E+00 0.  1.
        -11    1    4    4    0    0 -0.41321079765E-02  0.18360066201E-01  0.28419069272E-02  0.19039535268E-01  0.51100000000E-03 0.  1.
         11    1    4    4    0    0  0.79712176582E-02  0.82256351609E-01 -0.86433773599E-01  0.11958555946E+00  0.51100000000E-03 0. -1.
</event>
<event>
 8    1  0.2846344E+004  0.1043930E+01  0.7957747E-01            NaN
         13   -1    0    0    0    0  0.00000000000E+00  0.00000000000E+00  0.74505805969E-08  0.10566000000E+00  0.10566000000E+00 0. -1.
     999900   -1    0    0    0    0 -0.00000000000E+00 -0.00000000000E+00 -0.74505805969E-08  0.93827000000E+00  0.93827000000E+00 0. -1.
     999902    2    1    2    0    0  0.21166761512E-02  0.50447015713E-04 -0.13343909570E-01  0.10304191604E+01  0.10303305797E+01 0.  0.
     999903    2    3    3    0    0 -0.93722890068E-01 -0.62452067797E-01  0.68540921820E-01  0.13924189838E+00  0.44790706691E-01 0.  0.
         14    1    1    2    0    0 -0.21166761512E-02 -0.50447015713E-04  0.13343909570E-01  0.13510839554E-01  0.00000000000E+00 0. -1.
     999901    1    3    3    0    0  0.95839566219E-01  0.62502514813E-01 -0.81884831390E-01  0.89117726207E+00  0.88000000000E+00 0. -1.
        -11    1    4    4    0    0 -0.32442058457E-01 -0.21615480671E-01  0.49811839166E-01  0.63255012478E-01  0.51100000000E-03 0.  1.
         11    1    4    4    0    0 -0.61280831611E-01 -0.40836587127E-01  0.18729082654E-01  0.75986885902E-01  0.51100000000E-03 0. -1.
</event>
<event>
 8    1  0.2846344E+004  0.1043930E+01  0.7957747E-01            NaN
         13   -1    0    0    0    0  0.00000000000E+00  0.00000000000E+00  0.74505805969E-08  0.10566000000E+00  0.10566000000E+00 0. -1.
     999900   -1    0    0    0    0 -0.00000000000E+00 -0.00000000000E+00 -0.74505805969E-08  0.93827000000E+00  0.93827000000E+00 0.  1.
     999902    2    1    2    0    0  0.52874515829E-02 -0.89633464960E-02 -0.94634370611E-02  0.10298638930E+01  0.10297678295E+01 0.  0.
     999903    2    3    3    0    0  0.25751589164E-01  0.10652466778E-01  0.12826353840E+00  0.13870045075E+00  0.44829235593E-01 0.  0.
         14    1    1    2    0    0 -0.52874515829E-02  0.89633464960E-02  0.94634370611E-02  0.14066106983E-01  0.00000000000E+00 0. -1.
     999901    1    3    3    0    0 -0.20464137581E-01 -0.19615813274E-01 -0.13772697546E+00  0.89116344226E+00  0.88000000000E+00 0.  1.
        -11    1    4    4    0    0  0.65836268573E-02 -0.50908509827E-02  0.10284014165E+00  0.10317759816E+00  0.51100000000E-03 0. -1.
         11    1    4    4    0    0  0.19167962307E-01  0.15743317761E-01  0.25423396743E-01  0.35522852589E-01  0.51100000000E-03 0.  1.
</event>
<event>
 8    1  0.2846344E+004  0.1043930E+01  0.7957747E-01            NaN
         13   -1    0    0    0    0  0.00000000000E+00  0.00000000000E+00  0.74505805969E-08  0.10566000000E+00  0.10566000000E+00 0.  1.
     999900   -1    0    0    0    0 -0.00000000000E+00 -0.00000000000E+00 -0.74505805969E-08  0.93827000000E+00  0.93827000000E+00 0. -1.
     999902    2    1    2    0    0  0.15310122021E-02 -0.13667740732E-01 -0.30876690503E-02  0.10298344392E+01  0.10297379702E+01 0.  0.
     999903    2    3    3    0    0 -0.39578232603E-01  0.11723275207E+00  0.41879366682E-01  0.13806824597E+00  0.44710228547E-01 0.  0.
         14    1    1    2    0    0 -0.15310122021E-02  0.13667740732E-01  0.30876690503E-02  0.14095560834E-01  0.00000000000E+00 0. -1.
     999901    1    3    3    0    0  0.41109244805E-01 -0.13090049281E+00 -0.44967035732E-01  0.89176619320E+00  0.88000000000E+00 0.  1.
        -11    1    4    4    0    0  0.30679963819E-02  0.19289401959E-01  0.21972148575E-01  0.29402892098E-01  0.51100000000E-03 0.  1.
         11    1    4    4    0    0 -0.42646228985E-01  0.97943350114E-01  0.19907218107E-01  0.10866535387E+00  0.51100000000E-03 0. -1.
</event>
<event>
 8    1  0.2846344E+004  0.1043930E+01  0.7957747E-01            NaN
         13   -1    0    0    0    0  0.00000000000E+00  0.00000000000E+00  0.74505805969E-08  0.10566000000E+00  0.10566000000E+00 0. -1.
     999900   -1    0    0    0    0 -0.00000000000E+00 -0.00000000000E+00 -0.74505805969E-08  0.93827000000E+00  0.93827000000E+00 0. -1.
     999902    2    1    2    0    0 -0.42627073414E-02  0.11172547290E-01  0.70766845226E-02  0.10300348228E+01  0.10299410955E+01 0.  0.
     999903    2    3    3    0    0 -0.25609294363E-01  0.12810398146E+00  0.32159847524E-01  0.14168928067E+00  0.44442439622E-01 0.  0.
         14    1    1    2    0    0  0.42627073414E-02 -0.11172547290E-01 -0.70766845226E-02  0.13895177244E-01  0.00000000000E+00 0.  1.
     999901    1    3    3    0    0  0.21346587022E-01 -0.11693143417E+00 -0.25083163002E-01  0.88834554208E+00  0.88000000000E+00 0.  1.
        -11    1    4    4    0    0 -0.16127527802E-01  0.95301565502E-01  0.28711954104E-02  0.96700519255E-01  0.51100000000E-03 0. -1.
         11    1    4    4    0    0 -0.94817665606E-02  0.32802415962E-01  0.29288652114E-01  0.44988761415E-01  0.51100000000E-03 0.  1.
</event>
<event>
 8    1  0.2846344E+004  0.1043930E+01  0.7957747E-01            NaN
         13   -1    0    0    0    0  0.00000000000E+00  0.00000000000E+00  0.74505805969E-08  0.10566000000E+00  0.10566000000E+00 0. -1.
     999900   -1    0    0    0    0 -0.00000000000E+00 -0.00000000000E+00 -0.74505805969E-08  0.93827000000E+00  0.93827000000E+00 0. -1.
     999902    2    1    2    0    0 -0.39225198618E-02  0.12359027450E-01 -0.59829582175E-02  0.10296496810E+01  0.10295506486E+01 0.  0.
     999903    2    3    3    0    0 -0.65096975578E-01  0.89443045063E-02 -0.11616770308E+00  0.14066449982E+00  0.44429150990E-01 0.  0.
         14    1    1    2    0    0  0.39225198618E-02 -0.12359027450E-01  0.59829582175E-02  0.14280318996E-01  0.00000000000E+00 0. -1.
     999901    1    3    3    0    0  0.61174455716E-01  0.34147229442E-02  0.11018474486E+00  0.88898518118E+00  0.88000000000E+00 0.  1.
        -11    1    4    4    0    0 -0.36227177159E-01 -0.13370816374E-01 -0.82153750588E-01  0.90778229505E-01  0.51100000000E-03 0. -1.
         11    1    4    4    0    0 -0.28869798419E-01  0.22315120880E-01 -0.34013952494E-01  0.49886270315E-01  0.51100000000E-03 0.  1.
</event>
<event>
 8    1  0.2846344E+004  0.1043930E+01  0.7957747E-01            NaN
         13   -1    0    0    0    0  0.00000000000E+00  0.00000000000E+00  0.74505805969E-08  0.10566000000E+00  0.10566000000E+00 0. -1.
     999900   -1    0    0    0    0 -0.00000000000E+00 -0.00000000000E+00 -0.74505805969E-08  0.93827000000E+00  0.93827000000E+00 0. -1.
     999902    2    1    2    0    0  0.81395816276E-02 -0.96086448182E-02 -0.72164285852E-02  0.10294160176E+01  0.10293136944E+01 0.  0.
     999903    2    3    3    0    0  0.21959023116E-01  0.12917159341E+00  0.23086657223E-02  0.13838197843E+00  0.44460575550E-01 0.  0.
         14    1    1    2    0    0 -0.81395816276E-02  0.96086448182E-02  0.72164285852E-02  0.14513982425E-01  0.00000000000E+00 0.  1.
     999901    1    3    3    0    0 -0.13819441488E-01 -0.13878023823E+00 -0.95250943074E-02  0.89103403914E+00  0.88000000000E+00 0.  1.
        -11    1    4    4    0    0  0.29438717891E-01  0.46761462512E-01 -0.39185654287E-02  0.55397551961E-01  0.51100000000E-03 0. -1.
         11    1    4    4    0    0 -0.74796947751E-02  0.82410130896E-01  0.62272311510E-02  0.82984426473E-01  0.51100000000E-03 0.  1.
</event>
<event>
 7    1  0.2846344E+004  0.1043930E+01  0.7957747E-01            NaN
         13   -1    0    0    0    0  0.00000000000E+00  0.00000000000E+00  0.74505805969E-08  0.10566000000E+00  0.10566000000E+00 0. -1.
     999900   -1    0    0    0    0 -0.00000000000E+00 -0.00000000000E+00 -0.74505805969E-08  0.93827000000E+00  0.93827000000E+00 0.  1.
     999902    2    1    2    0    0  0.11362717295E-01 -0.74110036857E-02  0.12045319238E-02  0.10303107042E+01  0.10302206861E+01 0.  0.
         14    1    1    2    0    0 -0.11362717295E-01  0.74110036857E-02 -0.12045319238E-02  0.13619295764E-01  0.00000000000E+00 0.  1.
     999901    1    3    3    0    0  0.95788427391E-01  0.71626216989E-01 -0.50185717009E-01  0.88950792238E+00  0.88000000000E+00 0.  1.
        -11    1    3    3    0    0 -0.23947172895E-01 -0.48436927610E-01  0.49055225850E-01  0.72981363033E-01  0.51100000000E-03 0.  1.
         11    1    3    3    0    0 -0.60478537201E-01 -0.30600293064E-01  0.23350230825E-02  0.67821418825E-01  0.51100000000E-03 0. -1.
</event>
<event>
 8    1  0.2846344E+004  0.1043930E+01  0.7957747E-01            NaN
         13   -1    0    0    0    0  0.00000000000E+00  0.00000000000E+00  0.74505805969E-08  0.10566000000E+00  0.10566000000E+00 0. -1.
     999900   -1    0    0    0    0 -0.00000000000E+00 -0.00000000000E+00 -0.74505805969E-08  0.93827000000E+00  0.93827000000E+00 0. -1.
     999902    2    1    2    0    0  0.13115407434E-01  0.50803522701E-02  0.18816198362E-03  0.10298637533E+01  0.10297676879E+01 0.  0.
     999903    2    3    3    0    0  0.83984972930E-01  0.34261959500E-01 -0.98430500558E-01  0.14104447914E+00  0.44470485818E-01 0.  0.
         14    1    1    2    0    0 -0.13115407434E-01 -0.50803522701E-02 -0.18816198362E-03  0.14066246702E-01  0.00000000000E+00 0. -1.
     999901    1    3    3    0    0 -0.70869565497E-01 -0.29181607230E-01  0.98618662541E-01  0.88881927416E+00  0.88000000000E+00 0.  1.
        -11    1    4    4    0    0  0.73807961666E-01  0.97747173343E-02 -0.70750430609E-01  0.10270854325E+00  0.51100000000E-03 0. -1.
         11    1    4    4    0    0  0.10177011264E-01  0.24487242166E-01 -0.27680069948E-01  0.38335935889E-01  0.51100000000E-03 0.  1.
</event>
<event>
 8    1  0.2846344E+004  0.1043930E+01  0.7957747E-01            NaN
         13   -1    0    0    0    0  0.00000000000E+00  0.00000000000E+00  0.74505805969E-08  0.10566000000E+00  0.10566000000E+00 0. -1.
     999900   -1    0    0    0    0 -0.00000000000E+00 -0.00000000000E+00 -0.74505805969E-08  0.93827000000E+00  0.93827000000E+00 0. -1.
     999902    2    1    2    0    0  0.21537514740E-02 -0.11748867283E-01  0.27626017773E-02  0.10316700450E+01  0.10315971962E+01 0.  0.
     999903    2    3    3    0    0 -0.31878420205E-01 -0.12212563471E+00  0.48363414431E-01  0.14295149923E+00  0.46531784275E-01 0.  0.
         14    1    1    2    0    0 -0.21537514740E-02  0.11748867283E-01 -0.27626017773E-02  0.12259954993E-01  0.00000000000E+00 0. -1.
     999901    1    3    3    0    0  0.34032171679E-01  0.11037676743E+00 -0.45600812654E-01  0.88871854578E+00  0.88000000000E+00 0.  1.
        -11    1    4    4    0    0  0.63539620835E-02 -0.49627913894E-01  0.31935597644E-01  0.59358623548E-01  0.51100000000E-03 0. -1.
         11    1    4    4    0    0 -0.38232382288E-01 -0.72497720817E-01  0.16427816787E-01  0.83592875680E-01  0.51100000000E-03 0.  1.
</event>
<event>
 8    1  0.2846344E+004  0.1043930E+01  0.7957747E-01            NaN
         13   -1    0    0    0    0  0.00000000000E+00  0.00000000000E+00  0.74505805969E-08  0.10566000000E+00  0.10566000000E+00 0.  1.
     999900   -1    0    0    0    0 -0.00000000000E+00 -0.00000000000E+00 -0.74505805969E-08  0.93827000000E+00  0.93827000000E+00 0. -1.
     999902    2    1    2    0    0 -0.31527155510E-02  0.13273526857E-01 -0.18146000116E-02  0.10301670460E+01  0.10300751058E+01 0.  0.
     999903    2    3    3    0    0 -0.11824734669E+00 -0.48425865703E-01 -0.35151349198E-01  0.13990588877E+00  0.44839055461E-01 0.  0.
         14    1    1    2    0    0  0.31527155510E-02 -0.13273526857E-01  0.18146000116E-02  0.13762954035E-01  0.00000000000E+00 0. -1.
     999901    1    3    3    0    0  0.11509463114E+00  0.61699392560E-01  0.33336749186E-01  0.89026115719E+00  0.88000000000E+00 0.  1.
        -11    1    4    4    0    0 -0.10744562587E+00 -0.26247493713E-01 -0.31152780382E-01  0.11490974847E+00  0.51100000000E-03 0.  1.
         11    1    4    4    0    0 -0.10801720815E-01 -0.22178371990E-01 -0.39985688162E-02  0.24996140307E-01  0.51100000000E-03 0. -1.
</event>
<event>
 8    1  0.2846344E+004  0.1043930E+01  0.7957747E-01            NaN
         13   -1    0    0    0    0  0.00000000000E+00  0.00000000000E+00  0.74505805969E-08  0.10566000000E+00  0.10566000000E+00 0.  1.
     999900   -1    0    0    0    0 -0.00000000000E+00 -0.00000000000E+00 -0.74505805969E-08  0.93827000000E+00  0.93827000000E+00 0.  1.
     999902    2    1    2    0    0 -0.11252848164E-01  0.85174062614E-02 -0.46536367174E-02  0.10290696791E+01  0.10289623780E+01 0.  0.
     999903    2    3    3    0    0  0.60405313894E-01  0.10724356776E+00  0.47138766881E-01  0.13914597442E+00  0.44604417758E-01 0.  0.
         14    1    1    2    0    0  0.11252848164E-01 -0.85174062614E-02  0.46536367174E-02  0.14860320855E-01  0.00000000000E+00 0. -1.
     999901    1    3    3    0    0 -0.71658162057E-01 -0.98726161496E-01 -0.51792403598E-01  0.88992370472E+00  0.88000000000E+00 0. -1.
        -11    1    4    4    0    0  0.47229930182E-02 -0.16670411567E-02  0.10191559121E-01  0.11367263856E-01  0.51100000000E-03 0.  1.
         11    1    4    4    0    0  0.55682320875E-01  0.10891060891E+00  0.36947207760E-01  0.12777871057E+00  0.51100000000E-03 0. -1.
</event>
<event>
 8    1  0.2846344E+004  0.1043930E+01  0.7957747E-01            NaN
         13   -1    0    0    0    0  0.00000000000E+00  0.00000000000E+00  0.74505805969E-08  0.10566000000E+00  0.10566000000E+00 0.  1.
     999900   -1    0    0    0    0 -0.00000000000E+00 -0.00000000000E+00 -0.74505805969E-08  0.93827000000E+00  0.93827000000E+00 0.  1.
     999902    2    1    2    0    0  0.11557707588E-01 -0.49392838713E-02 -0.60252227578E-02  0.10299915482E+01  0.10298972322E+01 0.  0.
     999903    2    3    3    0    0  0.12194472244E+00  0.48208815275E-01  0.47600949407E-02  0.14143860290E+00  0.52797866296E-01 0.  0.
         14    1    1    2    0    0 -0.11557707588E-01  0.49392838713E-02  0.60252227578E-02  0.13938451820E-01  0.00000000000E+00 0. -1.
     999901    1    3    3    0    0 -0.11038701485E+00 -0.53148099146E-01 -0.10785317698E-01  0.88855294528E+00  0.88000000000E+00 0.  1.
        -11    1    4    4    0    0  0.10501409455E+00  0.17950297096E-01  0.63291903224E-02  0.10672625258E+00  0.51100000000E-03 0. -1.
         11    1    4    4    0    0  0.16930627892E-01  0.30258518178E-01 -0.15690953817E-02  0.34712350316E-01  0.51100000000E-03 0.  1.
</event>
<event>
 8    1  0.2846344E+004  0.1043930E+01  0.7957747E-01            NaN
         13   -1    0    0    0    0  0.00000000000E+00  0.00000000000E+00  0.74505805969E-08  0.10566000000E+00  0.10566000000E+00 0. -1.
     999900   -1    0    0    0    0 -0.00000000000E+00 -0.00000000000E+00 -0.74505805969E-08  0.93827000000E+00  0.93827000000E+00 0.  1.
     999902    2    1    2    0    0  0.17765361426E-01 -0.91057209294E-02  0.10450242615E-01  0.10213971398E+01  0.10211485628E+01 0.  0.
     999903    2    3    3    0    0  0.11940155347E+00  0.27960166491E-01  0.31928275322E-01  0.13451208439E+00  0.45117448943E-01 0.  0.
         14    1    1    2    0    0 -0.17765361426E-01  0.91057209294E-02 -0.10450242615E-01  0.22532860248E-01  0.00000000000E+00 0.  1.
     999901    1    3    3    0    0 -0.10163619205E+00 -0.37065887420E-01 -0.21478032707E-01  0.88688505537E+00  0.88000000000E+00 0. -1.
        -11    1    4    4    0    0  0.94959072676E-01  0.35454706978E-01  0.11956236599E-01  0.10206602983E+00  0.51100000000E-03 0.  1.
         11    1    4    4    0    0  0.24442480795E-01 -0.74945404873E-02  0.19972038723E-01  0.32446054557E-01  0.51100000000E-03 0. -1.
</event>
<event>
 8    1  0.2846344E+004  0.1043930E+01  0.7957747E-01            NaN
         13   -1    0    0    0    0  0.00000000000E+00  0.00000000000E+00  0.74505805969E-08  0.10566000000E+00  0.10566000000E+00 0.  1.
     999900   -1    0    0    0    0 -0.00000000000E+00 -0.00000000000E+00 -0.74505805969E-08  0.93827000000E+00  0.93827000000E+00 0.  1.
     999902    2    1    2    0    0  0.12070042900E-01  0.41584896851E-02  0.22398932506E-02  0.10309686693E+01  0.10308871912E+01 0.  0.
     999903    2    3    3    0    0  0.11733684463E+00 -0.58400966645E-01  0.31679893219E-01  0.14200213520E+00  0.44523957087E-01 0.  0.
         14    1    1    2    0    0 -0.12070042900E-01 -0.41584896851E-02 -0.22398932506E-02  0.12961330713E-01  0.00000000000E+00 0. -1.
     999901    1    3    3    0    0 -0.10526680173E+00  0.62559456330E-01 -0.29439999968E-01  0.88896653408E+00  0.88000000000E+00 0. -1.
        -11    1    4    4    0    0  0.42032302532E-01 -0.21736224135E-01  0.33904919501E-01  0.58214968721E-01  0.51100000000E-03 0. -1.
         11    1    4    4    0    0  0.75304542100E-01 -0.36664742510E-01 -0.22250262820E-02  0.83787166482E-01  0.51100000000E-03 0.  1.
</event>
<event>
 8    1  0.2846344E+004  0.1043930E+01  0.7957747E-01            NaN
         13   -1    0    0    0    0  0.00000000000E+00  0.00000000000E+00  0.74505805969E-08  0.10566000000E+00  0.10566000000E+00 0. -1.
     999900   -1    0    0    0    0 -0.00000000000E+00 -0.00000000000E+00 -0.74505805969E-08  0.93827000000E+00  0.93827000000E+00 0. -1.
     999902    2    1    2    0    0  0.89053635939E-02  0.12765254436E-01  0.11449937913E-01  0.10246075183E+01  0.10244253063E+01 0.  0.
     999903    2    3    3    0    0 -0.43589986219E-01  0.29452380586E-01  0.11766760716E+00  0.13651044296E+00  0.44965605094E-01 0.  0.
         14    1    1    2    0    0 -0.89053635939E-02 -0.12765254436E-01 -0.11449937913E-01  0.19322481719E-01  0.00000000000E+00 0.  1.
     999901    1    3    3    0    0  0.52495349813E-01 -0.16687126149E-01 -0.10621766925E+00  0.88809707532E+00  0.88000000000E+00 0. -1.
        -11    1    4    4    0    0 -0.23612331520E-01  0.13725367151E-01  0.15885810582E-01  0.31599810159E-01  0.51100000000E-03 0.  1.
         11    1    4    4    0    0 -0.19977654699E-01  0.15727013434E-01  0.10178179658E+00  0.10491063280E+00  0.51100000000E-03 0. -1.
</event>
<event>
 8    1  0.2846344E+004  0.1043930E+01  0.7957747E-01            NaN
         13   -1    0    0    0    0  0.00000000000E+00  0.00000000000E+00  0.74505805969E-08  0.10566000000E+00  0.10566000000E+00 0.  1.
     999900   -1    0    0    0    0 -0.00000000000E+00 -0.00000000000E+00 -0.74505805969E-08  0.93827000000E+00  0.93827000000E+00 0.  1.
     999902    2    1    2    0    0  0.10122816719E-01  0.29957570107E-02  0.80797417013E-02  0.10306360839E+01  0.10305503429E+01 0.  0.
     999903    2    3    3    0    0 -0.95024503618E-01  0.29913579027E-03  0.94052652061E-01  0.14021226796E+00  0.42235446682E-01 0.  0.
         14    1    1    2    0    0 -0.10122816719E-01 -0.29957570107E-02 -0.80797417013E-02  0.13293916066E-01  0.00000000000E+00 0. -1.
     999901    1    3    3    0    0  0.10514732034E+00  0.26966212204E-02 -0.85972910360E-01  0.89042381598E+00  0.88000000000E+00 0. -1.
        -11    1    4    4    0    0 -0.79253617636E-01  0.16949139429E-01  0.72954807307E-01  0.10904620244E+00  0.51100000000E-03 0. -1.
         11    1    4    4    0    0 -0.15770885982E-01 -0.16650003639E-01  0.21097844754E-01  0.31166065522E-01  0.51100000000E-03 0.  1.
</event>
<event>
 8    1  0.2846344E+004  0.1043930E+01  0.7957747E-01            NaN
         13   -1    0    0    0    0  0.00000000000E+00  0.00000000000E+00  0.74505805969E-08  0.10566000000E+00  0.10566000000E+00 0. -1.
     999900   -1    0    0    0    0 -0.00000000000E+00 -0.00000000000E+00 -0.74505805969E-08  0.93827000000E+00  0.93827000000E+00 0.  1.
     999902    2    1    2    0    0 -0.14352337126E-02 -0.82176310269E-02 -0.10606150426E-01  0.10304363058E+01  0.10303479512E+01 0.  0.
     999903    2    3    3    0    0 -0.10655740890E+00 -0.28606349104E-01  0.73003722372E-01  0.14001113639E+00  0.45834160094E-01 0.  0.
         14    1    1    2    0    0  0.14352337126E-02  0.82176310269E-02  0.10606150426E-01  0.13493694170E-01  0.00000000000E+00 0. -1.
     999901    1    3    3    0    0  0.10512217519E+00  0.20388718077E-01 -0.83609872799E-01  0.89042516944E+00  0.88000000000E+00 0.  1.
        -11    1    4    4    0    0 -0.86345704387E-01 -0.25581883844E-01  0.34542528032E-01  0.96454449410E-01  0.51100000000E-03 0. -1.
         11    1    4    4    0    0 -0.20211704518E-01 -0.30244652599E-02  0.38461194340E-01  0.43556686980E-01  0.51100000000E-03 0.  1.
</event>
<event>
 8    1  0.2846344E+004  0.1043930E+01  0.7957747E-01            NaN
         13   -1    0    0    0    0  0.00000000000E+00  0.00000000000E+00  0.74505805969E-08  0.10566000000E+00  0.10566000000E+00 0. -1.
     999900   -1    0    0    0    0 -0.00000000000E+00 -0.00000000000E+00 -0.74505805969E-08  0.93827000000E+00  0.93827000000E+00 0. -1.
     999902    2    1    2    0    0 -0.10392713836E-01 -0.86681089695E-02  0.31691727723E-03  0.10303931964E+01  0.10303042726E+01 0.  0.
     999903    2    3    3    0    0 -0.40985792806E-02 -0.60631458406E-01 -0.11868378556E+00  0.14084220123E+00  0.45362017051E-01 0.  0.
         14    1    1    2    0    0  0.10392713836E-01  0.86681089695E-02 -0.31691727723E-03  0.13536803557E-01  0.00000000000E+00 0.  1.
     999901    1    3    3    0    0 -0.62941345553E-02  0.51963349436E-01  0.11900070284E+00  0.88955099522E+00  0.88000000000E+00 0.  1.
        -11    1    4    4    0    0 -0.15273125880E-01 -0.31061486559E-01 -0.95662995608E-01  0.10173374156E+00  0.51100000000E-03 0. -1.
         11    1    4    4    0    0  0.11174546600E-01 -0.29569971847E-01 -0.23020789953E-01  0.39108459671E-01  0.51100000000E-03 0.  1.
</event>
<event>
 8    1  0.2846344E+004  0.1043930E+01  0.7957747E-01            NaN
         13   -1    0    0    0    0  0.00000000000E+00  0.00000000000E+00  0.74505805969E-08  0.10566000000E+00  0.10566000000E+00 0.  1.
     999900   -1    0    0    0    0 -0.00000000000E+00 -0.00000000000E+00 -0.74505805969E-08  0.93827000000E+00  0.93827000000E+00 0. -1.
     999902    2    1    2    0    0 -0.91561196240E-02  0.81740653659E-02  0.54866996100E-02  0.10304855311E+01  0.10303978242E+01 0.  0.
     999903    2    3    3    0    0  0.59864068773E-01 -0.10846689315E+00  0.45543296104E-01  0.13920923807E+00  0.44229475517E-01 0.  0.
         14    1    1    2    0    0  0.91561196240E-02 -0.81740653659E-02 -0.54866996100E-02  0.13444468892E-01  0.00000000000E+00 0. -1.
     999901    1    3    3    0    0 -0.69020188397E-01  0.11664095851E+00 -0.40056596494E-01  0.89127629304E+00  0.88000000000E+00 0. -1.
        -11    1    4    4    0    0  0.31994995808E-01 -0.63166426249E-01  0.48679037770E-01  0.85927801095E-01  0.51100000000E-03 0. -1.
         11    1    4    4    0    0  0.27869072965E-01 -0.45300466900E-01 -0.31357416664E-02  0.53281436975E-01  0.51100000000E-03 0.  1.
</event>
<event>
 8    1  0.2846344E+004  0.1043930E+01  0.7957747E-01            NaN
         13   -1    0    0    0    0  0.00000000000E+00  0.00000000000E+00  0.74505805969E-08  0.10566000000E+00  0.10566000000E+00 0.  1.
     999900   -1    0    0    0    0 -0.00000000000E+00 -0.00000000000E+00 -0.74505805969E-08  0.93827000000E+00  0.93827000000E+00 0. -1.
     999902    2    1    2    0    0  0.96167910052E-02  0.33741676158E-02  0.99838231463E-02  0.10296631012E+01  0.10295642562E+01 0.  0.
     999903    2    3    3    0    0 -0.18146417776E-01  0.11854435960E+00 -0.55190922814E-01  0.13933579264E+00  0.44568682698E-01 0.  0.
         14    1    1    2    0    0 -0.96167910052E-02 -0.33741676158E-02 -0.99838231463E-02  0.14266898785E-01  0.00000000000E+00 0. -1.
     999901    1    3    3    0    0  0.27763208781E-01 -0.11517019199E+00  0.65174745960E-01  0.89032730858E+00  0.88000000000E+00 0. -1.
        -11    1    4    4    0    0  0.77545544435E-02  0.49293371805E-01 -0.53952036964E-02  0.50193017068E-01  0.51100000000E-03 0. -1.
         11    1    4    4    0    0 -0.25900972219E-01  0.69250987799E-01 -0.49795719118E-01  0.89142775571E-01  0.51100000000E-03 0.  1.
</event>
<event>
 8    1  0.2846344E+004  0.1043930E+01  0.7957747E-01            NaN
         13   -1    0    0    0    0  0.00000000000E+00  0.00000000000E+00  0.74505805969E-08  0.10566000000E+00  0.10566000000E+00 0.  1.
     999900   -1    0    0    0    0 -0.00000000000E+00 -0.00000000000E+00 -0.74505805969E-08  0.93827000000E+00  0.93827000000E+00 0. -1.
     999902    2    1    2    0    0 -0.13778969520E-01 -0.55847035692E-02 -0.13479170518E-02  0.10290013097E+01  0.10288930117E+01 0.  0.
     999903    2    3    3    0    0  0.71227214171E-01 -0.11000243068E+00  0.36828208025E-02  0.13874605338E+00  0.45420847271E-01 0.  0.
         14    1    1    2    0    0  0.13778969520E-01  0.55847035692E-02  0.13479170518E-02  0.14928690343E-01  0.00000000000E+00 0.  1.
     999901    1    3    3    0    0 -0.85006183691E-01  0.10441772711E+00 -0.50307378543E-02  0.89025525627E+00  0.88000000000E+00 0. -1.
        -11    1    4    4    0    0  0.23858731716E-01 -0.65746158511E-01  0.18285344238E-01  0.72293923486E-01  0.51100000000E-03 0.  1.
         11    1    4    4    0    0  0.47368482456E-01 -0.44256272166E-01 -0.14602523436E-01  0.66452129897E-01  0.51100000000E-03 0. -1.
</event>
<event>
 8    1  0.2846344E+004  0.1043930E+01  0.7957747E-01            NaN
         13   -1    0    0    0    0  0.00000000000E+00  0.00000000000E+00  0.74505805969E-08  0.10566000000E+00  0.10566000000E+00 0.  1.
     999900   -1    0    0    0    0 -0.00000000000E+00 -0.00000000000E+00 -0.74505805969E-08  0.93827000000E+00  0.93827000000E+00 0.  1.
     999902    2    1    2    0    0 -0.29777323772E-02  0.57043229699E-03 -0.13324008492E-01  0.10302653930E+01  0.10301747708E+01 0.  0.
     999903    2    3    3    0    0  0.49455862651E-01  0.54687637178E-01  0.10863963451E+00  0.13866397755E+00  0.44592695290E-01 0.  0.
         14    1    1    2    0    0  0.29777323772E-02 -0.57043229699E-03  0.13324008492E-01  0.13664607034E-01  0.00000000000E+00 0.  1.
     999901    1    3    3    0    0 -0.52433595028E-01 -0.54117204881E-01 -0.12196364300E+00  0.89160141541E+00  0.88000000000E+00 0. -1.
        -11    1    4    4    0    0  0.10399746193E-01 -0.27984823025E-02  0.38267164501E-01  0.39757052506E-01  0.51100000000E-03 0. -1.
         11    1    4    4    0    0  0.39056116457E-01  0.57486119480E-01  0.70372470011E-01  0.98906925046E-01  0.51100000000E-03 0.  1.
</event>
<event>
 8    1  0.2846344E+004  0.1043930E+01  0.7957747E-01            NaN
         13   -1    0    0    0    0  0.00000000000E+00  0.00000000000E+00  0.74505805969E-08  0.10566000000E+00  0.10566000000E+00 0. -1.
     999900   -1    0    0    0    0 -0.00000000000E+00 -0.00000000000E+00 -0.74505805969E-08  0.93827000000E+00  0.93827000000E+00 0.  1.
     999902    2    1    2    0    0  0.76283005608E-02 -0.11413860122E-01  0.43481921037E-04  0.10302015965E+01  0.10301101205E+01 0.  0.
     999903    2    3    3    0    0 -0.11644852302E+00 -0.49863237239E-01  0.38039099573E-01  0.13985498998E+00  0.45451558665E-01 0.  0.
         14    1    1    2    0    0 -0.76283005608E-02  0.11413860122E-01 -0.43481921037E-04  0.13728403512E-01  0.00000000000E+00 0.  1.
     999901    1    3    3    0    0  0.12407682358E+00  0.38449377117E-01 -0.37995617652E-01  0.89034660650E+00  0.88000000000E+00 0.  1.
        -11    1    4    4    0    0 -0.54815767948E-01 -0.56617321630E-02  0.32099537669E-01  0.63776681212E-01  0.51100000000E-03 0.  1.
         11    1    4    4    0    0 -0.61632755074E-01 -0.44201505076E-01  0.59395619037E-02  0.76078308772E-01  0.51100000000E-03 0. -1.
</event>
<event>
 8    1  0.2846344E+004  0.1043930E+01  0.7957747E-01            NaN
         13   -1    0    0    0    0  0.00000000000E+00  0.00000000000E+00  0.74505805969E-08  0.10566000000E+00  0.10566000000E+00 0.  1.
     999900   -1    0    0    0    0 -0.00000000000E+00 -0.00000000000E+00 -0.74505805969E-08  0.93827000000E+00  0.93827000000E+00 0.  1.
     999902    2    1    2    0    0  0.53973501104E-02 -0.52250928992E-02  0.95698268265E-02  0.10317638762E+01  0.10316921448E+01 0.  0.
     999903    2    3    3    0    0  0.68965538269E-01 -0.11598002145E+00 -0.18666882737E-02  0.14247294365E+00  0.45688557701E-01 0.  0.
         14    1    1    2    0    0 -0.53973501104E-02  0.52250928992E-02 -0.95698268265E-02  0.12166123849E-01  0.00000000000E+00 0. -1.
     999901    1    3    3    0    0 -0.63568188159E-01  0.11075492855E+00  0.11436515100E-01  0.88929093250E+00  0.88000000000E+00 0. -1.
        -11    1    4    4    0    0  0.51067919063E-01 -0.41363421734E-01 -0.21485044942E-03  0.65720410047E-01  0.51100000000E-03 0. -1.
         11    1    4    4    0    0  0.17897619206E-01 -0.74616599713E-01 -0.16518378243E-02  0.76752533608E-01  0.51100000000E-03 0.  1.
</event>
<event>
 8    1  0.2846344E+004  0.1043930E+01  0.7957747E-01            NaN
         13   -1    0    0    0    0  0.00000000000E+00  0.00000000000E+00  0.74505805969E-08  0.10566000000E+00  0.10566000000E+00 0. -1.
     999900   -1    0    0    0    0 -0.00000000000E+00 -0.00000000000E+00 -0.74505805969E-08  0.93827000000E+00  0.93827000000E+00 0.  1.
     999902    2    1    2    0    0 -0.11594131531E-02 -0.12615056470E-03  0.13964314170E-01  0.10299170694E+01  0.10298217359E+01 0.  0.
     999903    2    3    3    0    0  0.83462926950E-01  0.12381884343E-01  0.10393887575E+00  0.14120293479E+00  0.44895519435E-01 0.  0.
         14    1    1    2    0    0  0.11594131531E-02  0.12615056470E-03 -0.13964314170E-01  0.14012930567E-01  0.00000000000E+00 0.  1.
     999901    1    3    3    0    0 -0.84622340103E-01 -0.12508034908E-01 -0.89974561585E-01  0.88871413464E+00  0.88000000000E+00 0. -1.
        -11    1    4    4    0    0  0.74638533093E-01 -0.62924165636E-02  0.82359996307E-01  0.11132805235E+00  0.51100000000E-03 0. -1.
         11    1    4    4    0    0  0.88243938566E-02  0.18674300907E-01  0.21578879448E-01  0.29874882436E-01  0.51100000000E-03 0.  1.
</event>
<event>
 8    1  0.2846344E+004  0.1043930E+01  0.7957747E-01            NaN
         13   -1    0    0    0    0  0.00000000000E+00  0.00000000000E+00  0.74505805969E-08  0.10566000000E+00  0.10566000000E+00 0.  1.
     999900   -1    0    0    0    0 -0.00000000000E+00 -0.00000000000E+00 -0.74505805969E-08  0.93827000000E+00  0.93827000000E+00 0. -1.
     999902    2    1    2    0    0 -0.13590414072E-01  0.21993400928E-02  0.62073577907E-02  0.10288280881E+01  0.10287172435E+01 0.  0.
     999903    2    3    3    0    0  0.49529532943E-01  0.83141268409E-01  0.89019771403E-01  0.13900022875E+00  0.45065493966E-01 0.  0.
         14    1    1    2    0    0  0.13590414072E-01 -0.21993400928E-02 -0.62073577907E-02  0.15101911873E-01  0.00000000000E+00 0. -1.
     999901    1    3    3    0    0 -0.63119947015E-01 -0.80941928316E-01 -0.82812413612E-01  0.88982785937E+00  0.88000000000E+00 0. -1.
        -11    1    4    4    0    0  0.25117287910E-01  0.74674631831E-01  0.78122194097E-01  0.11095276978E+00  0.51100000000E-03 0. -1.
         11    1    4    4    0    0  0.24412245033E-01  0.84666365782E-02  0.10897577306E-01  0.28047458969E-01  0.51100000000E-03 0.  1.
</event>
<event>
 8    1  0.2846344E+004  0.1043930E+01  0.7957747E-01            NaN
         13   -1    0    0    0    0  0.00000000000E+00  0.00000000000E+00  0.74505805969E-08  0.10566000000E+00  0.10566000000E+00 0.  1.
     999900   -1    0    0    0    0 -0.00000000000E+00 -0.00000000000E+00 -0.74505805969E-08  0.93827000000E+00  0.93827000000E+00 0. -1.
     999902    2    1    2    0    0  0.10388804691E-01  0.70535108588E-02  0.55040520179E-02  0.10302196438E+01  0.10301284098E+01 0.  0.
     999903    2    3    3    0    0  0.21915270260E-01  0.12869633224E+00 -0.28402321018E-01  0.14113051580E+00  0.45476429612E-01 0.  0.
         14    1    1    2    0    0 -0.10388804691E-01 -0.70535108588E-02 -0.55040520179E-02  0.13710356194E-01  0.00000000000E+00 0. -1.
     999901    1    3    3    0    0 -0.11526465569E-01 -0.12164282138E+00  0.33906373036E-01  0.88908912800E+00  0.88000000000E+00 0. -1.
        -11    1    4    4    0    0  0.67964768529E-02  0.37413627188E-01 -0.30236347825E-01  0.48584662680E-01  0.51100000000E-03 0. -1.
         11    1    4    4    0    0  0.15118793407E-01  0.91282705048E-01  0.18340268072E-02  0.92545853123E-01  0.51100000000E-03 0.  1.
</event>
<event>
 8    1  0.2846344E+004  0.1043930E+01  0.7957747E-01            NaN
         13   -1    0    0    0    0  0.00000000000E+00  0.00000000000E+00  0.74505805969E-08  0.10566000000E+00  0.10566000000E+00 0. -1.
     999900   -1    0    0    0    0 -0.00000000000E+00 -0.00000000000E+00 -0.74505805969E-08  0.93827000000E+00  0.93827000000E+00 0. -1.
     999902    2    1    2    0    0 -0.10802628912E-01 -0.92879758051E-02  0.48596566060E-02  0.10288774405E+01  0.10287673245E+01 0.  0.
     999903    2    3    3    0    0  0.71642678277E-01  0.10761242356E+00  0.94067816685E-02  0.13731498703E+00  0.45318992320E-01 0.  0.
         14    1    1    2    0    0  0.10802628912E-01  0.92879758051E-02 -0.48596566060E-02  0.15052559527E-01  0.00000000000E+00 0. -1.
     999901    1    3    3    0    0 -0.82445307189E-01 -0.11690039937E+00 -0.45471250625E-02  0.89156245345E+00  0.88000000000E+00 0. -1.
        -11    1    4    4    0    0  0.36928361140E-01  0.84303973370E-01  0.19979948036E-01  0.94182393402E-01  0.51100000000E-03 0.  1.
         11    1    4    4    0    0  0.34714317137E-01  0.23308450193E-01 -0.10573166368E-01  0.43132593624E-01  0.51100000000E-03 0. -1.
</event>
<event>
 8    1  0.2846344E+004  0.1043930E+01  0.7957747E-01            NaN
         13   -1    0    0    0    0  0.00000000000E+00  0.00000000000E+00  0.74505805969E-08  0.10566000000E+00  0.10566000000E+00 0. -1.
     999900   -1    0    0    0    0 -0.00000000000E+00 -0.00000000000E+00 -0.74505805969E-08  0.93827000000E+00  0.93827000000E+00 0.  1.
     999902    2    1    2    0    0 -0.19308138926E-02  0.12141716538E-01 -0.64078733465E-02  0.10300660120E+01  0.10299727078E+01 0.  0.
     999903    2    3    3    0    0  0.29587404411E-01 -0.10413831241E+00  0.73717325506E-01  0.13825073363E+00  0.44258543349E-01 0.  0.
         14    1    1    2    0    0  0.19308138926E-02 -0.12141716538E-01  0.64078733465E-02  0.13863988012E-01  0.00000000000E+00 0. -1.
     999901    1    3    3    0    0 -0.31518218304E-01  0.11628002895E+00 -0.80125198852E-01  0.89181527836E+00  0.88000000000E+00 0.  1.
        -11    1    4    4    0    0 -0.55437467923E-02 -0.11430229456E-01  0.24412697001E-01  0.27524973565E-01  0.51100000000E-03 0. -1.
         11    1    4    4    0    0  0.35131151204E-01 -0.92708082952E-01  0.49304628505E-01  0.11072576007E+00  0.51100000000E-03 0.  1.
</event>
<event>
 7    1  0.2846344E+004  0.1043930E+01  0.7957747E-01            NaN
         13   -1    0    0    0    0  0.00000000000E+00  0.00000000000E+00  0.74505805969E-08  0.10566000000E+00  0.10566000000E+00 0. -1.
     999900   -1    0    0    0    0 -0.00000000000E+00 -0.00000000000E+00 -0.74505805969E-08  0.93827000000E+00  0.93827000000E+00 0.  1.
     999902    2    1    2    0    0  0.30684839516E-02 -0.11389274707E-01  0.59274964155E-02  0.10307290006E+01  0.10306444616E+01 0.  0.
         14    1    1    2    0    0 -0.30684839516E-02  0.11389274707E-01 -0.59274964155E-02  0.13200999427E-01  0.00000000000E+00 0. -1.
     999901    1    3    3    0    0  0.36963104281E-02  0.11146080847E+00  0.14657917558E-01  0.88715952854E+00  0.88000000000E+00 0.  1.
        -11    1    3    3    0    0  0.18783997533E-01 -0.38100392149E-01  0.26152706405E-01  0.49886908288E-01  0.51100000000E-03 0. -1.
         11    1    3    3    0    0 -0.19411824009E-01 -0.84749691029E-01 -0.34883127548E-01  0.93682563743E-01  0.51100000000E-03 0.  1.
</event>
<event>
 8    1  0.2846344E+004  0.1043930E+01  0.7957747E-01            NaN
         13   -1    0    0    0    0  0.00000000000E+00  0.00000000000E+00  0.74505805969E-08  0.10566000000E+00  0.10566000000E+00 0. -1.
     999900   -1    0    0    0    0 -0.00000000000E+00 -0.00000000000E+00 -0.74505805969E-08  0.93827000000E+00  0.93827000000E+00 0. -1.
     999902    2    1    2    0    0  0.35692948577E-02  0.11960378687E-01  0.53494888997E-02  0.10303503256E+01  0.10302608340E+01 0.  0.
     999903    2    3    3    0    0 -0.99931794342E-03 -0.47016929202E-01 -0.12286299068E+00  0.13909411389E+00  0.45169323355E-01 0.  0.
         14    1    1    2    0    0 -0.35692948577E-02 -0.11960378687E-01 -0.53494888997E-02  0.13579674356E-01  0.00000000000E+00 0.  1.
     999901    1    3    3    0    0  0.45686128011E-02  0.58977307890E-01  0.12821247958E+00  0.89125621175E+00  0.88000000000E+00 0.  1.
        -11    1    4    4    0    0 -0.96419134332E-02 -0.30776950082E-01 -0.11435849768E+00  0.11882051281E+00  0.51100000000E-03 0. -1.
         11    1    4    4    0    0  0.86425954898E-02 -0.16239979120E-01 -0.85044929951E-02  0.20273601080E-01  0.51100000000E-03 0.  1.
</event>
<event>
 8    1  0.2846344E+004  0.1043930E+01  0.7957747E-01            NaN
         13   -1    0    0    0    0  0.00000000000E+00  0.00000000000E+00  0.74505805969E-08  0.10566000000E+00  0.10566000000E+00 0.  1.
     999900   -1    0    0    0    0 -0.00000000000E+00 -0.00000000000E+00 -0.74505805969E-08  0.93827000000E+00  0.93827000000E+00 0. -1.
     999902    2    1    2    0    0 -0.10435720690E-01  0.84481237022E-02 -0.20664008954E-02  0.10303452632E+01  0.10302557044E+01 0.  0.
     999903    2    3    3    0    0 -0.50820930401E-01  0.11190612635E+00 -0.54274433355E-01  0.14182953342E+00  0.45432965471E-01 0.  0.
         14    1    1    2    0    0  0.10435720690E-01 -0.84481237022E-02  0.20664008954E-02  0.13584736769E-01  0.00000000000E+00 0.  1.
     999901    1    3    3    0    0  0.40385209711E-01 -0.10345800265E+00  0.52208032460E-01  0.88851572982E+00  0.88000000000E+00 0.  1.
        -11    1    4    4    0    0 -0.32216059626E-01  0.41728275398E-01 -0.43665058518E-01  0.68454524480E-01  0.51100000000E-03 0. -1.
         11    1    4    4    0    0 -0.18604870775E-01  0.70177850953E-01 -0.10609374838E-01  0.73375008936E-01  0.51100000000E-03 0.  1.
</event>
<event>
 8    1  0.2846344E+004  0.1043930E+01  0.7957747E-01            NaN
         13   -1    0    0    0    0  0.00000000000E+00  0.00000000000E+00  0.74505805969E-08  0.10566000000E+00  0.10566000000E+00 0.  1.
     999900   -1    0    0    0    0 -0.00000000000E+00 -0.00000000000E+00 -0.74505805969E-08  0.93827000000E+00  0.93827000000E+00 0. -1.
     999902    2    1    2    0    0 -0.74160479612E-03 -0.12068288705E-01 -0.54289155622E-02  0.10306760687E+01  0.10305908460E+01 0.  0.
     999903    2    3    3    0    0  0.55669865750E-01 -0.76094111066E-02 -0.12158287943E+00  0.14124148489E+00  0.44829938592E-01 0.  0.
         14    1    1    2    0    0  0.74160479612E-03  0.12068288705E-01  0.54289155622E-02  0.13253931271E-01  0.00000000000E+00 0.  1.
     999901    1    3    3    0    0 -0.56411470546E-01 -0.44588775988E-02  0.11615396387E+00  0.88943458383E+00  0.88000000000E+00 0.  1.
        -11    1    4    4    0    0  0.10057535782E-01 -0.15752129714E-01 -0.11872302432E-01  0.22147151117E-01  0.51100000000E-03 0. -1.
         11    1    4    4    0    0  0.45612329968E-01  0.81427186073E-02 -0.10971057700E+00  0.11909433378E+00  0.51100000000E-03 0.  1.
</event>
<event>
 8    1  0.2846344E+004  0.1043930E+01  0.7957747E-01            NaN
         13   -1    0    0    0    0  0.00000000000E+00  0.00000000000E+00  0.74505805969E-08  0.10566000000E+00  0.10566000000E+00 0. -1.
     999900   -1    0    0    0    0 -0.00000000000E+00 -0.00000000000E+00 -0.74505805969E-08  0.93827000000E+00  0.93827000000E+00 0.  1.
     999902    2    1    2    0    0 -0.22384901513E-02  0.10134202492E-01 -0.10462503066E-01  0.10291930780E+01  0.10290875643E+01 0.  0.
     999903    2    3    3    0    0  0.90306325754E-01  0.78304339345E-01 -0.57313593486E-01  0.14048236292E+00  0.46514989640E-01 0.  0.
         14    1    1    2    0    0  0.22384901513E-02 -0.10134202492E-01  0.10462503066E-01  0.14736921955E-01  0.00000000000E+00 0. -1.
     999901    1    3    3    0    0 -0.92544815905E-01 -0.68170136853E-01  0.46851090420E-01  0.88871071513E+00  0.88000000000E+00 0. -1.
        -11    1    4    4    0    0  0.23224484962E-01  0.49781513205E-01 -0.30339099038E-01  0.62755858772E-01  0.51100000000E-03 0. -1.
         11    1    4    4    0    0  0.67081840791E-01  0.28522826140E-01 -0.26974494448E-01  0.77726504145E-01  0.51100000000E-03 0.  1.
</event>
<event>
 8    1  0.2846344E+004  0.1043930E+01  0.7957747E-01            NaN
         13   -1    0    0    0    0  0.00000000000E+00  0.00000000000E+00  0.74505805969E-08  0.10566000000E+00  0.10566000000E+00 0.  1.
     999900   -1    0    0    0    0 -0.00000000000E+00 -0.00000000000E+00 -0.74505805969E-08  0.93827000000E+00  0.93827000000E+00 0. -1.
     999902    2    1    2    0    0 -0.96222715525E-02 -0.94750852588E-02  0.37016658314E-02  0.10299275831E+01  0.10298323935E+01 0.  0.
     999903    2    3    3    0    0 -0.10410536193E+00 -0.41717820967E-01  0.73575748137E-01  0.14153069216E+00  0.45157979793E-01 0.  0.
         14    1    1    2    0    0  0.96222715525E-02  0.94750852588E-02 -0.37016658314E-02  0.14002416949E-01  0.00000000000E+00 0. -1.
     999901    1    3    3    0    0  0.94483090380E-01  0.32242735708E-01 -0.69874082305E-01  0.88839689089E+00  0.88000000000E+00 0. -1.
        -11    1    4    4    0    0 -0.51920271246E-01 -0.25782304757E-01  0.63606809215E-01  0.86061193951E-01  0.51100000000E-03 0.  1.
         11    1    4    4    0    0 -0.52185090686E-01 -0.15935516210E-01  0.99689389216E-02  0.55469498204E-01  0.51100000000E-03 0. -1.
</event>
<event>
 7    1  0.2846344E+004  0.1043930E+01  0.7957747E-01            NaN
         13   -1    0    0    0    0  0.00000000000E+00  0.00000000000E+00  0.74505805969E-08  0.10566000000E+00  0.10566000000E+00 0.  1.
     999900   -1    0    0    0    0 -0.00000000000E+00 -0.00000000000E+00 -0.74505805969E-08  0.93827000000E+00  0.93827000000E+00 0.  1.
     999903    2    1    2    0    0  0.18509885538E-01 -0.71546080701E-01 -0.89498241859E-01  0.12457815481E+00  0.45258411753E-01 0.  0.
         14    1    1    2    0    0  0.41372064777E-02 -0.28567057325E-01 -0.11604317204E-03  0.28865320156E-01  0.00000000000E+00 0. -1.
     999901    1    1    2    0    0 -0.22647092015E-01  0.10011313803E+00  0.89614285031E-01  0.89048652503E+00  0.88000000000E+00 0. -1.
        -11    1    3    3    0    0  0.27226953761E-01 -0.21132821253E-01 -0.45605147823E-01  0.57166369258E-01  0.51100000000E-03 0.  1.
         11    1    3    3    0    0 -0.87170682235E-02 -0.50413259448E-01 -0.43893094036E-01  0.67411785554E-01  0.51100000000E-03 0. -1.
</event>
<event>
 8    1  0.2846344E+004  0.1043930E+01  0.7957747E-01            NaN
         13   -1    0    0    0    0  0.00000000000E+00  0.00000000000E+00  0.74505805969E-08  0.10566000000E+00  0.10566000000E+00 0. -1.
     999900   -1    0    0    0    0 -0.00000000000E+00 -0.00000000000E+00 -0.74505805969E-08  0.93827000000E+00  0.93827000000E+00 0.  1.
     999902    2    1    2    0    0 -0.61999924896E-02  0.89993663309E-02  0.91675794534E-02  0.10296656033E+01  0.10295667931E+01 0.  0.
     999903    2    3    3    0    0  0.18866589640E-01 -0.12751308265E+00  0.23633748660E-01  0.13866995102E+00  0.45335050336E-01 0.  0.
         14    1    1    2    0    0  0.61999924896E-02 -0.89993663309E-02 -0.91675794534E-02  0.14264396737E-01  0.00000000000E+00 0.  1.
     999901    1    3    3    0    0 -0.25066582129E-01  0.13651244898E+00 -0.14466169207E-01  0.89099565224E+00  0.88000000000E+00 0. -1.
        -11    1    4    4    0    0  0.29536105093E-01 -0.73493366781E-01  0.26516961717E-01  0.83528838401E-01  0.51100000000E-03 0.  1.
         11    1    4    4    0    0 -0.10669515453E-01 -0.54019715867E-01 -0.28832130563E-02  0.55141112619E-01  0.51100000000E-03 0. -1.
</event>
<event>
 8    1  0.2846344E+004  0.1043930E+01  0.7957747E-01            NaN
         13   -1    0    0    0    0  0.00000000000E+00  0.00000000000E+00  0.74505805969E-08  0.10566000000E+00  0.10566000000E+00 0. -1.
     999900   -1    0    0    0    0 -0.00000000000E+00 -0.00000000000E+00 -0.74505805969E-08  0.93827000000E+00  0.93827000000E+00 0. -1.
     999902    2    1    2    0    0  0.11059786113E-01 -0.98354526111E-02  0.40903957537E-02  0.10285746643E+01  0.10284600399E+01 0.  0.
     999903    2    3    3    0    0 -0.70605122103E-01  0.10825966281E+00  0.85019980049E-03  0.13693229632E+00  0.45216070999E-01 0.  0.
         14    1    1    2    0    0 -0.11059786113E-01  0.98354526111E-02 -0.40903957537E-02  0.15355335697E-01  0.00000000000E+00 0.  1.
     999901    1    3    3    0    0  0.81664908216E-01 -0.11809511542E+00  0.32401959532E-02  0.89164236799E+00  0.88000000000E+00 0. -1.
        -11    1    4    4    0    0 -0.19954590251E-01  0.55786098573E-01  0.18165797854E-01  0.61972024323E-01  0.51100000000E-03 0. -1.
         11    1    4    4    0    0 -0.50650531852E-01  0.52473564234E-01 -0.17315598054E-01  0.74960271993E-01  0.51100000000E-03 0.  1.
</event>
<event>
 8    1  0.2846344E+004  0.1043930E+01  0.7957747E-01            NaN
         13   -1    0    0    0    0  0.00000000000E+00  0.00000000000E+00  0.74505805969E-08  0.10566000000E+00  0.10566000000E+00 0. -1.
     999900   -1    0    0    0    0 -0.00000000000E+00 -0.00000000000E+00 -0.74505805969E-08  0.93827000000E+00  0.93827000000E+00 0. -1.
     999902    2    1    2    0    0 -0.78303879597E-02 -0.10526259115E-01 -0.20616388825E-02  0.10306496588E+01  0.10305640940E+01 0.  0.
     999903    2    3    3    0    0 -0.19080583322E-01 -0.10712391423E+00 -0.79395804637E-01  0.14192121490E+00  0.44702749198E-01 0.  0.
         14    1    1    2    0    0  0.78303879597E-02  0.10526259115E-01  0.20616388825E-02  0.13280341164E-01  0.00000000000E+00 0. -1.
     999901    1    3    3    0    0  0.11250195362E-01  0.96597655110E-01  0.77334165754E-01  0.88872844394E+00  0.88000000000E+00 0.  1.
        -11    1    4    4    0    0 -0.22070343436E-01 -0.46897932067E-01 -0.15588395579E-01  0.54127398693E-01  0.51100000000E-03 0.  1.
         11    1    4    4    0    0  0.29897601143E-02 -0.60225982158E-01 -0.63807409057E-01  0.87793816206E-01  0.51100000000E-03 0. -1.
</event>
<event>
 8    1  0.2846344E+004  0.1043930E+01  0.7957747E-01            NaN
         13   -1    0    0    0    0  0.00000000000E+00  0.00000000000E+00  0.74505805969E-08  0.10566000000E+00  0.10566000000E+00 0. -1.
     999900   -1    0    0    0    0 -0.00000000000E+00 -0.00000000000E+00 -0.74505805969E-08  0.93827000000E+00  0.93827000000E+00 0. -1.
     999902    2    1    2    0    0 -0.17007565596E-02  0.11595062858E-01  0.69973183832E-02  0.10302808051E+01  0.10301903887E+01 0.  0.
     999903    2    3    3    0    0  0.42564684284E-01 -0.36505541004E-01  0.12088768314E+00  0.14053695857E+00  0.44636284745E-01 0.  0.
         14    1    1    2    0    0  0.17007565596E-02 -0.11595062858E-01 -0.69973183832E-02  0.13649194852E-01  0.00000000000E+00 0.  1.
     999901    1    3    3    0    0 -0.44265440843E-01  0.48100603862E-01 -0.11389036476E+00  0.88974384658E+00  0.88000000000E+00 0. -1.
        -11    1    4    4    0    0  0.27892375047E-01 -0.43311192815E-01  0.68524829139E-01  0.85730725754E-01  0.51100000000E-03 0. -1.
         11    1    4    4    0    0  0.14672309237E-01  0.68056518103E-02  0.52362854001E-01  0.54806232812E-01  0.51100000000E-03 0.  1.
</event>
<event>
 8    1  0.2846344E+004  0.1043930E+01  0.7957747E-01            NaN
         13   -1    0    0    0    0  0.00000000000E+00  0.00000000000E+00  0.74505805969E-08  0.10566000000E+00  0.10566000000E+00 0. -1.
     999900   -1    0    0    0    0 -0.00000000000E+00 -0.00000000000E+00 -0.74505805969E-08  0.93827000000E+00  0.93827000000E+00 0. -1.
     999902    2    1    2    0    0 -0.70238021535E-02  0.13185792590E-01  0.43077327628E-02  0.10283815118E+01  0.10282639634E+01 0.  0.
     999903    2    3    3    0    0  0.46597963972E-01 -0.11349774405E+00  0.40783182224E-01  0.13694757110E+00  0.45147105423E-01 0.  0.
         14    1    1    2    0    0  0.70238021535E-02 -0.13185792590E-01 -0.43077327628E-02  0.15548488173E-01  0.00000000000E+00 0.  1.
     999901    1    3    3    0    0 -0.53621766126E-01  0.12668353664E+00 -0.36475449461E-01  0.89143394072E+00  0.88000000000E+00 0.  1.
        -11    1    4    4    0    0  0.28800341015E-01 -0.19193782485E-01  0.13727963141E-01  0.37236796608E-01  0.51100000000E-03 0.  1.
         11    1    4    4    0    0  0.17797622958E-01 -0.94303961566E-01  0.27055219083E-01  0.99710774497E-01  0.51100000000E-03 0. -1.
</event>
<event>
 8    1  0.2846344E+004  0.1043930E+01  0.7957747E-01            NaN
         13   -1    0    0    0    0  0.00000000000E+00  0.00000000000E+00  0.74505805969E-08  0.10566000000E+00  0.10566000000E+00 0. -1.
     999900   -1    0    0    0    0 -0.00000000000E+00 -0.00000000000E+00 -0.74505805969E-08  0.93827000000E+00  0.93827000000E+00 0.  1.
     999902    2    1    2    0    0  0.67855803519E-02 -0.11213510537E-01  0.49574257460E-02  0.10299170421E+01  0.10298217082E+01 0.  0.
     999903    2    3    3    0    0  0.65839953928E-01  0.84145852389E-01 -0.76857299996E-01  0.13903294386E+00  0.44807264010E-01 0.  0.
         14    1    1    2    0    0 -0.67855803519E-02  0.11213510537E-01 -0.49574257460E-02  0.14012957907E-01  0.00000000000E+00 0. -1.
     999901    1    3    3    0    0 -0.59054373576E-01 -0.95359362926E-01  0.81814725742E-01  0.89088409823E+00  0.88000000000E+00 0. -1.
        -11    1    4    4    0    0  0.40696947292E-01  0.16985525249E-01 -0.27464616642E-01  0.51954940816E-01  0.51100000000E-03 0. -1.
         11    1    4    4    0    0  0.25143006637E-01  0.67160327140E-01 -0.49392683354E-01  0.87078003044E-01  0.51100000000E-03 0.  1.
</event>
<event>
 8    1  0.2846344E+004  0.1043930E+01  0.7957747E-01            NaN
         13   -1    0    0    0    0  0.00000000000E+00  0.00000000000E+00  0.74505805969E-08  0.10566000000E+00  0.10566000000E+00 0. -1.
     999900   -1    0    0    0    0 -0.00000000000E+00 -0.00000000000E+00 -0.74505805969E-08  0.93827000000E+00  0.93827000000E+00 0. -1.
     999902    2    1    2    0    0 -0.10959923283E-02  0.53673423236E-02 -0.12705375797E-01  0.10300939552E+01  0.10300010293E+01 0.  0.
     999903    2    3    3    0    0  0.29700084972E-03  0.90031275442E-01  0.97259772119E-01  0.13921671571E+00  0.42615864345E-01 0.  0.
         14    1    1    2    0    0  0.10959923283E-02 -0.53673423236E-02  0.12705375797E-01  0.13836044845E-01  0.00000000000E+00 0. -1.
     999901    1    3    3    0    0 -0.13929931780E-02 -0.84663933119E-01 -0.10996514792E+00  0.89087723944E+00  0.88000000000E+00 0. -1.
        -11    1    4    4    0    0 -0.12967261016E-01  0.44165681886E-01  0.71298344995E-01  0.84867381453E-01  0.51100000000E-03 0.  1.
         11    1    4    4    0    0  0.13264261866E-01  0.45865593556E-01  0.25961427124E-01  0.54349334259E-01  0.51100000000E-03 0. -1.
</event>
<event>
 8    1  0.2846344E+004  0.1043930E+01  0.7957747E-01            NaN
         13   -1    0    0    0    0  0.00000000000E+00  0.00000000000E+00  0.74505805969E-08  0.10566000000E+00  0.10566000000E+00 0. -1.
     999900   -1    0    0    0    0 -0.00000000000E+00 -0.00000000000E+00 -0.74505805969E-08  0.93827000000E+00  0.93827000000E+00 0. -1.
     999902    2    1    2    0    0  0.26098147141E-02 -0.76714278589E-02 -0.10615160742E-01  0.10305754661E+01  0.10304889363E+01 0.  0.
     999903    2    3    3    0    0 -0.30950768198E-01 -0.13045184440E+00 -0.58807459282E-02  0.14140520226E+00  0.44555743647E-01 0.  0.
         14    1    1    2    0    0 -0.26098147141E-02  0.76714278589E-02  0.10615160742E-01  0.13354533905E-01  0.00000000000E+00 0. -1.
     999901    1    3    3    0    0  0.33560582912E-01  0.12278041655E+00 -0.47344148137E-02  0.88917026384E+00  0.88000000000E+00 0. -1.
        -11    1    4    4    0    0 -0.32089086239E-01 -0.87596335605E-01  0.13665871987E-01  0.94285972685E-01  0.51100000000E-03 0.  1.
         11    1    4    4    0    0  0.11383180404E-02 -0.42855508799E-01 -0.19546617916E-01  0.47119229571E-01  0.51100000000E-03 0. -1.
</event>
<event>
 8    1  0.2846344E+004  0.1043930E+01  0.7957747E-01            NaN
         13   -1    0    0    0    0  0.00000000000E+00  0.00000000000E+00  0.74505805969E-08  0.10566000000E+00  0.10566000000E+00 0.  1.
     999900   -1    0    0    0    0 -0.00000000000E+00 -0.00000000000E+00 -0.74505805969E-08  0.93827000000E+00  0.93827000000E+00 0.  1.
     999902    2    1    2    0    0 -0.45377526429E-02 -0.11238784180E-01 -0.35705243622E-03  0.10318044503E+01  0.10317331994E+01 0.  0.
     999903    2    3    3    0    0  0.48840681829E-01 -0.91099509661E-01  0.86599032626E-01  0.14231675873E+00  0.45498730768E-01 0.  0.
         14    1    1    2    0    0  0.45377526429E-02  0.11238784180E-01  0.35705243622E-03  0.12125549692E-01  0.00000000000E+00 0.  1.
     999901    1    3    3    0    0 -0.53378434471E-01  0.79860725481E-01 -0.86956085062E-01  0.88948769158E+00  0.88000000000E+00 0.  1.
        -11    1    4    4    0    0  0.56802107420E-01 -0.70209390714E-01  0.73172922198E-01  0.11623414135E+00  0.51100000000E-03 0.  1.
         11    1    4    4    0    0 -0.79614255910E-02 -0.20890118946E-01  0.13426110428E-01  0.26082617377E-01  0.51100000000E-03 0. -1.
</event>
<event>
 8    1  0.2846344E+004  0.1043930E+01  0.7957747E-01            NaN
         13   -1    0    0    0    0  0.00000000000E+00  0.00000000000E+00  0.74505805969E-08  0.10566000000E+00  0.10566000000E+00 0.  1.
     999900   -1    0    0    0    0 -0.00000000000E+00 -0.00000000000E+00 -0.74505805969E-08  0.93827000000E+00  0.93827000000E+00 0.  1.
     999902    2    1    2    0    0  0.12036057184E-01 -0.95003716932E-02 -0.75893490644E-02  0.10268208810E+01  0.10266783331E+01 0.  0.
     999903    2    3    3    0    0 -0.11678789011E+00 -0.54141477583E-01  0.49713771058E-02  0.13623331673E+00  0.44318067705E-01 0.  0.
         14    1    1    2    0    0 -0.12036057184E-01  0.95003716932E-02  0.75893490644E-02  0.17109119033E-01  0.00000000000E+00 0.  1.
     999901    1    3    3    0    0  0.12882394730E+00  0.44641105890E-01 -0.12560726170E-01  0.89058756424E+00  0.88000000000E+00 0.  1.
        -11    1    4    4    0    0 -0.53594768115E-01 -0.21137340236E-02 -0.45160803510E-02  0.53828646124E-01  0.51100000000E-03 0.  1.
         11    1    4    4    0    0 -0.63193121998E-01 -0.52027743560E-01  0.94874574568E-02  0.82404670606E-01  0.51100000000E-03 0. -1.
</event>
<event>
 8    1  0.2846344E+004  0.1043930E+01  0.7957747E-01            NaN
         13   -1    0    0    0    0  0.00000000000E+00  0.00000000000E+00  0.74505805969E-08  0.10566000000E+00  0.10566000000E+00 0. -1.
     999900   -1    0    0    0    0 -0.00000000000E+00 -0.00000000000E+00 -0.74505805969E-08  0.93827000000E+00  0.93827000000E+00 0.  1.
     999902    2    1    2    0    0  0.12612321748E-01  0.19689899595E-02 -0.41819241540E-02  0.10304973506E+01  0.10304097988E+01 0.  0.
     999903    2    3    3    0    0 -0.10856254782E+00  0.68034646664E-01 -0.30940484729E-01  0.13933853162E+00  0.45203681958E-01 0.  0.
         14    1    1    2    0    0 -0.12612321748E-01 -0.19689899595E-02  0.41819241540E-02  0.13432649439E-01  0.00000000000E+00 0. -1.
     999901    1    3    3    0    0  0.12117486957E+00 -0.66065656705E-01  0.26758560575E-01  0.89115881894E+00  0.88000000000E+00 0. -1.
        -11    1    4    4    0    0 -0.23657370502E-01  0.39167908203E-01 -0.53084533586E-02  0.46067743706E-01  0.51100000000E-03 0. -1.
         11    1    4    4    0    0 -0.84905177320E-01  0.28866738461E-01 -0.25632031370E-01  0.93270787915E-01  0.51100000000E-03 0.  1.
</event>
<event>
 8    1  0.2846344E+004  0.1043930E+01  0.7957747E-01            NaN
         13   -1    0    0    0    0  0.00000000000E+00  0.00000000000E+00  0.74505805969E-08  0.10566000000E+00  0.10566000000E+00 0.  1.
     999900   -1    0    0    0    0 -0.00000000000E+00 -0.00000000000E+00 -0.74505805969E-08  0.93827000000E+00  0.93827000000E+00 0. -1.
     999902    2    1    2    0    0  0.13735100740E-01 -0.26363847697E-02  0.14091793322E-02  0.10298733538E+01  0.10297774204E+01 0.  0.
     999903    2    3    3    0    0  0.94871549643E-01  0.93154639715E-01  0.12438775077E-01  0.14089602239E+00  0.44928478367E-01 0.  0.
         14    1    1    2    0    0 -0.13735100740E-01  0.26363847697E-02 -0.14091793322E-02  0.14056646235E-01  0.00000000000E+00 0. -1.
     999901    1    3    3    0    0 -0.81136448903E-01 -0.95791024485E-01 -0.11029595745E-01  0.88897733137E+00  0.88000000000E+00 0.  1.
        -11    1    4    4    0    0  0.40955907052E-01  0.13169138865E-01 -0.33353358618E-02  0.43153193708E-01  0.51100000000E-03 0. -1.
         11    1    4    4    0    0  0.53915642591E-01  0.79985500850E-01  0.15774110939E-01  0.97742828684E-01  0.51100000000E-03 0.  1.
</event>
<event>
 8    1  0.2846344E+004  0.1043930E+01  0.7957747E-01            NaN
         13   -1    0    0    0    0  0.00000000000E+00  0.00000000000E+00  0.74505805969E-08  0.10566000000E+00  0.10566000000E+00 0. -1.
     999900   -1    0    0    0    0 -0.00000000000E+00 -0.00000000000E+00 -0.74505805969E-08  0.93827000000E+00  0.93827000000E+00 0.  1.
     999902    2    1    2    0    0  0.77351937095E-02 -0.42899960057E-02 -0.10374800502E-01  0.10302964468E+01  0.10302062388E+01 0.  0.
     999903    2    3    3    0    0 -0.92256179465E-02 -0.13285730787E+00 -0.18539566287E-01  0.14075505585E+00  0.41618432774E-01 0.  0.
         14    1    1    2    0    0 -0.77351937095E-02  0.42899960057E-02  0.10374800502E-01  0.13633553202E-01  0.00000000000E+00 0. -1.
     999901    1    3    3    0    0  0.16960811656E-01  0.12856731187E+00  0.81647657854E-02  0.88954139095E+00  0.88000000000E+00 0. -1.
        -11    1    4    4    0    0 -0.13521363042E-01 -0.33745940313E-01 -0.20086493660E-01  0.41537261521E-01  0.51100000000E-03 0. -1.
         11    1    4    4    0    0  0.42957450957E-02 -0.99111367562E-01  0.15469273729E-02  0.99217794327E-01  0.51100000000E-03 0.  1.
</event>
<event>
 8    1  0.2846344E+004  0.1043930E+01  0.7957747E-01            NaN
         13   -1    0    0    0    0  0.00000000000E+00  0.00000000000E+00  0.74505805969E-08  0.10566000000E+00  0.10566000000E+00 0.  1.
     999900   -1    0    0    0    0 -0.00000000000E+00 -0.00000000000E+00 -0.74505805969E-08  0.93827000000E+00  0.93827000000E+00 0.  1.
     999902    2    1    2    0    0 -0.78965685860E-02 -0.17879265073E-02 -0.11892281081E-01  0.10295432413E+01  0.10294427167E+01 0.  0.
     999903    2    3    3    0    0  0.66194907335E-02 -0.12387767948E+00  0.40013341106E-01  0.13948098652E+00  0.49642532218E-01 0.  0.
         14    1    1    2    0    0  0.78965685860E-02  0.17879265073E-02  0.11892281081E-01  0.14386758701E-01  0.00000000000E+00 0.  1.
     999901    1    3    3    0    0 -0.14516059319E-01  0.12208975297E+00 -0.51905622186E-01  0.89006225477E+00  0.88000000000E+00 0.  1.
        -11    1    4    4    0    0  0.18308161957E-01 -0.30947638752E-01  0.26888816892E-01  0.44902279824E-01  0.51100000000E-03 0.  1.
         11    1    4    4    0    0 -0.11688671223E-01 -0.92930040726E-01  0.13124524214E-01  0.94578706701E-01  0.51100000000E-03 0. -1.
</event>
<event>
 8    1  0.2846344E+004  0.1043930E+01  0.7957747E-01            NaN
         13   -1    0    0    0    0  0.00000000000E+00  0.00000000000E+00  0.74505805969E-08  0.10566000000E+00  0.10566000000E+00 0.  1.
     999900   -1    0    0    0    0 -0.00000000000E+00 -0.00000000000E+00 -0.74505805969E-08  0.93827000000E+00  0.93827000000E+00 0. -1.
     999902    2    1    2    0    0 -0.12851047964E-01 -0.51293944443E-02 -0.19090919756E-02  0.10299620097E+01  0.10298672908E+01 0.  0.
     999903    2    3    3    0    0  0.29156316071E-01  0.82182649586E-01 -0.98993807388E-01  0.13933669362E+00  0.44842631799E-01 0.  0.
         14    1    1    2    0    0  0.12851047964E-01  0.51293944443E-02  0.19090919756E-02  0.13967990310E-01  0.00000000000E+00 0.  1.
     999901    1    3    3    0    0 -0.42007364035E-01 -0.87312044031E-01  0.97084715412E-01  0.89062531607E+00  0.88000000000E+00 0. -1.
        -11    1    4    4    0    0  0.23773094754E-01  0.25950443554E-01 -0.15339988707E-01  0.38394816438E-01  0.51100000000E-03 0.  1.
         11    1    4    4    0    0  0.53832213172E-02  0.56232206033E-01 -0.83653818681E-01  0.10094187718E+00  0.51100000000E-03 0. -1.
</event>
<event>
 8    1  0.2846344E+004  0.1043930E+01  0.7957747E-01            NaN
         13   -1    0    0    0    0  0.00000000000E+00  0.00000000000E+00  0.74505805969E-08  0.10566000000E+00  0.10566000000E+00 0. -1.
     999900   -1    0    0    0    0 -0.00000000000E+00 -0.00000000000E+00 -0.74505805969E-08  0.93827000000E+00  0.93827000000E+00 0. -1.
     999902    2    1    2    0    0 -0.86868517300E-02  0.97942249450E-02  0.54638377826E-02  0.10297440295E+01  0.10296463104E+01 0.  0.
     999903    2    3    3    0    0  0.80712597764E-01 -0.10190097659E+00 -0.10190841357E-01  0.13805285619E+00  0.45347606169E-01 0.  0.
         14    1    1    2    0    0  0.86868517300E-02 -0.97942249450E-02 -0.54638377826E-02  0.14185970484E-01  0.00000000000E+00 0.  1.
     999901    1    3    3    0    0 -0.89399449494E-01  0.11169520154E+00  0.15654679139E-01  0.89169117333E+00  0.88000000000E+00 0. -1.
        -11    1    4    4    0    0  0.53553799233E-02 -0.36653303611E-01  0.44137721016E-02  0.37308005372E-01  0.51100000000E-03 0. -1.
         11    1    4    4    0    0  0.75357217841E-01 -0.65247672981E-01 -0.14604613458E-01  0.10074485081E+00  0.51100000000E-03 0.  1.
</event>
<event>
 8    1  0.2846344E+004  0.1043930E+01  0.7957747E-01            NaN
         13   -1    0    0    0    0  0.00000000000E+00  0.00000000000E+00  0.74505805969E-08  0.10566000000E+00  0.10566000000E+00 0. -1.
     999900   -1    0    0    0    0 -0.00000000000E+00 -0.00000000000E+00 -0.74505805969E-08  0.93827000000E+00  0.93827000000E+00 0.  1.
     999902    2    1    2    0    0 -0.15111078728E-02 -0.10718687785E-01  0.11774074132E-01  0.10279361719E+01  0.10278117391E+01 0.  0.
     999903    2    3    3    0    0  0.12302969083E+00  0.16047831090E-01 -0.37870297071E-01  0.13737936820E+00  0.45222712203E-01 0.  0.
         14    1    1    2    0    0  0.15111078728E-02  0.10718687785E-01 -0.11774074132E-01  0.15993828075E-01  0.00000000000E+00 0.  1.
     999901    1    3    3    0    0 -0.12454079870E+00 -0.26766518874E-01  0.49644371202E-01  0.89055680373E+00  0.88000000000E+00 0. -1.
        -11    1    4    4    0    0  0.75201190432E-01 -0.11169597468E-01 -0.13610318382E-01  0.77236525281E-01  0.51100000000E-03 0.  1.
         11    1    4    4    0    0  0.47828500393E-01  0.27217428558E-01 -0.24259978688E-01  0.60142842917E-01  0.51100000000E-03 0. -1.
</event>
<event>
 8    1  0.2846344E+004  0.1043930E+01  0.7957747E-01            NaN
         13   -1    0    0    0    0  0.00000000000E+00  0.00000000000E+00  0.74505805969E-08  0.10566000000E+00  0.10566000000E+00 0.  1.
     999900   -1    0    0    0    0 -0.00000000000E+00 -0.00000000000E+00 -0.74505805969E-08  0.93827000000E+00  0.93827000000E+00 0. -1.
     999902    2    1    2    0    0 -0.80119090729E-02 -0.97178366716E-02  0.52018695509E-02  0.10303033172E+01  0.10302132008E+01 0.  0.
     999903    2    3    3    0    0  0.60026861566E-01  0.10604070052E+00 -0.52872592469E-01  0.13822599077E+00  0.38249957026E-01 0.  0.
         14    1    1    2    0    0  0.80119090729E-02  0.97178366716E-02 -0.52018695509E-02  0.13626682773E-01  0.00000000000E+00 0. -1.
     999901    1    3    3    0    0 -0.68038770639E-01 -0.11575853719E+00  0.58074462020E-01  0.89207732646E+00  0.88000000000E+00 0.  1.
        -11    1    4    4    0    0  0.43035216171E-01  0.41838371154E-01 -0.15391011116E-01  0.61964695399E-01  0.51100000000E-03 0. -1.
         11    1    4    4    0    0  0.16991645395E-01  0.64202329369E-01 -0.37481581353E-01  0.76261295369E-01  0.51100000000E-03 0.  1.
</event>
<event>
 8    1  0.2846344E+004  0.1043930E+01  0.7957747E-01            NaN
         13   -1    0    0    0    0  0.00000000000E+00  0.00000000000E+00  0.74505805969E-08  0.10566000000E+00  0.10566000000E+00 0.  1.
     999900   -1    0    0    0    0 -0.00000000000E+00 -0.00000000000E+00 -0.74505805969E-08  0.93827000000E+00  0.93827000000E+00 0. -1.
     999902    2    1    2    0    0  0.24918231636E-02  0.52789828568E-02 -0.12106395147E-01  0.10304897007E+01  0.10304020485E+01 0.  0.
     999903    2    3    3    0    0  0.53598253002E-01  0.11697254754E+00  0.34522163992E-01  0.14073605943E+00  0.45381813708E-01 0.  0.
         14    1    1    2    0    0 -0.24918231636E-02 -0.52789828568E-02  0.12106395147E-01  0.13440299332E-01  0.00000000000E+00 0.  1.
     999901    1    3    3    0    0 -0.51106429838E-01 -0.11169356468E+00 -0.46628559139E-01  0.88975364123E+00  0.88000000000E+00 0. -1.
        -11    1    4    4    0    0  0.25223115206E-01  0.56552254826E-01  0.40061328888E-01  0.73753198303E-01  0.51100000000E-03 0. -1.
         11    1    4    4    0    0  0.28375137795E-01  0.60420292714E-01 -0.55391648962E-02  0.66982861131E-01  0.51100000000E-03 0.  1.
</event>
<event>
 8    1  0.2846344E+004  0.1043930E+01  0.7957747E-01            NaN
         13   -1    0    0    0    0  0.00000000000E+00  0.00000000000E+00  0.74505805969E-08  0.10566000000E+00  0.10566000000E+00 0. -1.
     999900   -1    0    0    0    0 -0.00000000000E+00 -0.00000000000E+00 -0.74505805969E-08  0.93827000000E+00  0.93827000000E+00 0. -1.
     999902    2    1    2    0    0  0.11890632834E-01 -0.25495588857E-02  0.59470944044E-02  0.10303928167E+01  0.10303038879E+01 0.  0.
     999903    2    3    3    0    0  0.10237172716E+00 -0.29819781329E-02  0.87433385616E-01  0.14200831038E+00  0.45087698790E-01 0.  0.
         14    1    1    2    0    0 -0.11890632834E-01  0.25495588857E-02 -0.59470944044E-02  0.13537183295E-01  0.00000000000E+00 0. -1.
     999901    1    3    3    0    0 -0.90481094326E-01  0.43241924717E-03 -0.81486291212E-01  0.88838450632E+00  0.88000000000E+00 0. -1.
        -11    1    4    4    0    0  0.99447639844E-01  0.10249412106E-02  0.64498951713E-01  0.11853800854E+00  0.51100000000E-03 0.  1.
         11    1    4    4    0    0  0.29240873166E-02 -0.40069193435E-02  0.22934433903E-01  0.23470301846E-01  0.51100000000E-03 0. -1.
</event>
<event>
 8    1  0.2846344E+004  0.1043930E+01  0.7957747E-01            NaN
         13   -1    0    0    0    0  0.00000000000E+00  0.00000000000E+00  0.74505805969E-08  0.10566000000E+00  0.10566000000E+00 0. -1.
     999900   -1    0    0    0    0 -0.00000000000E+00 -0.00000000000E+00 -0.74505805969E-08  0.93827000000E+00  0.93827000000E+00 0.  1.
     999902    2    1    2    0    0 -0.56041902662E-02 -0.11591246026E-01  0.10027719449E-01  0.10276107142E+01  0.10274811243E+01 0.  0.
     999903    2    3    3    0    0 -0.59228287436E-01  0.90069719716E-01 -0.70389007541E-01  0.13650053818E+00  0.45356808741E-01 0.  0.
         14    1    1    2    0    0  0.56041902662E-02  0.11591246026E-01 -0.10027719449E-01  0.16319285839E-01  0.00000000000E+00 0.  1.
     999901    1    3    3    0    0  0.53624097170E-01 -0.10166096574E+00  0.80416726990E-01  0.89111017598E+00  0.88000000000E+00 0. -1.
        -11    1    4    4    0    0 -0.13902732710E-01  0.24382777644E-01 -0.44468203877E-01  0.52587908302E-01  0.51100000000E-03 0. -1.
         11    1    4    4    0    0 -0.45325554726E-01  0.65686942071E-01 -0.25920803664E-01  0.83912629881E-01  0.51100000000E-03 0.  1.
</event>
<event>
 8    1  0.2846344E+004  0.1043930E+01  0.7957747E-01            NaN
         13   -1    0    0    0    0  0.00000000000E+00  0.00000000000E+00  0.74505805969E-08  0.10566000000E+00  0.10566000000E+00 0. -1.
     999900   -1    0    0    0    0 -0.00000000000E+00 -0.00000000000E+00 -0.74505805969E-08  0.93827000000E+00  0.93827000000E+00 0. -1.
     999902    2    1    2    0    0 -0.12476165867E-01  0.63884584988E-03 -0.43077503721E-02  0.10307156309E+01  0.10306309195E+01 0.  0.
     999903    2    3    3    0    0 -0.43935839476E-01 -0.12602611250E+00  0.70021736650E-02  0.14101813332E+00  0.44990493044E-01 0.  0.
         14    1    1    2    0    0  0.12476165867E-01 -0.63884584988E-03  0.43077503721E-02  0.13214369150E-01  0.00000000000E+00 0. -1.
     999901    1    3    3    0    0  0.31459673609E-01  0.12666495835E+00 -0.11309924037E-01  0.88969749753E+00  0.88000000000E+00 0.  1.
        -11    1    4    4    0    0 -0.18631173619E-01 -0.83327234823E-02  0.22590282371E-02  0.20540672838E-01  0.51100000000E-03 0. -1.
         11    1    4    4    0    0 -0.25304665857E-01 -0.11769338902E+00  0.47431454279E-02  0.12047746048E+00  0.51100000000E-03 0.  1.
</event>
<event>
 8    1  0.2846344E+004  0.1043930E+01  0.7957747E-01            NaN
         13   -1    0    0    0    0  0.00000000000E+00  0.00000000000E+00  0.74505805969E-08  0.10566000000E+00  0.10566000000E+00 0.  1.
     999900   -1    0    0    0    0 -0.00000000000E+00 -0.00000000000E+00 -0.74505805969E-08  0.93827000000E+00  0.93827000000E+00 0. -1.
     999902    2    1    2    0    0  0.32358046774E-02 -0.10292123686E-01  0.82389437660E-02  0.10303550806E+01  0.10302656520E+01 0.  0.
     999903    2    3    3    0    0  0.80805615038E-01  0.10439660230E+00  0.49542083069E-02  0.13952323968E+00  0.44877524842E-01 0.  0.
         14    1    1    2    0    0 -0.32358046774E-02  0.10292123686E-01 -0.82389437660E-02  0.13574919383E-01  0.00000000000E+00 0.  1.
     999901    1    3    3    0    0 -0.77569810361E-01 -0.11468872599E+00  0.32847354591E-02  0.89083184094E+00  0.88000000000E+00 0.  1.
        -11    1    4    4    0    0  0.30391956845E-01  0.64902604747E-01  0.18599855841E-01  0.74042115732E-01  0.51100000000E-03 0.  1.
         11    1    4    4    0    0  0.50413658194E-01  0.39493997554E-01 -0.13645647534E-01  0.65481123943E-01  0.51100000000E-03 0. -1.
</event>
<event>
 8    1  0.2846344E+004  0.1043930E+01  0.7957747E-01            NaN
         13   -1    0    0    0    0  0.00000000000E+00  0.00000000000E+00  0.74505805969E-08  0.10566000000E+00  0.10566000000E+00 0.  1.
     999900   -1    0    0    0    0 -0.00000000000E+00 -0.00000000000E+00 -0.74505805969E-08  0.93827000000E+00  0.93827000000E+00 0. -1.
     999902    2    1    2    0    0 -0.42670198785E-02 -0.11788929232E-01 -0.41408315851E-02  0.10307264854E+01  0.10306419140E+01 0.  0.
     999903    2    3    3    0    0  0.54552273020E-02 -0.13368837614E+00 -0.10897713952E-01  0.14224482961E+00  0.47037112588E-01 0.  0.
         14    1    1    2    0    0  0.42670198785E-02  0.11788929232E-01  0.41408315851E-02  0.13203514581E-01  0.00000000000E+00 0. -1.
     999901    1    3    3    0    0 -0.97222471806E-02  0.12189944691E+00  0.67568823667E-02  0.88848165581E+00  0.88000000000E+00 0.  1.
        -11    1    4    4    0    0 -0.13421057067E-01 -0.80495566570E-01 -0.22427889323E-01  0.84634108672E-01  0.51100000000E-03 0.  1.
         11    1    4    4    0    0  0.18876284369E-01 -0.53192809575E-01  0.11530175371E-01  0.57610720939E-01  0.51100000000E-03 0. -1.
</event>
<event>
 8    1  0.2846344E+004  0.1043930E+01  0.7957747E-01            NaN
         13   -1    0    0    0    0  0.00000000000E+00  0.00000000000E+00  0.74505805969E-08  0.10566000000E+00  0.10566000000E+00 0. -1.
     999900   -1    0    0    0    0 -0.00000000000E+00 -0.00000000000E+00 -0.74505805969E-08  0.93827000000E+00  0.93827000000E+00 0.  1.
     999902    2    1    2    0    0 -0.63770063544E-02 -0.12030847548E-01  0.36224647623E-02  0.10298399413E+01  0.10297435482E+01 0.  0.
     999903    2    3    3    0    0  0.40572984581E-01  0.78207691820E-01 -0.96793279163E-01  0.13830720649E+00  0.44691546612E-01 0.  0.
         14    1    1    2    0    0  0.63770063544E-02  0.12030847548E-01 -0.36224647623E-02  0.14090058684E-01  0.00000000000E+00 0.  1.
     999901    1    3    3    0    0 -0.46949990935E-01 -0.90238539368E-01  0.10041574393E+00  0.89153273482E+00  0.88000000000E+00 0.  1.
        -11    1    4    4    0    0  0.34792629292E-01  0.31786637128E-01 -0.27091053058E-01  0.54360864873E-01  0.51100000000E-03 0. -1.
         11    1    4    4    0    0  0.57803552890E-02  0.46421054692E-01 -0.69702226106E-01  0.83946341618E-01  0.51100000000E-03 0.  1.
</event>
<event>
 8    1  0.2846344E+004  0.1043930E+01  0.7957747E-01            NaN
         13   -1    0    0    0    0  0.00000000000E+00  0.00000000000E+00  0.74505805969E-08  0.10566000000E+00  0.10566000000E+00 0. -1.
     999900   -1    0    0    0    0 -0.00000000000E+00 -0.00000000000E+00 -0.74505805969E-08  0.93827000000E+00  0.93827000000E+00 0. -1.
     999902    2    1    2    0    0 -0.10308937539E-01  0.40343972856E-02 -0.80409668357E-02  0.10302476134E+01  0.10301567537E+01 0.  0.
     999903    2    3    3    0    0 -0.78705856594E-01  0.91890945298E-01 -0.58200629651E-01  0.14181477785E+00  0.45667934419E-01 0.  0.
         14    1    1    2    0    0  0.10308937539E-01 -0.40343972856E-02  0.80409668357E-02  0.13682386572E-01  0.00000000000E+00 0. -1.
     999901    1    3    3    0    0  0.68396919054E-01 -0.87856548013E-01  0.50159662816E-01  0.88843283558E+00  0.88000000000E+00 0.  1.
        -11    1    4    4    0    0 -0.39993193248E-01  0.66126460829E-01 -0.15796241867E-01  0.78879317353E-01  0.51100000000E-03 0. -1.
         11    1    4    4    0    0 -0.38712663346E-01  0.25764484469E-01 -0.42404387784E-01  0.62935460494E-01  0.51100000000E-03 0.  1.
</event>
<event>
 8    1  0.2846344E+004  0.1043930E+01  0.7957747E-01            NaN
         13   -1    0    0    0    0  0.00000000000E+00  0.00000000000E+00  0.74505805969E-08  0.10566000000E+00  0.10566000000E+00 0.  1.
     999900   -1    0    0    0    0 -0.00000000000E+00 -0.00000000000E+00 -0.74505805969E-08  0.93827000000E+00  0.93827000000E+00 0.  1.
     999902    2    1    2    0    0  0.13255906319E-01 -0.37589039544E-02  0.17259681744E-02  0.10300437702E+01  0.10299501644E+01 0.  0.
     999903    2    3    3    0    0 -0.82909828806E-01  0.85136657593E-01  0.55732698532E-01  0.13871498891E+00  0.44871196592E-01 0.  0.
         14    1    1    2    0    0 -0.13255906319E-01  0.37589039544E-02 -0.17259681744E-02  0.13886229777E-01  0.00000000000E+00 0. -1.
     999901    1    3    3    0    0  0.96165735125E-01 -0.88895561548E-01 -0.54006730357E-01  0.89132878131E+00  0.88000000000E+00 0. -1.
        -11    1    4    4    0    0 -0.56561739959E-01  0.46971596333E-01  0.55856922355E-01  0.92335357178E-01  0.51100000000E-03 0. -1.
         11    1    4    4    0    0 -0.26348088848E-01  0.38165061261E-01 -0.12422382360E-03  0.46379631731E-01  0.51100000000E-03 0.  1.
</event>
<event>
 8    1  0.2846344E+004  0.1043930E+01  0.7957747E-01            NaN
         13   -1    0    0    0    0  0.00000000000E+00  0.00000000000E+00  0.74505805969E-08  0.10566000000E+00  0.10566000000E+00 0. -1.
     999900   -1    0    0    0    0 -0.00000000000E+00 -0.00000000000E+00 -0.74505805969E-08  0.93827000000E+00  0.93827000000E+00 0.  1.
     999902    2    1    2    0    0  0.71012017589E-02 -0.23275907441E-01 -0.42068370033E-02  0.10192340001E+01  0.10189347646E+01 0.  0.
     999903    2    3    3    0    0  0.89735089444E-01 -0.52851054717E-01 -0.68509668500E-01  0.13253342895E+00  0.45010163849E-01 0.  0.
         14    1    1    2    0    0 -0.71012017589E-02  0.23275907441E-01  0.42068370033E-02  0.24695999902E-01  0.00000000000E+00 0. -1.
     999901    1    3    3    0    0 -0.82633887685E-01  0.29575147277E-01  0.64302831497E-01  0.88670057115E+00  0.88000000000E+00 0. -1.
        -11    1    4    4    0    0  0.12256208986E-01  0.65660216078E-02 -0.17545596536E-01  0.22392775113E-01  0.51100000000E-03 0.  1.
         11    1    4    4    0    0  0.77478880458E-01 -0.59417076325E-01 -0.50964071965E-01  0.11014065384E+00  0.51100000000E-03 0. -1.
</event>
<event>
 8    1  0.2846344E+004  0.1043930E+01  0.7957747E-01            NaN
         13   -1    0    0    0    0  0.00000000000E+00  0.00000000000E+00  0.74505805969E-08  0.10566000000E+00  0.10566000000E+00 0. -1.
     999900   -1    0    0    0    0 -0.00000000000E+00 -0.00000000000E+00 -0.74505805969E-08  0.93827000000E+00  0.93827000000E+00 0.  1.
     999902    2    1    2    0    0  0.93888270780E-02  0.98165628270E-04 -0.76325831823E-02  0.10318297506E+01  0.10317587984E+01 0.  0.
     999903    2    3    3    0    0  0.22834982019E-01  0.12512848278E+00  0.41910458222E-01  0.14151076714E+00  0.45719110910E-01 0.  0.
         14    1    1    2    0    0 -0.93888270780E-02 -0.98165628270E-04  0.76325831823E-02  0.12100249436E-01  0.00000000000E+00 0.  1.
     999901    1    3    3    0    0 -0.13446154941E-01 -0.12503031715E+00 -0.49543041404E-01  0.89031898342E+00  0.88000000000E+00 0.  1.
        -11    1    4    4    0    0  0.33293979736E-02  0.97010835693E-01  0.45298745172E-01  0.10711874051E+00  0.51100000000E-03 0.  1.
         11    1    4    4    0    0  0.19505584045E-01  0.28117647086E-01 -0.33882869502E-02  0.34392026635E-01  0.51100000000E-03 0. -1.
</event>
<event>
 8    1  0.2846344E+004  0.1043930E+01  0.7957747E-01            NaN
         13   -1    0    0    0    0  0.00000000000E+00  0.00000000000E+00  0.74505805969E-08  0.10566000000E+00  0.10566000000E+00 0. -1.
     999900   -1    0    0    0    0 -0.00000000000E+00 -0.00000000000E+00 -0.74505805969E-08  0.93827000000E+00  0.93827000000E+00 0. -1.
     999902    2    1    2    0    0 -0.11727954826E-02  0.10071891017E-01 -0.52167495881E-02  0.10325268025E+01  0.10324638322E+01 0.  0.
     999903    2    3    3    0    0 -0.13231721943E+00  0.19250754125E-01 -0.20710054874E-01  0.14262615971E+00  0.45109610609E-01 0.  0.
         14    1    1    2    0    0  0.11727954826E-02 -0.10071891017E-01  0.52167495881E-02  0.11403197542E-01  0.00000000000E+00 0.  1.
     999901    1    3    3    0    0  0.13114442394E+00 -0.91788631081E-02  0.15493305285E-01  0.88990064275E+00  0.88000000000E+00 0. -1.
        -11    1    4    4    0    0 -0.51477216850E-01  0.16832829548E-01  0.11845352557E-01  0.55442055368E-01  0.51100000000E-03 0. -1.
         11    1    4    4    0    0 -0.80840002576E-01  0.24179245772E-02 -0.32555407430E-01  0.87184104340E-01  0.51100000000E-03 0.  1.
</event>
<event>
 8    1  0.2846344E+004  0.1043930E+01  0.7957747E-01            NaN
         13   -1    0    0    0    0  0.00000000000E+00  0.00000000000E+00  0.74505805969E-08  0.10566000000E+00  0.10566000000E+00 0.  1.
     999900   -1    0    0    0    0 -0.00000000000E+00 -0.00000000000E+00 -0.74505805969E-08  0.93827000000E+00  0.93827000000E+00 0.  1.
     999902    2    1    2    0    0  0.52319612446E-02  0.11161556197E-01  0.57343438429E-02  0.10303345429E+01  0.10302448417E+01 0.  0.
     999903    2    3    3    0    0 -0.68509348798E-01  0.14802528756E-01 -0.11204927373E+00  0.13942264035E+00  0.44395801257E-01 0.  0.
         14    1    1    2    0    0 -0.52319612446E-02 -0.11161556197E-01 -0.57343438429E-02  0.13595457128E-01  0.00000000000E+00 0. -1.
     999901    1    3    3    0    0  0.73741310042E-01 -0.36409725594E-02  0.11778361757E+00  0.89091190252E+00  0.88000000000E+00 0. -1.
        -11    1    4    4    0    0 -0.33729779475E-01 -0.84882307157E-02 -0.25018437011E-01  0.42847770019E-01  0.51100000000E-03 0.  1.
         11    1    4    4    0    0 -0.34779569323E-01  0.23290759472E-01 -0.87030836716E-01  0.96574870331E-01  0.51100000000E-03 0. -1.
</event>
<event>
 8    1  0.2846344E+004  0.1043930E+01  0.7957747E-01            NaN
         13   -1    0    0    0    0  0.00000000000E+00  0.00000000000E+00  0.74505805969E-08  0.10566000000E+00  0.10566000000E+00 0.  1.
     999900   -1    0    0    0    0 -0.00000000000E+00 -0.00000000000E+00 -0.74505805969E-08  0.93827000000E+00  0.93827000000E+00 0. -1.
     999902    2    1    2    0    0  0.33408855693E-02 -0.11737748808E-01 -0.88119403944E-02  0.10288772077E+01  0.10287670883E+01 0.  0.
     999903    2    3    3    0    0 -0.86000119100E-02  0.10817050691E+00 -0.72903338773E-01  0.13835585353E+00  0.45305922719E-01 0.  0.
         14    1    1    2    0    0 -0.33408855693E-02  0.11737748808E-01  0.88119403944E-02  0.15052792332E-01  0.00000000000E+00 0.  1.
     999901    1    3    3    0    0  0.11940897479E-01 -0.11990825572E+00  0.64091398378E-01  0.89052135413E+00  0.88000000000E+00 0. -1.
        -11    1    4    4    0    0  0.12001889249E-01  0.12715165420E-01 -0.22382104297E-01  0.28406697995E-01  0.51100000000E-03 0. -1.
         11    1    4    4    0    0 -0.20601901159E-01  0.95455341488E-01 -0.50521234476E-01  0.10994915554E+00  0.51100000000E-03 0.  1.
</event>
<event>
 8    1  0.2846344E+004  0.1043930E+01  0.7957747E-01            NaN
         13   -1    0    0    0    0  0.00000000000E+00  0.00000000000E+00  0.74505805969E-08  0.10566000000E+00  0.10566000000E+00 0.  1.
     999900   -1    0    0    0    0 -0.00000000000E+00 -0.00000000000E+00 -0.74505805969E-08  0.93827000000E+00  0.93827000000E+00 0. -1.
     999902    2    1    2    0    0  0.38346626230E-02 -0.13066201864E-01 -0.39149793312E-02  0.10297611140E+01  0.10296636317E+01 0.  0.
     999903    2    3    3    0    0 -0.63650655541E-01  0.30809072969E-01 -0.10960698980E+00  0.13978914306E+00  0.50266364242E-01 0.  0.
         14    1    1    2    0    0 -0.38346626230E-02  0.13066201864E-01  0.39149793312E-02  0.14168886045E-01  0.00000000000E+00 0.  1.
     999901    1    3    3    0    0  0.67485318164E-01 -0.43875274834E-01  0.10569201047E+00  0.88997197090E+00  0.88000000000E+00 0.  1.
        -11    1    4    4    0    0 -0.56530278126E-01  0.81142240632E-02 -0.51121033373E-01  0.76649423685E-01  0.51100000000E-03 0.  1.
         11    1    4    4    0    0 -0.71203774145E-02  0.22694848906E-01 -0.58485956432E-01  0.63139719370E-01  0.51100000000E-03 0. -1.
</event>
<event>
 8    1  0.2846344E+004  0.1043930E+01  0.7957747E-01            NaN
         13   -1    0    0    0    0  0.00000000000E+00  0.00000000000E+00  0.74505805969E-08  0.10566000000E+00  0.10566000000E+00 0. -1.
     999900   -1    0    0    0    0 -0.00000000000E+00 -0.00000000000E+00 -0.74505805969E-08  0.93827000000E+00  0.93827000000E+00 0. -1.
     999902    2    1    2    0    0  0.55151877504E-02 -0.12142416827E-01  0.88744980807E-02  0.10279108771E+01  0.10277860473E+01 0.  0.
     999903    2    3    3    0    0 -0.16699044918E-01 -0.13064696844E+00 -0.50501475762E-03  0.13964021106E+00  0.46385828007E-01 0.  0.
         14    1    1    2    0    0 -0.55151877504E-02  0.12142416827E-01 -0.88744980807E-02  0.16019122900E-01  0.00000000000E+00 0.  1.
     999901    1    3    3    0    0  0.22214232668E-01  0.11850455162E+00  0.93795128384E-02  0.88827066604E+00  0.88000000000E+00 0.  1.
        -11    1    4    4    0    0 -0.17906059914E-01 -0.12943486206E+00  0.80352134912E-02  0.13091537830E+00  0.51100000000E-03 0.  1.
         11    1    4    4    0    0  0.12070149966E-02 -0.12121063792E-02 -0.85402282488E-02  0.87248327559E-02  0.51100000000E-03 0. -1.
</event>
<event>
 8    1  0.2846344E+004  0.1043930E+01  0.7957747E-01            NaN
         13   -1    0    0    0    0  0.00000000000E+00  0.00000000000E+00  0.74505805969E-08  0.10566000000E+00  0.10566000000E+00 0. -1.
     999900   -1    0    0    0    0 -0.00000000000E+00 -0.00000000000E+00 -0.74505805969E-08  0.93827000000E+00  0.93827000000E+00 0. -1.
     999902    2    1    2    0    0  0.12606324006E-01 -0.40736903593E-02  0.58554947030E-02  0.10294454849E+01  0.10293435798E+01 0.  0.
     999903    2    3    3    0    0  0.78185727897E-01  0.88904530233E-01 -0.59203552535E-01  0.13973863022E+00  0.44774999727E-01 0.  0.
         14    1    1    2    0    0 -0.12606324006E-01  0.40736903593E-02 -0.58554947030E-02  0.14484515053E-01  0.00000000000E+00 0.  1.
     999901    1    3    3    0    0 -0.65579403890E-01 -0.92978220593E-01  0.65059047238E-01  0.88970685473E+00  0.88000000000E+00 0.  1.
        -11    1    4    4    0    0  0.35593768261E-01  0.10176713132E-01 -0.15697699161E-01  0.40213936753E-01  0.51100000000E-03 0. -1.
         11    1    4    4    0    0  0.42591959635E-01  0.78727817102E-01 -0.43505853374E-01  0.99524693468E-01  0.51100000000E-03 0.  1.
</event>
<event>
 8    1  0.2846344E+004  0.1043930E+01  0.7957747E-01            NaN
         13   -1    0    0    0    0  0.00000000000E+00  0.00000000000E+00  0.74505805969E-08  0.10566000000E+00  0.10566000000E+00 0.  1.
     999900   -1    0    0    0    0 -0.00000000000E+00 -0.00000000000E+00 -0.74505805969E-08  0.93827000000E+00  0.93827000000E+00 0.  1.
     999902    2    1    2    0    0 -0.10870648435E-01 -0.54932287541E-02  0.69864422363E-02  0.10298887417E+01  0.10297930197E+01 0.  0.
     999903    2    3    3    0    0  0.82882033877E-01  0.31080431974E-01 -0.96032456248E-01  0.13818246072E+00  0.45130200591E-01 0.  0.
         14    1    1    2    0    0  0.10870648435E-01  0.54932287541E-02 -0.69864422363E-02  0.14041258300E-01  0.00000000000E+00 0. -1.
     999901    1    3    3    0    0 -0.93752682312E-01 -0.36573660728E-01  0.10301889848E+00  0.89170628098E+00  0.88000000000E+00 0. -1.
        -11    1    4    4    0    0  0.10098017521E-01  0.16931809861E-01 -0.42114185109E-01  0.46502923042E-01  0.51100000000E-03 0. -1.
         11    1    4    4    0    0  0.72784016356E-01  0.14148622113E-01 -0.53918271139E-01  0.91679537675E-01  0.51100000000E-03 0.  1.
</event>
<event>
 8    1  0.2846344E+004  0.1043930E+01  0.7957747E-01            NaN
         13   -1    0    0    0    0  0.00000000000E+00  0.00000000000E+00  0.74505805969E-08  0.10566000000E+00  0.10566000000E+00 0.  1.
     999900   -1    0    0    0    0 -0.00000000000E+00 -0.00000000000E+00 -0.74505805969E-08  0.93827000000E+00  0.93827000000E+00 0.  1.
     999902    2    1    2    0    0  0.88638205017E-02  0.81018792542E-02  0.48133299893E-02  0.10309926159E+01  0.10309114405E+01 0.  0.
     999903    2    3    3    0    0  0.29507151422E-01 -0.12369319987E+00 -0.38096214877E-01  0.13990489912E+00  0.44174421652E-01 0.  0.
         14    1    1    2    0    0 -0.88638205017E-02 -0.81018792542E-02 -0.48133299893E-02  0.12937384083E-01  0.00000000000E+00 0. -1.
     999901    1    3    3    0    0 -0.20643330921E-01  0.13179507913E+00  0.42909544866E-01  0.89108771680E+00  0.88000000000E+00 0. -1.
        -11    1    4    4    0    0  0.58004759836E-02 -0.21832414259E-01  0.10099207322E-01  0.24749847344E-01  0.51100000000E-03 0.  1.
         11    1    4    4    0    0  0.23706675439E-01 -0.10186078561E+00 -0.48195422199E-01  0.11515505177E+00  0.51100000000E-03 0. -1.
</event>
<event>
 8    1  0.2846344E+004  0.1043930E+01  0.7957747E-01            NaN
         13   -1    0    0    0    0  0.00000000000E+00  0.00000000000E+00  0.74505805969E-08  0.10566000000E+00  0.10566000000E+00 0. -1.
     999900   -1    0    0    0    0 -0.00000000000E+00 -0.00000000000E+00 -0.74505805969E-08  0.93827000000E+00  0.93827000000E+00 0.  1.
     999902    2    1    2    0    0 -0.16859650574E-01  0.14793230358E-01 -0.27609555627E-02  0.10213310983E+01  0.10210810458E+01 0.  0.
     999903    2    3    3    0    0  0.10780535790E+00 -0.47730726411E-01 -0.32506672321E-01  0.12985175633E+00  0.43641464700E-01 0.  0.
         14    1    1    2    0    0  0.16859650574E-01 -0.14793230358E-01  0.27609555627E-02  0.22598901688E-01  0.00000000000E+00 0. -1.
     999901    1    3    3    0    0 -0.12466500848E+00  0.62523956769E-01  0.29745716758E-01  0.89147934198E+00  0.88000000000E+00 0. -1.
        -11    1    4    4    0    0  0.74383920498E-01 -0.30718954882E-01 -0.42536019696E-01  0.91028544480E-01  0.51100000000E-03 0. -1.
         11    1    4    4    0    0  0.33421437406E-01 -0.17011771529E-01  0.10029347375E-01  0.38823211853E-01  0.51100000000E-03 0.  1.
</event>
<event>
 8    1  0.2846344E+004  0.1043930E+01  0.7957747E-01            NaN
         13   -1    0    0    0    0  0.00000000000E+00  0.00000000000E+00  0.74505805969E-08  0.10566000000E+00  0.10566000000E+00 0.  1.
     999900   -1    0    0    0    0 -0.00000000000E+00 -0.00000000000E+00 -0.74505805969E-08  0.93827000000E+00  0.93827000000E+00 0. -1.
     999902    2    1    2    0    0  0.25763442722E-02  0.13077507293E-01 -0.25227810533E-02  0.10303644860E+01  0.10302751821E+01 0.  0.
     999903    2    3    3    0    0  0.40410040386E-01  0.10723415282E+00  0.69785824202E-01  0.14158701277E+00  0.45218204642E-01 0.  0.
         14    1    1    2    0    0 -0.25763442722E-02 -0.13077507293E-01  0.25227810533E-02  0.13565514035E-01  0.00000000000E+00 0.  1.
     999901    1    3    3    0    0 -0.37833696114E-01 -0.94156645529E-01 -0.72308605255E-01  0.88877747319E+00  0.88000000000E+00 0. -1.
        -11    1    4    4    0    0  0.11048267387E-01  0.49438423570E-01  0.55611508952E-01  0.75227142616E-01  0.51100000000E-03 0. -1.
         11    1    4    4    0    0  0.29361772999E-01  0.57795729252E-01  0.14174315250E-01  0.66359870157E-01  0.51100000000E-03 0.  1.
</event>
<event>
 8    1  0.2846344E+004  0.1043930E+01  0.7957747E-01            NaN
         13   -1    0    0    0    0  0.00000000000E+00  0.00000000000E+00  0.74505805969E-08  0.10566000000E+00  0.10566000000E+00 0.  1.
     999900   -1    0    0    0    0 -0.00000000000E+00 -0.00000000000E+00 -0.74505805969E-08  0.93827000000E+00  0.93827000000E+00 0.  1.
     999902    2    1    2    0    0 -0.86984019910E-02 -0.46312019081E-02  0.88425578618E-02  0.10306898694E+01  0.10306048253E+01 0.  0.
     999903    2    3    3    0    0  0.10159260912E+00  0.83564122802E-01  0.84545559672E-02  0.13943083133E+00  0.45447292120E-01 0.  0.
         14    1    1    2    0    0  0.86984019910E-02  0.46312019081E-02 -0.88425578618E-02  0.13240130583E-01  0.00000000000E+00 0. -1.
     999901    1    3    3    0    0 -0.11029101111E+00 -0.88195324710E-01  0.38800189463E-03  0.89125903809E+00  0.88000000000E+00 0. -1.
        -11    1    4    4    0    0  0.79772361347E-01  0.40622893839E-01  0.15161296471E-01  0.90796338971E-01  0.51100000000E-03 0. -1.
         11    1    4    4    0    0  0.21820247770E-01  0.42941228962E-01 -0.67067405040E-02  0.48634492356E-01  0.51100000000E-03 0.  1.
</event>
<event>
 8    1  0.2846344E+004  0.1043930E+01  0.7957747E-01            NaN
         13   -1    0    0    0    0  0.00000000000E+00  0.00000000000E+00  0.74505805969E-08  0.10566000000E+00  0.10566000000E+00 0.  1.
     999900   -1    0    0    0    0 -0.00000000000E+00 -0.00000000000E+00 -0.74505805969E-08  0.93827000000E+00  0.93827000000E+00 0.  1.
     999902    2    1    2    0    0  0.77089468124E-02  0.44820419221E-02 -0.10874258820E-01  0.10298670677E+01  0.10297710479E+01 0.  0.
     999903    2    3    3    0    0 -0.51287172604E-01  0.10262342104E+00 -0.68121727509E-01  0.14060358306E+00  0.44349263700E-01 0.  0.
         14    1    1    2    0    0 -0.77089468124E-02 -0.44820419221E-02  0.10874258820E-01  0.14062932327E-01  0.00000000000E+00 0.  1.
     999901    1    3    3    0    0  0.58996119417E-01 -0.98141379114E-01  0.57247468689E-01  0.88926348462E+00  0.88000000000E+00 0. -1.
        -11    1    4    4    0    0  0.62071854099E-02  0.19734741991E-01 -0.20210449660E-01  0.28925984661E-01  0.51100000000E-03 0. -1.
         11    1    4    4    0    0 -0.57494358014E-01  0.82888679045E-01 -0.47911277849E-01  0.11167759840E+00  0.51100000000E-03 0.  1.
</event>
<event>
 8    1  0.2846344E+004  0.1043930E+01  0.7957747E-01            NaN
         13   -1    0    0    0    0  0.00000000000E+00  0.00000000000E+00  0.74505805969E-08  0.10566000000E+00  0.10566000000E+00 0. -1.
     999900   -1    0    0    0    0 -0.00000000000E+00 -0.00000000000E+00 -0.74505805969E-08  0.93827000000E+00  0.93827000000E+00 0. -1.
     999902    2    1    2    0    0  0.17600255249E-02  0.94150689205E-02 -0.80278074186E-02  0.10314325241E+01  0.10313568077E+01 0.  0.
     999903    2    3    3    0    0  0.14409991281E-01  0.12581516270E+00 -0.47093635030E-01  0.14281835451E+00  0.46283570636E-01 0.  0.
         14    1    1    2    0    0 -0.17600255249E-02 -0.94150689205E-02  0.80278074186E-02  0.12497475928E-01  0.00000000000E+00 0. -1.
     999901    1    3    3    0    0 -0.12649965757E-01 -0.11640009378E+00  0.39065827611E-01  0.88861416956E+00  0.88000000000E+00 0.  1.
        -11    1    4    4    0    0  0.10835235138E-01  0.19783652068E-01 -0.26397006092E-01  0.34725469921E-01  0.51100000000E-03 0. -1.
         11    1    4    4    0    0  0.35747561436E-02  0.10603151063E+00 -0.20696628937E-01  0.10809288459E+00  0.51100000000E-03 0.  1.
</event>
<event>
 8    1  0.2846344E+004  0.1043930E+01  0.7957747E-01            NaN
         13   -1    0    0    0    0  0.00000000000E+00  0.00000000000E+00  0.74505805969E-08  0.10566000000E+00  0.10566000000E+00 0. -1.
     999900   -1    0    0    0    0 -0.00000000000E+00 -0.00000000000E+00 -0.74505805969E-08  0.93827000000E+00  0.93827000000E+00 0. -1.
     999902    2    1    2    0    0  0.33358013872E-02  0.10998105206E-01 -0.85024221434E-02  0.10296339491E+01  0.10295346969E+01 0.  0.
     999903    2    3    3    0    0 -0.65220463081E-01  0.44416327783E-02  0.11319666688E+00  0.13859319975E+00  0.46055973771E-01 0.  0.
         14    1    1    2    0    0 -0.33358013872E-02 -0.10998105206E-01  0.85024221434E-02  0.14296050900E-01  0.00000000000E+00 0. -1.
     999901    1    3    3    0    0  0.68556264469E-01  0.65564724277E-02 -0.12169908902E+00  0.89104074935E+00  0.88000000000E+00 0. -1.
        -11    1    4    4    0    0 -0.48214301908E-01  0.23595756664E-01  0.67937435931E-01  0.86585997499E-01  0.51100000000E-03 0.  1.
         11    1    4    4    0    0 -0.17006161174E-01 -0.19154123886E-01  0.45259230945E-01  0.52007202255E-01  0.51100000000E-03 0. -1.
</event>
<event>
 8    1  0.2846344E+004  0.1043930E+01  0.7957747E-01            NaN
         13   -1    0    0    0    0  0.00000000000E+00  0.00000000000E+00  0.74505805969E-08  0.10566000000E+00  0.10566000000E+00 0.  1.
     999900   -1    0    0    0    0 -0.00000000000E+00 -0.00000000000E+00 -0.74505805969E-08  0.93827000000E+00  0.93827000000E+00 0. -1.
     999902    2    1    2    0    0  0.14300761248E-01 -0.18879533119E-02  0.52614057745E-02  0.10285755697E+01  0.10284609589E+01 0.  0.
     999903    2    3    3    0    0  0.10773671809E-01 -0.77444988132E-01 -0.10344276671E+00  0.13866664007E+00  0.49134843977E-01 0.  0.
         14    1    1    2    0    0 -0.14300761248E-01  0.18879533119E-02 -0.52614057745E-02  0.15354430328E-01  0.00000000000E+00 0. -1.
     999901    1    3    3    0    0  0.35270894391E-02  0.75557034820E-01  0.10870417248E+00  0.88990892960E+00  0.88000000000E+00 0.  1.
        -11    1    4    4    0    0 -0.17114107633E-01 -0.30101861365E-01 -0.57118164016E-01  0.66796410976E-01  0.51100000000E-03 0. -1.
         11    1    4    4    0    0  0.27887779441E-01 -0.47343126767E-01 -0.46324602693E-01  0.71870229094E-01  0.51100000000E-03 0.  1.
</event>
<event>
 8    1  0.2846344E+004  0.1043930E+01  0.7957747E-01            NaN
         13   -1    0    0    0    0  0.00000000000E+00  0.00000000000E+00  0.74505805969E-08  0.10566000000E+00  0.10566000000E+00 0. -1.
     999900   -1    0    0    0    0 -0.00000000000E+00 -0.00000000000E+00 -0.74505805969E-08  0.93827000000E+00  0.93827000000E+00 0.  1.
     999902    2    1    2    0    0  0.12054620069E-01  0.50296744263E-02  0.42331880412E-02  0.10301993274E+01  0.10301078209E+01 0.  0.
     999903    2    3    3    0    0 -0.55182449458E-01  0.12073265541E+00  0.30283227833E-03  0.14007380194E+00  0.44711312565E-01 0.  0.
         14    1    1    2    0    0 -0.12054620069E-01 -0.50296744263E-02 -0.42331880412E-02  0.13730672629E-01  0.00000000000E+00 0.  1.
     999901    1    3    3    0    0  0.67237069528E-01 -0.11570298099E+00  0.39303557629E-02  0.89012552543E+00  0.88000000000E+00 0.  1.
        -11    1    4    4    0    0 -0.26275446607E-01  0.29055507208E-01  0.16644625156E-01  0.42566727159E-01  0.51100000000E-03 0.  1.
         11    1    4    4    0    0 -0.28907002852E-01  0.91677148205E-01 -0.16341792877E-01  0.97507074780E-01  0.51100000000E-03 0. -1.
</event>
<event>
 7    1  0.2846344E+004  0.1043930E+01  0.7957747E-01            NaN
         13   -1    0    0    0    0  0.00000000000E+00  0.00000000000E+00  0.74505805969E-08  0.10566000000E+00  0.10566000000E+00 0.  1.
     999900   -1    0    0    0    0 -0.00000000000E+00 -0.00000000000E+00 -0.74505805969E-08  0.93827000000E+00  0.93827000000E+00 0. -1.
     999902    2    1    2    0    0  0.18616501242E-02  0.13180661117E-02  0.13471868233E-01  0.10302663887E+01  0.10301757799E+01 0.  0.
         14    1    1    2    0    0 -0.18616501242E-02 -0.13180661117E-02 -0.13471868233E-01  0.13663611278E-01  0.00000000000E+00 0. -1.
     999901    1    3    3    0    0  0.11088690766E+00 -0.28662116683E-01  0.90300738525E-01  0.89200428620E+00  0.88000000000E+00 0.  1.
        -11    1    3    3    0    0 -0.64101601035E-01  0.27142987310E-01 -0.41563529876E-01  0.81077402229E-01  0.51100000000E-03 0.  1.
         11    1    3    3    0    0 -0.44923656503E-01  0.28371954841E-02 -0.35265340416E-01  0.57184700292E-01  0.51100000000E-03 0. -1.
</event>
<event>
 8    1  0.2846344E+004  0.1043930E+01  0.7957747E-01            NaN
         13   -1    0    0    0    0  0.00000000000E+00  0.00000000000E+00  0.74505805969E-08  0.10566000000E+00  0.10566000000E+00 0. -1.
     999900   -1    0    0    0    0 -0.00000000000E+00 -0.00000000000E+00 -0.74505805969E-08  0.93827000000E+00  0.93827000000E+00 0. -1.
     999902    2    1    2    0    0  0.10735360190E-01 -0.39628871420E-03  0.85452489693E-02  0.10302031547E+01  0.10301116996E+01 0.  0.
     999903    2    3    3    0    0  0.71939484552E-01  0.57374818738E-01 -0.94736157835E-01  0.14017478731E+00  0.46977357655E-01 0.  0.
         14    1    1    2    0    0 -0.10735360190E-01  0.39628871420E-03 -0.85452489693E-02  0.13726845344E-01  0.00000000000E+00 0.  1.
     999901    1    3    3    0    0 -0.61204124362E-01 -0.57771107452E-01  0.10328140680E+00  0.89002836735E+00  0.88000000000E+00 0.  1.
        -11    1    4    4    0    0  0.10374367297E-01  0.11189932406E-01 -0.47447070125E-01  0.49843030291E-01  0.51100000000E-03 0.  1.
         11    1    4    4    0    0  0.61565117256E-01  0.46184886332E-01 -0.47289087709E-01  0.90331757016E-01  0.51100000000E-03 0. -1.
</event>
<event>
 8    1  0.2846344E+004  0.1043930E+01  0.7957747E-01            NaN
         13   -1    0    0    0    0  0.00000000000E+00  0.00000000000E+00  0.74505805969E-08  0.10566000000E+00  0.10566000000E+00 0.  1.
     999900   -1    0    0    0    0 -0.00000000000E+00 -0.00000000000E+00 -0.74505805969E-08  0.93827000000E+00  0.93827000000E+00 0.  1.
     999902    2    1    2    0    0  0.74968224578E-02  0.57949915069E-02 -0.10382880397E-01  0.10298733831E+01  0.10297774501E+01 0.  0.
     999903    2    3    3    0    0 -0.14241697961E-01 -0.13080232728E+00  0.66010649360E-02  0.13890770184E+00  0.44042034350E-01 0.  0.
         14    1    1    2    0    0 -0.74968224578E-02 -0.57949915069E-02  0.10382880397E-01  0.14056616907E-01  0.00000000000E+00 0.  1.
     999901    1    3    3    0    0  0.21738520418E-01  0.13659731879E+00 -0.16983945333E-01  0.89096568125E+00  0.88000000000E+00 0. -1.
        -11    1    4    4    0    0  0.20451566365E-02 -0.14972578994E-01 -0.13443458248E-01  0.20232362148E-01  0.51100000000E-03 0. -1.
         11    1    4    4    0    0 -0.16286854597E-01 -0.11582974829E+00  0.20044523184E-01  0.11867533969E+00  0.51100000000E-03 0.  1.
</event>
<event>
 8    1  0.2846344E+004  0.1043930E+01  0.7957747E-01            NaN
         13   -1    0    0    0    0  0.00000000000E+00  0.00000000000E+00  0.74505805969E-08  0.10566000000E+00  0.10566000000E+00 0. -1.
     999900   -1    0    0    0    0 -0.00000000000E+00 -0.00000000000E+00 -0.74505805969E-08  0.93827000000E+00  0.93827000000E+00 0.  1.
     999902    2    1    2    0    0 -0.12630363110E-01 -0.34358760791E-02  0.71708380934E-02  0.10290051135E+01  0.10288968712E+01 0.  0.
     999903    2    3    3    0    0 -0.96038232788E-01  0.47936615496E-01  0.79025010703E-01  0.14065888164E+00  0.44930027890E-01 0.  0.
         14    1    1    2    0    0  0.12630363110E-01  0.34358760791E-02 -0.71708380934E-02  0.14924886454E-01  0.00000000000E+00 0.  1.
     999901    1    3    3    0    0  0.83407869678E-01 -0.51372491575E-01 -0.71854172609E-01  0.88834623190E+00  0.88000000000E+00 0.  1.
        -11    1    4    4    0    0 -0.98619617685E-01  0.45323996942E-01  0.65802956080E-01  0.12692668688E+00  0.51100000000E-03 0. -1.
         11    1    4    4    0    0  0.25813848974E-02  0.26126185535E-02  0.13222054622E-01  0.13732194767E-01  0.51100000000E-03 0.  1.
</event>
<event>
 8    1  0.2846344E+004  0.1043930E+01  0.7957747E-01            NaN
         13   -1    0    0    0    0  0.00000000000E+00  0.00000000000E+00  0.74505805969E-08  0.10566000000E+00  0.10566000000E+00 0.  1.
     999900   -1    0    0    0    0 -0.00000000000E+00 -0.00000000000E+00 -0.74505805969E-08  0.93827000000E+00  0.93827000000E+00 0.  1.
     999902    2    1    2    0    0 -0.10139505223E-01  0.49052924137E-02  0.87966254820E-02  0.10296383213E+01  0.10295391302E+01 0.  0.
     999903    2    3    3    0    0  0.57456756516E-01 -0.11519897815E+00 -0.20702409933E-01  0.13842314892E+00  0.46478973144E-01 0.  0.
         14    1    1    2    0    0  0.10139505223E-01 -0.49052924137E-02 -0.87966254820E-02  0.14291678687E-01  0.00000000000E+00 0. -1.
     999901    1    3    3    0    0 -0.67596261739E-01  0.12010427056E+00  0.29499035415E-01  0.89121517239E+00  0.88000000000E+00 0. -1.
        -11    1    4    4    0    0  0.36671475410E-01 -0.30679865008E-01 -0.18756161145E-01  0.51362495340E-01  0.51100000000E-03 0. -1.
         11    1    4    4    0    0  0.20785281106E-01 -0.84519113141E-01 -0.19462487875E-02  0.87060653582E-01  0.51100000000E-03 0.  1.
</event>
<event>
 8    1  0.2846344E+004  0.1043930E+01  0.7957747E-01            NaN
         13   -1    0    0    0    0  0.00000000000E+00  0.00000000000E+00  0.74505805969E-08  0.10566000000E+00  0.10566000000E+00 0. -1.
     999900   -1    0    0    0    0 -0.00000000000E+00 -0.00000000000E+00 -0.74505805969E-08  0.93827000000E+00  0.93827000000E+00 0. -1.
     999902    2    1    2    0    0 -0.10955358183E-01  0.66330605432E-02  0.45991649797E-02  0.10303222932E+01  0.10302324292E+01 0.  0.
     999903    2    3    3    0    0 -0.94359669493E-01 -0.62001820783E-01 -0.70372468841E-01  0.14055391215E+00  0.45333705385E-01 0.  0.
         14    1    1    2    0    0  0.10955358183E-01 -0.66330605432E-02 -0.45991649797E-02  0.13607706772E-01  0.00000000000E+00 0.  1.
     999901    1    3    3    0    0  0.83404311310E-01  0.68634881326E-01  0.74971633820E-01  0.88976838107E+00  0.88000000000E+00 0.  1.
        -11    1    4    4    0    0 -0.22810586851E-01 -0.15482071342E-01  0.33514687730E-02  0.27776084488E-01  0.51100000000E-03 0.  1.
         11    1    4    4    0    0 -0.71549082642E-01 -0.46519749441E-01 -0.73723937614E-01  0.11277782767E+00  0.51100000000E-03 0. -1.
</event>
<event>
 8    1  0.2846344E+004  0.1043930E+01  0.7957747E-01            NaN
         13   -1    0    0    0    0  0.00000000000E+00  0.00000000000E+00  0.74505805969E-08  0.10566000000E+00  0.10566000000E+00 0.  1.
     999900   -1    0    0    0    0 -0.00000000000E+00 -0.00000000000E+00 -0.74505805969E-08  0.93827000000E+00  0.93827000000E+00 0.  1.
     999902    2    1    2    0    0  0.40471114967E-02  0.80888552355E-02  0.13419727807E-01  0.10277467437E+01  0.10276193222E+01 0.  0.
     999903    2    3    3    0    0 -0.44323677479E-01 -0.12104765556E+00  0.11115486177E-01  0.13700476018E+00  0.45051381528E-01 0.  0.
         14    1    1    2    0    0 -0.40471114967E-02 -0.80888552355E-02 -0.13419727807E-01  0.16183256313E-01  0.00000000000E+00 0. -1.
     999901    1    3    3    0    0  0.48370788975E-01  0.12913651080E+00  0.23042416294E-02  0.89074198350E+00  0.88000000000E+00 0. -1.
        -11    1    4    4    0    0 -0.43042633611E-01 -0.70612282351E-01 -0.79251482715E-02  0.83077264176E-01  0.51100000000E-03 0.  1.
         11    1    4    4    0    0 -0.12810438681E-02 -0.50435373211E-01  0.19040634449E-01  0.53927496007E-01  0.51100000000E-03 0. -1.
</event>
<event>
 8    1  0.2846344E+004  0.1043930E+01  0.7957747E-01            NaN
         13   -1    0    0    0    0  0.00000000000E+00  0.00000000000E+00  0.74505805969E-08  0.10566000000E+00  0.10566000000E+00 0. -1.
     999900   -1    0    0    0    0 -0.00000000000E+00 -0.00000000000E+00 -0.74505805969E-08  0.93827000000E+00  0.93827000000E+00 0.  1.
     999902    2    1    2    0    0  0.70731970415E-02 -0.48583085898E-02  0.91493457792E-02  0.10313863240E+01  0.10313100434E+01 0.  0.
     999903    2    3    3    0    0 -0.12104620132E+00 -0.53700711324E-01 -0.14162850763E-01  0.14046342105E+00  0.44647923354E-01 0.  0.
         14    1    1    2    0    0 -0.70731970415E-02  0.48583085898E-02 -0.91493457792E-02  0.12543675974E-01  0.00000000000E+00 0.  1.
     999901    1    3    3    0    0  0.12811939836E+00  0.48842402734E-01  0.23312196542E-01  0.89092290298E+00  0.88000000000E+00 0. -1.
        -11    1    4    4    0    0 -0.29416234722E-01 -0.25322283850E-01 -0.21292262172E-01  0.44273631814E-01  0.51100000000E-03 0. -1.
         11    1    4    4    0    0 -0.91629966600E-01 -0.28378427474E-01  0.71294114089E-02  0.96189789235E-01  0.51100000000E-03 0.  1.
</event>
<event>
 8    1  0.2846344E+004  0.1043930E+01  0.7957747E-01            NaN
         13   -1    0    0    0    0  0.00000000000E+00  0.00000000000E+00  0.74505805969E-08  0.10566000000E+00  0.10566000000E+00 0.  1.
     999900   -1    0    0    0    0 -0.00000000000E+00 -0.00000000000E+00 -0.74505805969E-08  0.93827000000E+00  0.93827000000E+00 0.  1.
     999902    2    1    2    0    0 -0.13827136608E-02  0.95462419294E-02 -0.79285681531E-02  0.10314438146E+01  0.10313682359E+01 0.  0.
     999903    2    3    3    0    0  0.16480345747E-01 -0.87987977483E-01 -0.99172538914E-01  0.14118684328E+00  0.45662306805E-01 0.  0.
         14    1    1    2    0    0  0.13827136608E-02 -0.95462419294E-02  0.79285681531E-02  0.12486185366E-01  0.00000000000E+00 0.  1.
     999901    1    3    3    0    0 -0.17863059408E-01  0.97534219412E-01  0.91243970760E-01  0.89025697136E+00  0.88000000000E+00 0. -1.
        -11    1    4    4    0    0 -0.52119375297E-02 -0.36864480649E-01 -0.14569493585E-01  0.39983565257E-01  0.51100000000E-03 0. -1.
         11    1    4    4    0    0  0.21692283276E-01 -0.51123496834E-01 -0.84603045329E-01  0.10120327802E+00  0.51100000000E-03 0.  1.
</event>
<event>
 8    1  0.2846344E+004  0.1043930E+01  0.7957747E-01            NaN
         13   -1    0    0    0    0  0.00000000000E+00  0.00000000000E+00  0.74505805969E-08  0.10566000000E+00  0.10566000000E+00 0. -1.
     999900   -1    0    0    0    0 -0.00000000000E+00 -0.00000000000E+00 -0.74505805969E-08  0.93827000000E+00  0.93827000000E+00 0.  1.
     999902    2    1    2    0    0  0.97884534600E-02  0.57466363426E-02  0.60052277183E-02  0.10310886445E+01  0.10310086772E+01 0.  0.
     999903    2    3    3    0    0 -0.47560016494E-01 -0.34804278914E-01 -0.11922014304E+00  0.13945272263E+00  0.41956243209E-01 0.  0.
         14    1    1    2    0    0 -0.97884534600E-02 -0.57466363426E-02 -0.60052277183E-02  0.12841355471E-01  0.00000000000E+00 0.  1.
     999901    1    3    3    0    0  0.57348469954E-01  0.40550915257E-01  0.12522537076E+00  0.89163592190E+00  0.88000000000E+00 0. -1.
        -11    1    4    4    0    0 -0.47145764846E-01 -0.27616876322E-01 -0.65720679697E-01  0.85468613312E-01  0.51100000000E-03 0.  1.
         11    1    4    4    0    0 -0.41425164827E-03 -0.71874025919E-02 -0.53499463340E-01  0.53984109320E-01  0.51100000000E-03 0. -1.
</event>
<event>
 8    1  0.2846344E+004  0.1043930E+01  0.7957747E-01            NaN
         13   -1    0    0    0    0  0.00000000000E+00  0.00000000000E+00  0.74505805969E-08  0.10566000000E+00  0.10566000000E+00 0. -1.
     999900   -1    0    0    0    0 -0.00000000000E+00 -0.00000000000E+00 -0.74505805969E-08  0.93827000000E+00  0.93827000000E+00 0.  1.
     999902    2    1    2    0    0 -0.87948415110E-02 -0.45386583992E-02 -0.81886810803E-02  0.10310846446E+01  0.10310046271E+01 0.  0.
     999903    2    3    3    0    0 -0.40109343860E-01 -0.27378111425E-01  0.12382907885E+00  0.14039338070E+00  0.44925940436E-01 0.  0.
         14    1    1    2    0    0  0.87948415110E-02  0.45386583992E-02  0.81886810803E-02  0.12845355390E-01  0.00000000000E+00 0. -1.
     999901    1    3    3    0    0  0.31314502349E-01  0.22839453025E-01 -0.13201775993E+00  0.89069126391E+00  0.88000000000E+00 0.  1.
        -11    1    4    4    0    0 -0.18357820783E-01 -0.31500492461E-01  0.41994560817E-01  0.55615599146E-01  0.51100000000E-03 0.  1.
         11    1    4    4    0    0 -0.21751523076E-01  0.41223810363E-02  0.81834518036E-01  0.84777781551E-01  0.51100000000E-03 0. -1.
</event>
<event>
 8    1  0.2846344E+004  0.1043930E+01  0.7957747E-01            NaN
         13   -1    0    0    0    0  0.00000000000E+00  0.00000000000E+00  0.74505805969E-08  0.10566000000E+00  0.10566000000E+00 0.  1.
     999900   -1    0    0    0    0 -0.00000000000E+00 -0.00000000000E+00 -0.74505805969E-08  0.93827000000E+00  0.93827000000E+00 0.  1.
     999902    2    1    2    0    0  0.74185668122E-03 -0.10033859421E-01 -0.20412245306E-01  0.10211728375E+01  0.10209192307E+01 0.  0.
     999903    2    3    3    0    0  0.83291532801E-01 -0.19972510161E-01 -0.92298004333E-01  0.13433531679E+00  0.46804648642E-01 0.  0.
         14    1    1    2    0    0 -0.74185668122E-03  0.10033859421E-01  0.20412245306E-01  0.22757162491E-01  0.00000000000E+00 0.  1.
     999901    1    3    3    0    0 -0.82549676120E-01  0.99386507397E-02  0.71885759027E-01  0.88683752072E+00  0.88000000000E+00 0. -1.
        -11    1    4    4    0    0  0.39155226177E-01 -0.25194781750E-01 -0.22815591764E-01  0.51852879504E-01  0.51100000000E-03 0. -1.
         11    1    4    4    0    0  0.44136306625E-01  0.52222715886E-02 -0.69482412569E-01  0.82482437285E-01  0.51100000000E-03 0.  1.
</event>
<event>
 8    1  0.2846344E+004  0.1043930E+01  0.7957747E-01            NaN
         13   -1    0    0    0    0  0.00000000000E+00  0.00000000000E+00  0.74505805969E-08  0.10566000000E+00  0.10566000000E+00 0. -1.
     999900   -1    0    0    0    0 -0.00000000000E+00 -0.00000000000E+00 -0.74505805969E-08  0.93827000000E+00  0.93827000000E+00 0. -1.
     999902    2    1    2    0    0  0.17033402741E-02  0.96612391234E-02  0.94739934917E-02  0.10302919113E+01  0.10302016429E+01 0.  0.
     999903    2    3    3    0    0 -0.18401132248E-01  0.13142851980E+00 -0.16240583684E-01  0.14130782828E+00  0.45739351679E-01 0.  0.
         14    1    1    2    0    0 -0.17033402741E-02 -0.96612391234E-02 -0.94739934917E-02  0.13638088655E-01  0.00000000000E+00 0.  1.
     999901    1    3    3    0    0  0.20104472522E-01 -0.12176728067E+00  0.25714577176E-01  0.88898408306E+00  0.88000000000E+00 0. -1.
        -11    1    4    4    0    0  0.32475197088E-02  0.55159616383E-01 -0.26642247528E-01  0.61344927567E-01  0.51100000000E-03 0.  1.
         11    1    4    4    0    0 -0.21648651957E-01  0.76268903412E-01  0.10401663844E-01  0.79962900716E-01  0.51100000000E-03 0. -1.
</event>
<event>
 7    1  0.2846344E+004  0.1043930E+01  0.7957747E-01            NaN
         13   -1    0    0    0    0  0.00000000000E+00  0.00000000000E+00  0.74505805969E-08  0.10566000000E+00  0.10566000000E+00 0. -1.
     999900   -1    0    0    0    0 -0.00000000000E+00 -0.00000000000E+00 -0.74505805969E-08  0.93827000000E+00  0.93827000000E+00 0. -1.
     999902    2    1    2    0    0  0.11181293503E-01  0.73314667319E-02  0.41281933782E-02  0.10299366548E+01  0.10298415894E+01 0.  0.
         14    1    1    2    0    0 -0.11181293503E-01 -0.73314667319E-02 -0.41281933782E-02  0.13993345183E-01  0.00000000000E+00 0. -1.
     999901    1    3    3    0    0 -0.92314267107E-01  0.79780531538E-01 -0.15634971610E-01  0.88855574359E+00  0.88000000000E+00 0.  1.
        -11    1    3    3    0    0  0.91637488080E-01 -0.50899815855E-01  0.37195139941E-01  0.11122931283E+00  0.51100000000E-03 0.  1.
         11    1    3    3    0    0  0.11858072530E-01 -0.21549248952E-01 -0.17431974952E-01  0.30151598403E-01  0.51100000000E-03 0. -1.
</event>
<event>
 8    1  0.2846344E+004  0.1043930E+01  0.7957747E-01            NaN
         13   -1    0    0    0    0  0.00000000000E+00  0.00000000000E+00  0.74505805969E-08  0.10566000000E+00  0.10566000000E+00 0. -1.
     999900   -1    0    0    0    0 -0.00000000000E+00 -0.00000000000E+00 -0.74505805969E-08  0.93827000000E+00  0.93827000000E+00 0. -1.
     999902    2    1    2    0    0 -0.11003072615E-01  0.41421253656E-03 -0.91009118947E-02  0.10296448407E+01  0.10295457407E+01 0.  0.
     999903    2    3    3    0    0  0.29289337441E-01 -0.55495311287E-01 -0.11745643732E+00  0.14032472226E+00  0.44242718587E-01 0.  0.
         14    1    1    2    0    0  0.11003072615E-01 -0.41421253656E-03  0.91009118947E-02  0.14285159303E-01  0.00000000000E+00 0. -1.
     999901    1    3    3    0    0 -0.40292410056E-01  0.55909523824E-01  0.10835552542E+00  0.88932011843E+00  0.88000000000E+00 0.  1.
        -11    1    4    4    0    0 -0.11244660347E-01 -0.16474377858E-01 -0.23701758078E-01  0.30981961995E-01  0.51100000000E-03 0. -1.
         11    1    4    4    0    0  0.40533997788E-01 -0.39020933429E-01 -0.93754679241E-01  0.10934276027E+00  0.51100000000E-03 0.  1.
</event>
<event>
 8    1  0.2846344E+004  0.1043930E+01  0.7957747E-01            NaN
         13   -1    0    0    0    0  0.00000000000E+00  0.00000000000E+00  0.74505805969E-08  0.10566000000E+00  0.10566000000E+00 0. -1.
     999900   -1    0    0    0    0 -0.00000000000E+00 -0.00000000000E+00 -0.74505805969E-08  0.93827000000E+00  0.93827000000E+00 0.  1.
     999902    2    1    2    0    0 -0.10128014836E-01  0.76168537171E-02 -0.54379729316E-02  0.10301399784E+01  0.10300476739E+01 0.  0.
     999903    2    3    3    0    0  0.14587706920E-01  0.58573816605E-01 -0.11943969604E+00  0.14098089715E+00  0.44340491479E-01 0.  0.
         14    1    1    2    0    0  0.10128014836E-01 -0.76168537171E-02  0.54379729316E-02  0.13790021561E-01  0.00000000000E+00 0. -1.
     999901    1    3    3    0    0 -0.24715721755E-01 -0.50956962888E-01  0.11400172311E+00  0.88915908129E+00  0.88000000000E+00 0. -1.
        -11    1    4    4    0    0  0.14488929869E-02  0.41521467551E-01 -0.36543723225E-01  0.55333862929E-01  0.51100000000E-03 0. -1.
         11    1    4    4    0    0  0.13138813933E-01  0.17052349054E-01 -0.82895972820E-01  0.85647034219E-01  0.51100000000E-03 0.  1.
</event>
<event>
 8    1  0.2846344E+004  0.1043930E+01  0.7957747E-01            NaN
         13   -1    0    0    0    0  0.00000000000E+00  0.00000000000E+00  0.74505805969E-08  0.10566000000E+00  0.10566000000E+00 0.  1.
     999900   -1    0    0    0    0 -0.00000000000E+00 -0.00000000000E+00 -0.74505805969E-08  0.93827000000E+00  0.93827000000E+00 0. -1.
     999902    2    1    2    0    0  0.45239447248E-02  0.13597122659E-01  0.76572213979E-02  0.10276825122E+01  0.10275540691E+01 0.  0.
     999903    2    3    3    0    0 -0.10269164374E-01 -0.11938604068E+00  0.48044104550E-01  0.13665251374E+00  0.44801686162E-01 0.  0.
         14    1    1    2    0    0 -0.45239447248E-02 -0.13597122659E-01 -0.76572213979E-02  0.16247487807E-01  0.00000000000E+00 0. -1.
     999901    1    3    3    0    0  0.14793109099E-01  0.13298316334E+00 -0.40386883152E-01  0.89102999845E+00  0.88000000000E+00 0.  1.
        -11    1    4    4    0    0  0.14835977686E-02 -0.54555868827E-01 -0.88082702255E-03  0.54585537124E-01  0.51100000000E-03 0.  1.
         11    1    4    4    0    0 -0.11752762143E-01 -0.64830171856E-01  0.48924931573E-01  0.82066976618E-01  0.51100000000E-03 0. -1.
</event>
<event>
 8    1  0.2846344E+004  0.1043930E+01  0.7957747E-01            NaN
         13   -1    0    0    0    0  0.00000000000E+00  0.00000000000E+00  0.74505805969E-08  0.10566000000E+00  0.10566000000E+00 0.  1.
     999900   -1    0    0    0    0 -0.00000000000E+00 -0.00000000000E+00 -0.74505805969E-08  0.93827000000E+00  0.93827000000E+00 0. -1.
     999902    2    1    2    0    0  0.13389156917E-01  0.26587281763E-02  0.30179034771E-02  0.10299497961E+01  0.10298549104E+01 0.  0.
     999903    2    3    3    0    0 -0.80724770609E-01 -0.96986323637E-01 -0.35202526291E-01  0.13851983874E+00  0.45007691617E-01 0.  0.
         14    1    1    2    0    0 -0.13389156917E-01 -0.26587281763E-02 -0.30179034771E-02  0.13980203857E-01  0.00000000000E+00 0. -1.
     999901    1    3    3    0    0  0.94113927526E-01  0.99645051813E-01  0.38220429769E-01  0.89142995740E+00  0.88000000000E+00 0.  1.
        -11    1    4    4    0    0 -0.34606725342E-01 -0.10925675850E-01 -0.80760144858E-02  0.37181701987E-01  0.51100000000E-03 0.  1.
         11    1    4    4    0    0 -0.46118045267E-01 -0.86060647787E-01 -0.27126511806E-01  0.10133813675E+00  0.51100000000E-03 0. -1.
</event>
<event>
 8    1  0.2846344E+004  0.1043930E+01  0.7957747E-01            NaN
         13   -1    0    0    0    0  0.00000000000E+00  0.00000000000E+00  0.74505805969E-08  0.10566000000E+00  0.10566000000E+00 0.  1.
     999900   -1    0    0    0    0 -0.00000000000E+00 -0.00000000000E+00 -0.74505805969E-08  0.93827000000E+00  0.93827000000E+00 0. -1.
     999902    2    1    2    0    0  0.28329919767E-02  0.12218461170E-01 -0.43225671686E-02  0.10306634547E+01  0.10305780687E+01 0.  0.
     999903    2    3    3    0    0  0.11256136387E+00  0.39372094631E-02  0.69507479137E-01  0.14074223884E+00  0.47869884930E-01 0.  0.
         14    1    1    2    0    0 -0.28329919767E-02 -0.12218461170E-01  0.43225671686E-02  0.13266545286E-01  0.00000000000E+00 0. -1.
     999901    1    3    3    0    0 -0.10972837189E+00  0.82812517066E-02 -0.73830046306E-01  0.88992121588E+00  0.88000000000E+00 0. -1.
        -11    1    4    4    0    0  0.28948288702E-01  0.22157585737E-01  0.16004028081E-01  0.39816479757E-01  0.51100000000E-03 0.  1.
         11    1    4    4    0    0  0.83613075166E-01 -0.18220376274E-01  0.53503451057E-01  0.10092575908E+00  0.51100000000E-03 0. -1.
</event>
<event>
 8    1  0.2846344E+004  0.1043930E+01  0.7957747E-01            NaN
         13   -1    0    0    0    0  0.00000000000E+00  0.00000000000E+00  0.74505805969E-08  0.10566000000E+00  0.10566000000E+00 0. -1.
     999900   -1    0    0    0    0 -0.00000000000E+00 -0.00000000000E+00 -0.74505805969E-08  0.93827000000E+00  0.93827000000E+00 0. -1.
     999902    2    1    2    0    0 -0.35454806464E-02 -0.37631626107E-02  0.11262301796E-01  0.10315376125E+01  0.10314631718E+01 0.  0.
     999903    2    3    3    0    0 -0.69528375748E-01 -0.10159059517E+00 -0.52640992817E-01  0.14136483149E+00  0.45366258369E-01 0.  0.
         14    1    1    2    0    0  0.35454806464E-02  0.37631626107E-02 -0.11262301796E-01  0.12392387485E-01  0.00000000000E+00 0.  1.
     999901    1    3    3    0    0  0.65982895102E-01  0.97827432555E-01  0.63903294613E-01  0.89017278102E+00  0.88000000000E+00 0.  1.
        -11    1    4    4    0    0 -0.71470476539E-01 -0.71698335357E-01 -0.40345262605E-01  0.10898018923E+00  0.51100000000E-03 0.  1.
         11    1    4    4    0    0  0.19421007907E-02 -0.29892259809E-01 -0.12295730212E-01  0.32384642261E-01  0.51100000000E-03 0. -1.
</event>
<event>
 8    1  0.2846344E+004  0.1043930E+01  0.7957747E-01            NaN
         13   -1    0    0    0    0  0.00000000000E+00  0.00000000000E+00  0.74505805969E-08  0.10566000000E+00  0.10566000000E+00 0. -1.
     999900   -1    0    0    0    0 -0.00000000000E+00 -0.00000000000E+00 -0.74505805969E-08  0.93827000000E+00  0.93827000000E+00 0. -1.
     999902    2    1    2    0    0  0.72497604650E-02  0.13007704381E-01 -0.34519430347E-02  0.10286435579E+01  0.10285299675E+01 0.  0.
     999903    2    3    3    0    0  0.88251636252E-01  0.51371116929E-01 -0.85006470783E-01  0.14033944543E+00  0.45185361725E-01 0.  0.
         14    1    1    2    0    0 -0.72497604650E-02 -0.13007704381E-01  0.34519430347E-02  0.15286442057E-01  0.00000000000E+00 0.  1.
     999901    1    3    3    0    0 -0.81001875787E-01 -0.38363412548E-01  0.81554527748E-01  0.88830411251E+00  0.88000000000E+00 0.  1.
        -11    1    4    4    0    0  0.70517976409E-01  0.39797937564E-01 -0.87253814604E-01  0.11903843965E+00  0.51100000000E-03 0. -1.
         11    1    4    4    0    0  0.17733659843E-01  0.11573179365E-01  0.22473438210E-02  0.21301005781E-01  0.51100000000E-03 0.  1.
</event>
<event>
 8    1  0.2846344E+004  0.1043930E+01  0.7957747E-01            NaN
         13   -1    0    0    0    0  0.00000000000E+00  0.00000000000E+00  0.74505805969E-08  0.10566000000E+00  0.10566000000E+00 0. -1.
     999900   -1    0    0    0    0 -0.00000000000E+00 -0.00000000000E+00 -0.74505805969E-08  0.93827000000E+00  0.93827000000E+00 0. -1.
     999902    2    1    2    0    0 -0.46241183922E-03 -0.72523026523E-03 -0.14126416287E-01  0.10297774235E+01  0.10296801671E+01 0.  0.
     999903    2    3    3    0    0  0.37538664679E-01  0.50481066925E-01  0.11492486679E+00  0.13808218391E+00  0.43605906075E-01 0.  0.
         14    1    1    2    0    0  0.46241183922E-03  0.72523026523E-03  0.14126416287E-01  0.14152576471E-01  0.00000000000E+00 0. -1.
     999901    1    3    3    0    0 -0.38001076518E-01 -0.51206297190E-01 -0.12905128307E+00  0.89169523961E+00  0.88000000000E+00 0. -1.
        -11    1    4    4    0    0  0.85664734667E-04  0.26984785569E-01  0.20751191241E-01  0.34044956302E-01  0.51100000000E-03 0.  1.
         11    1    4    4    0    0  0.37452999944E-01  0.23496281356E-01  0.94173675546E-01  0.10403722761E+00  0.51100000000E-03 0. -1.
</event>
<event>
 8    1  0.2846344E+004  0.1043930E+01  0.7957747E-01            NaN
         13   -1    0    0    0    0  0.00000000000E+00  0.00000000000E+00  0.74505805969E-08  0.10566000000E+00  0.10566000000E+00 0.  1.
     999900   -1    0    0    0    0 -0.00000000000E+00 -0.00000000000E+00 -0.74505805969E-08  0.93827000000E+00  0.93827000000E+00 0.  1.
     999902    2    1    2    0    0  0.57990782386E-02 -0.10495709665E-01 -0.10914293145E-01  0.10277154687E+01  0.10275875503E+01 0.  0.
     999903    2    3    3    0    0  0.95136630716E-01 -0.84334103351E-01 -0.41687587680E-01  0.13958242558E+00  0.39776614628E-01 0.  0.
         14    1    1    2    0    0 -0.57990782386E-02  0.10495709665E-01  0.10914293145E-01  0.16214531281E-01  0.00000000000E+00 0.  1.
     999901    1    3    3    0    0 -0.89337552478E-01  0.73838393686E-01  0.30773294535E-01  0.88813304314E+00  0.88000000000E+00 0.  1.
        -11    1    4    4    0    0  0.52054329900E-01 -0.60375015250E-01 -0.85376282450E-02  0.80174484376E-01  0.51100000000E-03 0. -1.
         11    1    4    4    0    0  0.43082300816E-01 -0.23959088101E-01 -0.33149959435E-01  0.59407941201E-01  0.51100000000E-03 0.  1.
</event>
<event>
 8    1  0.2846344E+004  0.1043930E+01  0.7957747E-01            NaN
         13   -1    0    0    0    0  0.00000000000E+00  0.00000000000E+00  0.74505805969E-08  0.10566000000E+00  0.10566000000E+00 0. -1.
     999900   -1    0    0    0    0 -0.00000000000E+00 -0.00000000000E+00 -0.74505805969E-08  0.93827000000E+00  0.93827000000E+00 0.  1.
     999902    2    1    2    0    0  0.18169822510E-02 -0.61218897544E-02  0.28451067892E-02  0.10369390350E+01  0.10369154685E+01 0.  0.
     999903    2    3    3    0    0 -0.57729982607E-01 -0.58525954016E-01 -0.11210295559E+00  0.14592551996E+00  0.44375066627E-01 0.  0.
         14    1    1    2    0    0 -0.18169822510E-02  0.61218897544E-02 -0.28451067892E-02  0.69909649769E-02  0.00000000000E+00 0. -1.
     999901    1    3    3    0    0  0.59546964858E-01  0.52404064261E-01  0.11494806238E+00  0.89101351506E+00  0.88000000000E+00 0.  1.
        -11    1    4    4    0    0 -0.15916899728E-01 -0.19558718114E-01 -0.71488106805E-01  0.75807002888E-01  0.51100000000E-03 0.  1.
         11    1    4    4    0    0 -0.41813082878E-01 -0.38967235902E-01 -0.40614848789E-01  0.70118517075E-01  0.51100000000E-03 0. -1.
</event>
<event>
 8    1  0.2846344E+004  0.1043930E+01  0.7957747E-01            NaN
         13   -1    0    0    0    0  0.00000000000E+00  0.00000000000E+00  0.74505805969E-08  0.10566000000E+00  0.10566000000E+00 0.  1.
     999900   -1    0    0    0    0 -0.00000000000E+00 -0.00000000000E+00 -0.74505805969E-08  0.93827000000E+00  0.93827000000E+00 0.  1.
     999902    2    1    2    0    0 -0.12294818159E-01  0.73258797387E-02  0.11031351804E-02  0.10295756287E+01  0.10294755593E+01 0.  0.
     999903    2    3    3    0    0 -0.13011804117E+00 -0.15325413014E-01 -0.26491601849E-01  0.14100550630E+00  0.44890699678E-01 0.  0.
         14    1    1    2    0    0  0.12294818159E-01 -0.73258797387E-02 -0.11031351804E-02  0.14354371276E-01  0.00000000000E+00 0. -1.
     999901    1    3    3    0    0  0.11782322301E+00  0.22651292753E-01  0.27594737029E-01  0.88857012242E+00  0.88000000000E+00 0. -1.
        -11    1    4    4    0    0 -0.76929689401E-01  0.10918533589E-01 -0.25172437290E-01  0.81678052175E-01  0.51100000000E-03 0. -1.
         11    1    4    4    0    0 -0.53188351770E-01 -0.26243946603E-01 -0.13191645585E-02  0.59327454129E-01  0.51100000000E-03 0.  1.
</event>
<event>
 8    1  0.2846344E+004  0.1043930E+01  0.7957747E-01            NaN
         13   -1    0    0    0    0  0.00000000000E+00  0.00000000000E+00  0.74505805969E-08  0.10566000000E+00  0.10566000000E+00 0. -1.
     999900   -1    0    0    0    0 -0.00000000000E+00 -0.00000000000E+00 -0.74505805969E-08  0.93827000000E+00  0.93827000000E+00 0. -1.
     999902    2    1    2    0    0 -0.26185271110E-03 -0.17924385987E-02  0.13576222967E-01  0.10302334591E+01  0.10301424101E+01 0.  0.
     999903    2    3    3    0    0 -0.12521432077E+00 -0.20502595944E-01  0.41026629983E-01  0.14078603843E+00  0.45150212434E-01 0.  0.
         14    1    1    2    0    0  0.26185271110E-03  0.17924385987E-02 -0.13576222967E-01  0.13696540914E-01  0.00000000000E+00 0.  1.
     999901    1    3    3    0    0  0.12495246806E+00  0.18710157346E-01 -0.27450407016E-01  0.88944742065E+00  0.88000000000E+00 0. -1.
        -11    1    4    4    0    0 -0.83133243125E-01  0.12113027913E-02  0.42563890455E-01  0.93405295667E-01  0.51100000000E-03 0. -1.
         11    1    4    4    0    0 -0.42081077647E-01 -0.21713898736E-01 -0.15372604723E-02  0.47380742765E-01  0.51100000000E-03 0.  1.
</event>
<event>
 8    1  0.2846344E+004  0.1043930E+01  0.7957747E-01            NaN
         13   -1    0    0    0    0  0.00000000000E+00  0.00000000000E+00  0.74505805969E-08  0.10566000000E+00  0.10566000000E+00 0.  1.
     999900   -1    0    0    0    0 -0.00000000000E+00 -0.00000000000E+00 -0.74505805969E-08  0.93827000000E+00  0.93827000000E+00 0. -1.
     999902    2    1    2    0    0  0.11861573758E-02  0.97870067810E-02  0.10027391578E-01  0.10298679570E+01  0.10297719494E+01 0.  0.
     999903    2    3    3    0    0  0.81031355911E-01 -0.37897711105E-01  0.99918175769E-01  0.14041338193E+00  0.41592773763E-01 0.  0.
         14    1    1    2    0    0 -0.11861573758E-02 -0.97870067810E-02 -0.10027391578E-01  0.14062042985E-01  0.00000000000E+00 0. -1.
     999901    1    3    3    0    0 -0.79845198536E-01  0.47684717886E-01 -0.89890784191E-01  0.88945457508E+00  0.88000000000E+00 0. -1.
        -11    1    4    4    0    0  0.28510110181E-01  0.17342296424E-02  0.50880359625E-01  0.58351572829E-01  0.51100000000E-03 0. -1.
         11    1    4    4    0    0  0.52521245731E-01 -0.39631940748E-01  0.49037816144E-01  0.82061809106E-01  0.51100000000E-03 0.  1.
</event>
<event>
 8    1  0.2846344E+004  0.1043930E+01  0.7957747E-01            NaN
         13   -1    0    0    0    0  0.00000000000E+00  0.00000000000E+00  0.74505805969E-08  0.10566000000E+00  0.10566000000E+00 0. -1.
     999900   -1    0    0    0    0 -0.00000000000E+00 -0.00000000000E+00 -0.74505805969E-08  0.93827000000E+00  0.93827000000E+00 0. -1.
     999902    2    1    2    0    0  0.24869388149E-01 -0.34444706971E-02  0.12474623653E-01  0.10158948956E+01  0.10155079870E+01 0.  0.
     999903    2    3    3    0    0  0.84655862206E-01 -0.86684481700E-01 -0.98978703254E-02  0.12966476157E+00  0.45101753663E-01 0.  0.
         14    1    1    2    0    0 -0.24869388149E-01  0.34444706971E-02 -0.12474623653E-01  0.28035104433E-01  0.00000000000E+00 0.  1.
     999901    1    3    3    0    0 -0.59786474057E-01  0.83240011003E-01  0.22372493978E-01  0.88623013399E+00  0.88000000000E+00 0. -1.
        -11    1    4    4    0    0 -0.53071317621E-02 -0.23152255172E-02  0.79191852271E-03  0.58663594062E-02  0.51100000000E-03 0.  1.
         11    1    4    4    0    0  0.89962993968E-01 -0.84369256183E-01 -0.10689788848E-01  0.12379840217E+00  0.51100000000E-03 0. -1.
</event>
<event>
 8    1  0.2846344E+004  0.1043930E+01  0.7957747E-01            NaN
         13   -1    0    0    0    0  0.00000000000E+00  0.00000000000E+00  0.74505805969E-08  0.10566000000E+00  0.10566000000E+00 0.  1.
     999900   -1    0    0    0    0 -0.00000000000E+00 -0.00000000000E+00 -0.74505805969E-08  0.93827000000E+00  0.93827000000E+00 0.  1.
     999902    2    1    2    0    0  0.10031555102E-01  0.79596086952E-02  0.61338318037E-02  0.10297310085E+01  0.10296331086E+01 0.  0.
     999903    2    3    3    0    0  0.80304141811E-02 -0.46441462574E-01 -0.12226412146E+00  0.13874867669E+00  0.45622175385E-01 0.  0.
         14    1    1    2    0    0 -0.10031555102E-01 -0.79596086952E-02 -0.61338318037E-02  0.14198991547E-01  0.00000000000E+00 0.  1.
     999901    1    3    3    0    0  0.20011409208E-02  0.54401071269E-01  0.12839795327E+00  0.89098233177E+00  0.88000000000E+00 0. -1.
        -11    1    4    4    0    0  0.13269573153E-02 -0.22631061275E-01 -0.11828199189E-01  0.25575245203E-01  0.51100000000E-03 0.  1.
         11    1    4    4    0    0  0.67034568658E-02 -0.23810401299E-01 -0.11043592227E+00  0.11317343148E+00  0.51100000000E-03 0. -1.
</event>
<event>
 8    1  0.2846344E+004  0.1043930E+01  0.7957747E-01            NaN
         13   -1    0    0    0    0  0.00000000000E+00  0.00000000000E+00  0.74505805969E-08  0.10566000000E+00  0.10566000000E+00 0. -1.
     999900   -1    0    0    0    0 -0.00000000000E+00 -0.00000000000E+00 -0.74505805969E-08  0.93827000000E+00  0.93827000000E+00 0. -1.
     999902    2    1    2    0    0  0.14265006673E-03  0.13858494665E-01 -0.11600512350E-03  0.10300702857E+01  0.10299770394E+01 0.  0.
     999903    2    3    3    0    0  0.13229690016E+00 -0.71606035267E-02 -0.26208259803E-02  0.13995073056E+00  0.45006601979E-01 0.  0.
         14    1    1    2    0    0 -0.14265006673E-03 -0.13858494665E-01  0.11600512350E-03  0.13859714304E-01  0.00000000000E+00 0.  1.
     999901    1    3    3    0    0 -0.13215425009E+00  0.21019098191E-01  0.25048208568E-02  0.89011955513E+00  0.88000000000E+00 0. -1.
        -11    1    4    4    0    0  0.35598515327E-01  0.15968292299E-01 -0.99055330508E-02  0.40256941742E-01  0.51100000000E-03 0.  1.
         11    1    4    4    0    0  0.96698384830E-01 -0.23128895826E-01  0.72847070705E-02  0.99693788819E-01  0.51100000000E-03 0. -1.
</event>
<event>
 8    1  0.2846344E+004  0.1043930E+01  0.7957747E-01            NaN
         13   -1    0    0    0    0  0.00000000000E+00  0.00000000000E+00  0.74505805969E-08  0.10566000000E+00  0.10566000000E+00 0.  1.
     999900   -1    0    0    0    0 -0.00000000000E+00 -0.00000000000E+00 -0.74505805969E-08  0.93827000000E+00  0.93827000000E+00 0.  1.
     999902    2    1    2    0    0  0.55206956984E-02 -0.31859780204E-02  0.10419010185E-01  0.10317158971E+01  0.10316435954E+01 0.  0.
     999903    2    3    3    0    0  0.69008473275E-01 -0.72357026978E-01 -0.88858014476E-01  0.14117041282E+00  0.45117956303E-01 0.  0.
         14    1    1    2    0    0 -0.55206956984E-02  0.31859780204E-02 -0.10419010185E-01  0.12214102922E-01  0.00000000000E+00 0. -1.
     999901    1    3    3    0    0 -0.63487777577E-01  0.69171048958E-01  0.99277024661E-01  0.89054548426E+00  0.88000000000E+00 0. -1.
        -11    1    4    4    0    0  0.48781737422E-01 -0.62773030556E-01 -0.43585441885E-01  0.90664563841E-01  0.51100000000E-03 0. -1.
         11    1    4    4    0    0  0.20226735853E-01 -0.95839964225E-02 -0.45272572591E-01  0.50505848975E-01  0.51100000000E-03 0.  1.
</event>
<event>
 8    1  0.2846344E+004  0.1043930E+01  0.7957747E-01            NaN
         13   -1    0    0    0    0  0.00000000000E+00  0.00000000000E+00  0.74505805969E-08  0.10566000000E+00  0.10566000000E+00 0. -1.
     999900   -1    0    0    0    0 -0.00000000000E+00 -0.00000000000E+00 -0.74505805969E-08  0.93827000000E+00  0.93827000000E+00 0.  1.
     999902    2    1    2    0    0 -0.63867027228E-02  0.82878906435E-02 -0.61119250184E-02  0.10318124619E+01  0.10317413056E+01 0.  0.
     999903    2    3    3    0    0 -0.68986020781E-01  0.11523921265E+00  0.19767439096E-01  0.14275284554E+00  0.44141545783E-01 0.  0.
         14    1    1    2    0    0  0.63867027228E-02 -0.82878906435E-02  0.61119250184E-02  0.12117538134E-01  0.00000000000E+00 0. -1.
     999901    1    3    3    0    0  0.62599318058E-01 -0.10695132201E+00 -0.25879364114E-01  0.88905961633E+00  0.88000000000E+00 0.  1.
        -11    1    4    4    0    0 -0.23755272801E-01  0.78305679162E-01  0.25501703175E-02  0.81870976937E-01  0.51100000000E-03 0.  1.
         11    1    4    4    0    0 -0.45230747981E-01  0.36933533492E-01  0.17217268778E-01  0.60881868600E-01  0.51100000000E-03 0. -1.
</event>
<event>
 8    1  0.2846344E+004  0.1043930E+01  0.7957747E-01            NaN
         13   -1    0    0    0    0  0.00000000000E+00  0.00000000000E+00  0.74505805969E-08  0.10566000000E+00  0.10566000000E+00 0. -1.
     999900   -1    0    0    0    0 -0.00000000000E+00 -0.00000000000E+00 -0.74505805969E-08  0.93827000000E+00  0.93827000000E+00 0. -1.
     999902    2    1    2    0    0  0.75558312072E-02 -0.60799313763E-02  0.95173757056E-02  0.10303418952E+01  0.10302522917E+01 0.  0.
     999903    2    3    3    0    0 -0.84820155184E-01  0.91315491182E-01 -0.40544664668E-01  0.13875600533E+00  0.45567329590E-01 0.  0.
         14    1    1    2    0    0 -0.75558312072E-02  0.60799313763E-02 -0.95173757056E-02  0.13588104765E-01  0.00000000000E+00 0.  1.
     999901    1    3    3    0    0  0.92375986392E-01 -0.97395422558E-01  0.50062040374E-01  0.89158588991E+00  0.88000000000E+00 0. -1.
        -11    1    4    4    0    0 -0.71954313590E-01  0.51128002716E-01 -0.39068606212E-01  0.96530373553E-01  0.51100000000E-03 0.  1.
         11    1    4    4    0    0 -0.12865841594E-01  0.40187488466E-01 -0.14760584567E-02  0.42225631774E-01  0.51100000000E-03 0. -1.
</event>
<event>
 7    1  0.2846344E+004  0.1043930E+01  0.7957747E-01            NaN
         13   -1    0    0    0    0  0.00000000000E+00  0.00000000000E+00  0.74505805969E-08  0.10566000000E+00  0.10566000000E+00 0. -1.
     999900   -1    0    0    0    0 -0.00000000000E+00 -0.00000000000E+00 -0.74505805969E-08  0.93827000000E+00  0.93827000000E+00 0. -1.
     999902    2    1    2    0    0 -0.19920033448E-02 -0.24292024688E-02  0.13765841258E-01  0.10298102448E+01  0.10297134421E+01 0.  0.
         14    1    1    2    0    0  0.19920033448E-02  0.24292024688E-02 -0.13765841258E-01  0.14119755221E-01  0.00000000000E+00 0.  1.
     999901    1    3    3    0    0  0.34844564918E-01 -0.88558502126E-01  0.11036554937E+00  0.89198503715E+00  0.88000000000E+00 0. -1.
        -11    1    3    3    0    0  0.29710026393E-02  0.24838793680E-01 -0.28575110075E-01  0.37981450274E-01  0.51100000000E-03 0. -1.
         11    1    3    3    0    0 -0.39807570903E-01  0.61290505977E-01 -0.68024598041E-01  0.99843757360E-01  0.51100000000E-03 0.  1.
</event>
<event>
 8    1  0.2846344E+004  0.1043930E+01  0.7957747E-01            NaN
         13   -1    0    0    0    0  0.00000000000E+00  0.00000000000E+00  0.74505805969E-08  0.10566000000E+00  0.10566000000E+00 0. -1.
     999900   -1    0    0    0    0 -0.00000000000E+00 -0.00000000000E+00 -0.74505805969E-08  0.93827000000E+00  0.93827000000E+00 0. -1.
     999902    2    1    2    0    0  0.12508871202E-01 -0.60581241328E-05 -0.56006298493E-02  0.10302245649E+01  0.10301333968E+01 0.  0.
     999903    2    3    3    0    0  0.11696827305E+00 -0.59829257325E-01 -0.27576714547E-01  0.14175760996E+00  0.45537104258E-01 0.  0.
         14    1    1    2    0    0 -0.12508871202E-01  0.60581241328E-05  0.56006298493E-02  0.13705435059E-01  0.00000000000E+00 0. -1.
     999901    1    3    3    0    0 -0.10445940185E+00  0.59823199201E-01  0.21976084698E-01  0.88846695498E+00  0.88000000000E+00 0.  1.
        -11    1    4    4    0    0  0.42232971655E-01 -0.31995327823E-01  0.94615072296E-02  0.53824772525E-01  0.51100000000E-03 0.  1.
         11    1    4    4    0    0  0.74735301393E-01 -0.27833929502E-01 -0.37038221777E-01  0.87932837434E-01  0.51100000000E-03 0. -1.
</event>
<event>
 8    1  0.2846344E+004  0.1043930E+01  0.7957747E-01            NaN
         13   -1    0    0    0    0  0.00000000000E+00  0.00000000000E+00  0.74505805969E-08  0.10566000000E+00  0.10566000000E+00 0.  1.
     999900   -1    0    0    0    0 -0.00000000000E+00 -0.00000000000E+00 -0.74505805969E-08  0.93827000000E+00  0.93827000000E+00 0.  1.
     999902    2    1    2    0    0  0.18430682448E-02 -0.81769284358E-03 -0.13376071620E-01  0.10304028120E+01  0.10303140154E+01 0.  0.
     999903    2    3    3    0    0  0.73500844179E-01  0.43495564686E-01 -0.10383060693E+00  0.14176310743E+00  0.44963823795E-01 0.  0.
         14    1    1    2    0    0 -0.18430682448E-02  0.81769284358E-03  0.13376071620E-01  0.13527187961E-01  0.00000000000E+00 0.  1.
     999901    1    3    3    0    0 -0.71657775934E-01 -0.44313257529E-01  0.90454535315E-01  0.88863970461E+00  0.88000000000E+00 0. -1.
        -11    1    4    4    0    0  0.43416469900E-01  0.25854048787E-01 -0.91940542091E-01  0.10491304065E+00  0.51100000000E-03 0.  1.
         11    1    4    4    0    0  0.30084374279E-01  0.17641515898E-01 -0.11890064843E-01  0.36850066784E-01  0.51100000000E-03 0. -1.
</event>
<event>
 8    1  0.2846344E+004  0.1043930E+01  0.7957747E-01            NaN
         13   -1    0    0    0    0  0.00000000000E+00  0.00000000000E+00  0.74505805969E-08  0.10566000000E+00  0.10566000000E+00 0.  1.
     999900   -1    0    0    0    0 -0.00000000000E+00 -0.00000000000E+00 -0.74505805969E-08  0.93827000000E+00  0.93827000000E+00 0. -1.
     999902    2    1    2    0    0 -0.12326878671E-01  0.58197025449E-02 -0.37317741467E-02  0.10297968116E+01  0.10296998234E+01 0.  0.
     999903    2    3    3    0    0  0.88241419882E-01  0.68618887607E-01 -0.67974583723E-01  0.13952446065E+00  0.48491557702E-01 0.  0.
         14    1    1    2    0    0  0.12326878671E-01 -0.58197025449E-02  0.37317741467E-02  0.14133188380E-01  0.00000000000E+00 0.  1.
     999901    1    3    3    0    0 -0.10056829855E+00 -0.62799185062E-01  0.64242809576E-01  0.89027235097E+00  0.88000000000E+00 0.  1.
        -11    1    4    4    0    0  0.69846642956E-01  0.33946757839E-01 -0.62913848404E-01  0.99946732523E-01  0.51100000000E-03 0. -1.
         11    1    4    4    0    0  0.18394776926E-01  0.34672129768E-01 -0.50607353190E-02  0.39577728128E-01  0.51100000000E-03 0.  1.
</event>
<event>
 8    1  0.2846344E+004  0.1043930E+01  0.7957747E-01            NaN
         13   -1    0    0    0    0  0.00000000000E+00  0.00000000000E+00  0.74505805969E-08  0.10566000000E+00  0.10566000000E+00 0.  1.
     999900   -1    0    0    0    0 -0.00000000000E+00 -0.00000000000E+00 -0.74505805969E-08  0.93827000000E+00  0.93827000000E+00 0.  1.
     999902    2    1    2    0    0  0.87529907481E-02  0.93170817750E-02 -0.89978622734E-02  0.10282972016E+01  0.10281783651E+01 0.  0.
     999903    2    3    3    0    0  0.59781203585E-02 -0.15783935831E-01 -0.13085041258E+00  0.13954200191E+00  0.45445233751E-01 0.  0.
         14    1    1    2    0    0 -0.87529907481E-02 -0.93170817750E-02  0.89978622734E-02  0.15632798384E-01  0.00000000000E+00 0.  1.
     999901    1    3    3    0    0  0.27748703896E-02  0.25101017606E-01  0.12185255031E+00  0.88875519971E+00  0.88000000000E+00 0. -1.
        -11    1    4    4    0    0 -0.19180336959E-01 -0.53729626987E-02 -0.71822574036E-01  0.74535208568E-01  0.51100000000E-03 0.  1.
         11    1    4    4    0    0  0.25158457318E-01 -0.10410973132E-01 -0.59027838544E-01  0.65006793340E-01  0.51100000000E-03 0. -1.
</event>
<event>
 8    1  0.2846344E+004  0.1043930E+01  0.7957747E-01            NaN
         13   -1    0    0    0    0  0.00000000000E+00  0.00000000000E+00  0.74505805969E-08  0.10566000000E+00  0.10566000000E+00 0.  1.
     999900   -1    0    0    0    0 -0.00000000000E+00 -0.00000000000E+00 -0.74505805969E-08  0.93827000000E+00  0.93827000000E+00 0. -1.
     999902    2    1    2    0    0 -0.60440642586E-02  0.86050307545E-02 -0.87920176239E-02  0.10302231827E+01  0.10301319961E+01 0.  0.
     999903    2    3    3    0    0  0.39477063092E-01  0.12743194475E+00 -0.19749242904E-01  0.14100326089E+00  0.41164887142E-01 0.  0.
         14    1    1    2    0    0  0.60440642586E-02 -0.86050307545E-02  0.87920176239E-02  0.13706817316E-01  0.00000000000E+00 0.  1.
     999901    1    3    3    0    0 -0.45521127351E-01 -0.11882691400E+00  0.10957225280E-01  0.88921992179E+00  0.88000000000E+00 0. -1.
        -11    1    4    4    0    0  0.81794273813E-02  0.39516502387E-01 -0.25103882676E-01  0.47528128930E-01  0.51100000000E-03 0. -1.
         11    1    4    4    0    0  0.31297635711E-01  0.87915442364E-01  0.53546397720E-02  0.93475131962E-01  0.51100000000E-03 0.  1.
</event>
<event>
 8    1  0.2846344E+004  0.1043930E+01  0.7957747E-01            NaN
         13   -1    0    0    0    0  0.00000000000E+00  0.00000000000E+00  0.74505805969E-08  0.10566000000E+00  0.10566000000E+00 0.  1.
     999900   -1    0    0    0    0 -0.00000000000E+00 -0.00000000000E+00 -0.74505805969E-08  0.93827000000E+00  0.93827000000E+00 0. -1.
     999902    2    1    2    0    0 -0.10933249988E-01 -0.13902045639E-01 -0.13489879922E-03  0.10262432528E+01  0.10260908307E+01 0.  0.
     999903    2    3    3    0    0 -0.79209532394E-01 -0.92758363310E-01  0.48352612996E-01  0.13875747356E+00  0.45137537594E-01 0.  0.
         14    1    1    2    0    0  0.10933249988E-01  0.13902045639E-01  0.13489879922E-03  0.17686747184E-01  0.00000000000E+00 0. -1.
     999901    1    3    3    0    0  0.68276282406E-01  0.78856317671E-01 -0.48487511795E-01  0.88748577925E+00  0.88000000000E+00 0. -1.
        -11    1    4    4    0    0 -0.69132241674E-01 -0.93862098529E-01  0.34477887675E-01  0.12156622162E+00  0.51100000000E-03 0. -1.
         11    1    4    4    0    0 -0.10077290720E-01  0.11037352185E-02  0.13874725321E-01  0.17191251945E-01  0.51100000000E-03 0.  1.
</event>
<event>
 8    1  0.2846344E+004  0.1043930E+01  0.7957747E-01            NaN
         13   -1    0    0    0    0  0.00000000000E+00  0.00000000000E+00  0.74505805969E-08  0.10566000000E+00  0.10566000000E+00 0.  1.
     999900   -1    0    0    0    0 -0.00000000000E+00 -0.00000000000E+00 -0.74505805969E-08  0.93827000000E+00  0.93827000000E+00 0. -1.
     999902    2    1    2    0    0  0.75320886591E-02 -0.12436516522E-01 -0.16738356412E-02  0.10292943918E+01  0.10291903341E+01 0.  0.
     999903    2    3    3    0    0  0.51474559405E-01 -0.12285386248E+00 -0.13483553009E-01  0.14122772734E+00  0.44952897303E-01 0.  0.
         14    1    1    2    0    0 -0.75320886591E-02  0.12436516522E-01  0.16738356412E-02  0.14635608239E-01  0.00000000000E+00 0.  1.
     999901    1    3    3    0    0 -0.43942470746E-01  0.11041734596E+00  0.11809717368E-01  0.88806666442E+00  0.88000000000E+00 0. -1.
        -11    1    4    4    0    0  0.48510646036E-01 -0.10179620001E+00 -0.27094202517E-01  0.11597459225E+00  0.51100000000E-03 0.  1.
         11    1    4    4    0    0  0.29639133692E-02 -0.21057662472E-01  0.13610649508E-01  0.25253135097E-01  0.51100000000E-03 0. -1.
</event>
<event>
 8    1  0.2846344E+004  0.1043930E+01  0.7957747E-01            NaN
         13   -1    0    0    0    0  0.00000000000E+00  0.00000000000E+00  0.74505805969E-08  0.10566000000E+00  0.10566000000E+00 0. -1.
     999900   -1    0    0    0    0 -0.00000000000E+00 -0.00000000000E+00 -0.74505805969E-08  0.93827000000E+00  0.93827000000E+00 0. -1.
     999902    2    1    2    0    0  0.23034950803E-03  0.62240040950E-02 -0.12374578979E-01  0.10300764267E+01  0.10299832636E+01 0.  0.
     999903    2    3    3    0    0  0.16417695714E-01  0.10888226245E+00 -0.77122509198E-01  0.14159849077E+00  0.44467553973E-01 0.  0.
         14    1    1    2    0    0 -0.23034950803E-03 -0.62240040950E-02  0.12374578979E-01  0.13853573286E-01  0.00000000000E+00 0. -1.
     999901    1    3    3    0    0 -0.16187346206E-01 -0.10265825835E+00  0.64747930219E-01  0.88847793594E+00  0.88000000000E+00 0. -1.
        -11    1    4    4    0    0  0.24313923411E-01  0.10580439647E+00 -0.64166620015E-01  0.12610849864E+00  0.51100000000E-03 0.  1.
         11    1    4    4    0    0 -0.78962276965E-02  0.30778659770E-02 -0.12955889183E-01  0.15489992134E-01  0.51100000000E-03 0. -1.
</event>
<event>
 8    1  0.2846344E+004  0.1043930E+01  0.7957747E-01            NaN
         13   -1    0    0    0    0  0.00000000000E+00  0.00000000000E+00  0.74505805969E-08  0.10566000000E+00  0.10566000000E+00 0.  1.
     999900   -1    0    0    0    0 -0.00000000000E+00 -0.00000000000E+00 -0.74505805969E-08  0.93827000000E+00  0.93827000000E+00 0.  1.
     999902    2    1    2    0    0  0.79449747371E-02  0.11658422784E-01  0.72278317843E-03  0.10298032926E+01  0.10297063939E+01 0.  0.
     999903    2    3    3    0    0 -0.88607507351E-01  0.22573718613E-01  0.95030250093E-01  0.13944638454E+00  0.45317574932E-01 0.  0.
         14    1    1    2    0    0 -0.79449747371E-02 -0.11658422784E-01 -0.72278317843E-03  0.14126707362E-01  0.00000000000E+00 0. -1.
     999901    1    3    3    0    0  0.96552482088E-01 -0.10915295830E-01 -0.94307466914E-01  0.89035690810E+00  0.88000000000E+00 0.  1.
        -11    1    4    4    0    0 -0.38530921835E-01 -0.97762281564E-02  0.22946347054E-01  0.45902097321E-01  0.51100000000E-03 0.  1.
         11    1    4    4    0    0 -0.50076585517E-01  0.32349946770E-01  0.72083903039E-01  0.93544287219E-01  0.51100000000E-03 0. -1.
</event>
<event>
 8    1  0.2846344E+004  0.1043930E+01  0.7957747E-01            NaN
         13   -1    0    0    0    0  0.00000000000E+00  0.00000000000E+00  0.74505805969E-08  0.10566000000E+00  0.10566000000E+00 0. -1.
     999900   -1    0    0    0    0 -0.00000000000E+00 -0.00000000000E+00 -0.74505805969E-08  0.93827000000E+00  0.93827000000E+00 0.  1.
     999902    2    1    2    0    0 -0.76762592266E-03 -0.47362366543E-02  0.12488431485E-01  0.10305515805E+01  0.10304647388E+01 0.  0.
     999903    2    3    3    0    0  0.12900961248E-01 -0.58783968935E-02 -0.13061649284E+00  0.13888619811E+00  0.45030184011E-01 0.  0.
         14    1    1    2    0    0  0.76762592266E-03  0.47362366543E-02 -0.12488431485E-01  0.13378419494E-01  0.00000000000E+00 0.  1.
     999901    1    3    3    0    0 -0.13668587171E-01  0.11421602392E-02  0.14310492432E+00  0.89166538240E+00  0.88000000000E+00 0. -1.
        -11    1    4    4    0    0  0.15848995221E-01 -0.23711960611E-01 -0.68800719315E-01  0.74479848447E-01  0.51100000000E-03 0. -1.
         11    1    4    4    0    0 -0.29480339724E-02  0.17833563717E-01 -0.61815773522E-01  0.64406349658E-01  0.51100000000E-03 0.  1.
</event>
<event>
 8    1  0.2846344E+004  0.1043930E+01  0.7957747E-01            NaN
         13   -1    0    0    0    0  0.00000000000E+00  0.00000000000E+00  0.74505805969E-08  0.10566000000E+00  0.10566000000E+00 0. -1.
     999900   -1    0    0    0    0 -0.00000000000E+00 -0.00000000000E+00 -0.74505805969E-08  0.93827000000E+00  0.93827000000E+00 0. -1.
     999902    2    1    2    0    0  0.82114640573E-02  0.10270238798E-01  0.21118660182E-02  0.10306121201E+01  0.10305260677E+01 0.  0.
     999903    2    3    3    0    0 -0.11077025317E+00  0.66302413646E-02  0.72079760678E-01  0.13984536898E+00  0.45246284259E-01 0.  0.
         14    1    1    2    0    0 -0.82114640573E-02 -0.10270238798E-01 -0.21118660182E-02  0.13317879899E-01  0.00000000000E+00 0. -1.
     999901    1    3    3    0    0  0.11898171722E+00  0.36399974332E-02 -0.69967894660E-01  0.89076675112E+00  0.88000000000E+00 0. -1.
        -11    1    4    4    0    0 -0.94579282322E-01  0.10623088914E-01  0.39116049721E-01  0.10290003464E+00  0.51100000000E-03 0. -1.
         11    1    4    4    0    0 -0.16190970844E-01 -0.39928475499E-02  0.32963710957E-01  0.36945334340E-01  0.51100000000E-03 0.  1.
</event>
<event>
 8    1  0.2846344E+004  0.1043930E+01  0.7957747E-01            NaN
         13   -1    0    0    0    0  0.00000000000E+00  0.00000000000E+00  0.74505805969E-08  0.10566000000E+00  0.10566000000E+00 0.  1.
     999900   -1    0    0    0    0 -0.00000000000E+00 -0.00000000000E+00 -0.74505805969E-08  0.93827000000E+00  0.93827000000E+00 0. -1.
     999902    2    1    2    0    0  0.11883641006E-01  0.12257787843E-01 -0.24260890628E-02  0.10266858649E+01  0.10265410391E+01 0.  0.
     999903    2    3    3    0    0  0.66758695480E-01  0.26530336822E-01  0.10936433233E+00  0.13780337799E+00  0.43227671774E-01 0.  0.
         14    1    1    2    0    0 -0.11883641006E-01 -0.12257787843E-01  0.24260890628E-02  0.17244135075E-01  0.00000000000E+00 0. -1.
     999901    1    3    3    0    0 -0.54875054474E-01 -0.14272548979E-01 -0.11179042139E+00  0.88888248693E+00  0.88000000000E+00 0. -1.
        -11    1    4    4    0    0  0.51744952743E-01  0.36359460958E-01  0.68843931411E-01  0.93484215505E-01  0.51100000000E-03 0.  1.
         11    1    4    4    0    0  0.15013742737E-01 -0.98291241356E-02  0.40520400917E-01  0.44319162489E-01  0.51100000000E-03 0. -1.
</event>
<event>
 8    1  0.2846344E+004  0.1043930E+01  0.7957747E-01            NaN
         13   -1    0    0    0    0  0.00000000000E+00  0.00000000000E+00  0.74505805969E-08  0.10566000000E+00  0.10566000000E+00 0. -1.
     999900   -1    0    0    0    0 -0.00000000000E+00 -0.00000000000E+00 -0.74505805969E-08  0.93827000000E+00  0.93827000000E+00 0. -1.
     999902    2    1    2    0    0 -0.44052873694E-02 -0.23947721778E-02  0.13224395609E-01  0.10297869406E+01  0.10296898158E+01 0.  0.
     999903    2    3    3    0    0  0.86946188073E-01  0.94889956842E-02  0.10042863903E+00  0.14069139111E+00  0.45370423580E-01 0.  0.
         14    1    1    2    0    0  0.44052873694E-02  0.23947721778E-02 -0.13224395609E-01  0.14143059422E-01  0.00000000000E+00 0.  1.
     999901    1    3    3    0    0 -0.91351475442E-01 -0.11883767862E-01 -0.87204243425E-01  0.88909554946E+00  0.88000000000E+00 0. -1.
        -11    1    4    4    0    0  0.91974866409E-01  0.10399620717E-01  0.90187538966E-01  0.12923459857E+00  0.51100000000E-03 0. -1.
         11    1    4    4    0    0 -0.50286783364E-02 -0.91062503292E-03  0.10241100069E-01  0.11456792543E-01  0.51100000000E-03 0.  1.
</event>
<event>
 8    1  0.2846344E+004  0.1043930E+01  0.7957747E-01            NaN
         13   -1    0    0    0    0  0.00000000000E+00  0.00000000000E+00  0.74505805969E-08  0.10566000000E+00  0.10566000000E+00 0.  1.
     999900   -1    0    0    0    0 -0.00000000000E+00 -0.00000000000E+00 -0.74505805969E-08  0.93827000000E+00  0.93827000000E+00 0.  1.
     999902    2    1    2    0    0 -0.13766330315E-01  0.11606460838E-02 -0.22753817052E-02  0.10299287032E+01  0.10298335290E+01 0.  0.
     999903    2    3    3    0    0  0.63116699197E-01  0.11019732715E+00 -0.35526099129E-01  0.13925165274E+00  0.44740925804E-01 0.  0.
         14    1    1    2    0    0  0.13766330315E-01 -0.11606460838E-02  0.22753817052E-02  0.14001296782E-01  0.00000000000E+00 0.  1.
     999901    1    3    3    0    0 -0.76883029512E-01 -0.10903668107E+00  0.33250717424E-01  0.89067705048E+00  0.88000000000E+00 0.  1.
        -11    1    4    4    0    0  0.12552660376E-01  0.38244160233E-01  0.81301824557E-02  0.41067579210E-01  0.51100000000E-03 0. -1.
         11    1    4    4    0    0  0.50564038821E-01  0.71953166918E-01 -0.43656281585E-01  0.98184073527E-01  0.51100000000E-03 0.  1.
</event>
<event>
 8    1  0.2846344E+004  0.1043930E+01  0.7957747E-01            NaN
         13   -1    0    0    0    0  0.00000000000E+00  0.00000000000E+00  0.74505805969E-08  0.10566000000E+00  0.10566000000E+00 0.  1.
     999900   -1    0    0    0    0 -0.00000000000E+00 -0.00000000000E+00 -0.74505805969E-08  0.93827000000E+00  0.93827000000E+00 0.  1.
     999902    2    1    2    0    0  0.32628962952E-02 -0.13172588491E-01  0.47883332603E-02  0.10295393185E+01  0.10294387386E+01 0.  0.
     999903    2    3    3    0    0  0.48268225458E-01  0.42120696156E-02  0.12374269241E+00  0.14022618713E+00  0.44761216638E-01 0.  0.
         14    1    1    2    0    0 -0.32628962952E-02  0.13172588491E-01 -0.47883332603E-02  0.14390681540E-01  0.00000000000E+00 0. -1.
     999901    1    3    3    0    0 -0.45005329162E-01 -0.17384658107E-01 -0.11895435914E+00  0.88931313133E+00  0.88000000000E+00 0.  1.
        -11    1    4    4    0    0  0.38131101269E-01  0.23039077092E-01  0.81954418054E-01  0.93282193996E-01  0.51100000000E-03 0. -1.
         11    1    4    4    0    0  0.10137124189E-01 -0.18827007477E-01  0.41788274352E-01  0.46943993137E-01  0.51100000000E-03 0.  1.
</event>
<event>
 8    1  0.2846344E+004  0.1043930E+01  0.7957747E-01            NaN
         13   -1    0    0    0    0  0.00000000000E+00  0.00000000000E+00  0.74505805969E-08  0.10566000000E+00  0.10566000000E+00 0. -1.
     999900   -1    0    0    0    0 -0.00000000000E+00 -0.00000000000E+00 -0.74505805969E-08  0.93827000000E+00  0.93827000000E+00 0. -1.
     999902    2    1    2    0    0  0.26183037247E-02 -0.13306548762E-01  0.68406778076E-02  0.10287407068E+01  0.10286285662E+01 0.  0.
     999903    2    3    3    0    0  0.26566151778E-01 -0.10265783130E+00  0.81012166898E-01  0.14078881572E+00  0.44879045207E-01 0.  0.
         14    1    1    2    0    0 -0.26183037247E-02  0.13306548762E-01 -0.68406778076E-02  0.15189293177E-01  0.00000000000E+00 0. -1.
     999901    1    3    3    0    0 -0.23947848054E-01  0.89351282539E-01 -0.74171489090E-01  0.88795189110E+00  0.88000000000E+00 0. -1.
        -11    1    4    4    0    0  0.18635054492E-01 -0.91862466170E-01  0.48323168869E-01  0.10545789547E+00  0.51100000000E-03 0.  1.
         11    1    4    4    0    0  0.79310972859E-02 -0.10795365131E-01  0.32688998029E-01  0.35330920249E-01  0.51100000000E-03 0. -1.
</event>
<event>
 8    1  0.2846344E+004  0.1043930E+01  0.7957747E-01            NaN
         13   -1    0    0    0    0  0.00000000000E+00  0.00000000000E+00  0.74505805969E-08  0.10566000000E+00  0.10566000000E+00 0.  1.
     999900   -1    0    0    0    0 -0.00000000000E+00 -0.00000000000E+00 -0.74505805969E-08  0.93827000000E+00  0.93827000000E+00 0.  1.
     999902    2    1    2    0    0  0.28012316979E-02 -0.36034596309E-02  0.13569855626E-01  0.10296131288E+01  0.10295135852E+01 0.  0.
     999903    2    3    3    0    0  0.86989972194E-01 -0.50371386357E-01 -0.84686382358E-01  0.13892279464E+00  0.44980303331E-01 0.  0.
         14    1    1    2    0    0 -0.28012316979E-02  0.36034596309E-02 -0.13569855626E-01  0.14316871238E-01  0.00000000000E+00 0. -1.
     999901    1    3    3    0    0 -0.84188740496E-01  0.46767926726E-01  0.98256237984E-01  0.89069033412E+00  0.88000000000E+00 0. -1.
        -11    1    4    4    0    0  0.79538180606E-01 -0.25735774646E-01 -0.71467647424E-01  0.10998426260E+00  0.51100000000E-03 0. -1.
         11    1    4    4    0    0  0.74517915879E-02 -0.24635611711E-01 -0.13218734934E-01  0.28938532037E-01  0.51100000000E-03 0.  1.
</event>
<event>
 8    1  0.2846344E+004  0.1043930E+01  0.7957747E-01            NaN
         13   -1    0    0    0    0  0.00000000000E+00  0.00000000000E+00  0.74505805969E-08  0.10566000000E+00  0.10566000000E+00 0.  1.
     999900   -1    0    0    0    0 -0.00000000000E+00 -0.00000000000E+00 -0.74505805969E-08  0.93827000000E+00  0.93827000000E+00 0. -1.
     999902    2    1    2    0    0  0.46731751641E-02 -0.90100000712E-02  0.15724012680E-01  0.10252146789E+01  0.10250438404E+01 0.  0.
     999903    2    3    3    0    0  0.48659289725E-01  0.10239997847E+00  0.60394796545E-01  0.13597767987E+00  0.44597263446E-01 0.  0.
         14    1    1    2    0    0 -0.46731751641E-02  0.90100000712E-02 -0.15724012680E-01  0.18715321054E-01  0.00000000000E+00 0. -1.
     999901    1    3    3    0    0 -0.43986114561E-01 -0.11140997854E+00 -0.44670783866E-01  0.88923699907E+00  0.88000000000E+00 0. -1.
        -11    1    4    4    0    0  0.23683897744E-01  0.50335457414E-01  0.48325148450E-02  0.55840841739E-01  0.51100000000E-03 0.  1.
         11    1    4    4    0    0  0.24975391982E-01  0.52064521054E-01  0.55562281700E-01  0.80136838133E-01  0.51100000000E-03 0. -1.
</event>
<event>
 8    1  0.2846344E+004  0.1043930E+01  0.7957747E-01            NaN
         13   -1    0    0    0    0  0.00000000000E+00  0.00000000000E+00  0.74505805969E-08  0.10566000000E+00  0.10566000000E+00 0.  1.
     999900   -1    0    0    0    0 -0.00000000000E+00 -0.00000000000E+00 -0.74505805969E-08  0.93827000000E+00  0.93827000000E+00 0.  1.
     999902    2    1    2    0    0 -0.17192823491E-02  0.16694192327E-02  0.13811756438E-01  0.10299118864E+01  0.10298164818E+01 0.  0.
     999903    2    3    3    0    0  0.11415591630E+00 -0.59159919506E-01 -0.29003453370E-01  0.13920407108E+00  0.44778385361E-01 0.  0.
         14    1    1    2    0    0  0.17192823491E-02 -0.16694192327E-02 -0.13811756438E-01  0.14018113578E-01  0.00000000000E+00 0. -1.
     999901    1    3    3    0    0 -0.11587519865E+00  0.60829338739E-01  0.42815209809E-01  0.89070781534E+00  0.88000000000E+00 0. -1.
        -11    1    4    4    0    0  0.23699451070E-01 -0.31765724579E-01 -0.19615839402E-01  0.44224060368E-01  0.51100000000E-03 0.  1.
         11    1    4    4    0    0  0.90456465234E-01 -0.27394194928E-01 -0.93876139682E-02  0.94980010715E-01  0.51100000000E-03 0. -1.
</event>
<event>
 8    1  0.2846344E+004  0.1043930E+01  0.7957747E-01            NaN
         13   -1    0    0    0    0  0.00000000000E+00  0.00000000000E+00  0.74505805969E-08  0.10566000000E+00  0.10566000000E+00 0. -1.
     999900   -1    0    0    0    0 -0.00000000000E+00 -0.00000000000E+00 -0.74505805969E-08  0.93827000000E+00  0.93827000000E+00 0.  1.
     999902    2    1    2    0    0 -0.22799116373E-03 -0.10719266508E-02 -0.12386936568E-01  0.10314946792E+01  0.10314197186E+01 0.  0.
     999903    2    3    3    0    0  0.57387229204E-01 -0.88822444399E-01 -0.83938858251E-01  0.14237188423E+00  0.45180756845E-01 0.  0.
         14    1    1    2    0    0  0.22799116373E-03  0.10719266508E-02  0.12386936568E-01  0.12435320834E-01  0.00000000000E+00 0. -1.
     999901    1    3    3    0    0 -0.57615220368E-01  0.87750517748E-01  0.71551921684E-01  0.88912279494E+00  0.88000000000E+00 0. -1.
        -11    1    4    4    0    0  0.26191841063E-01 -0.62842625303E-01 -0.74034528537E-01  0.10058121410E+00  0.51100000000E-03 0.  1.
         11    1    4    4    0    0  0.31195388141E-01 -0.25979819096E-01 -0.99043297142E-02  0.41790670126E-01  0.51100000000E-03 0. -1.
</event>
<event>
 8    1  0.2846344E+004  0.1043930E+01  0.7957747E-01            NaN
         13   -1    0    0    0    0  0.00000000000E+00  0.00000000000E+00  0.74505805969E-08  0.10566000000E+00  0.10566000000E+00 0.  1.
     999900   -1    0    0    0    0 -0.00000000000E+00 -0.00000000000E+00 -0.74505805969E-08  0.93827000000E+00  0.93827000000E+00 0.  1.
     999902    2    1    2    0    0  0.68783747238E-02 -0.82594130560E-02  0.80363026738E-02  0.10305094149E+01  0.10304220214E+01 0.  0.
     999903    2    3    3    0    0 -0.84035821569E-01  0.65123364006E-01 -0.76250834198E-01  0.13879491774E+00  0.46333223815E-01 0.  0.
         14    1    1    2    0    0 -0.68783747238E-02  0.82594130560E-02 -0.80363026738E-02  0.13420585067E-01  0.00000000000E+00 0. -1.
     999901    1    3    3    0    0  0.90914196293E-01 -0.73382777062E-01  0.84287136872E-01  0.89171449719E+00  0.88000000000E+00 0. -1.
        -11    1    4    4    0    0 -0.61096020110E-01  0.35894473539E-01 -0.24280062689E-01  0.74906070976E-01  0.51100000000E-03 0.  1.
         11    1    4    4    0    0 -0.22939801459E-01  0.29228890468E-01 -0.51970771509E-01  0.63888846767E-01  0.51100000000E-03 0. -1.
</event>
<event>
 8    1  0.2846344E+004  0.1043930E+01  0.7957747E-01            NaN
         13   -1    0    0    0    0  0.00000000000E+00  0.00000000000E+00  0.74505805969E-08  0.10566000000E+00  0.10566000000E+00 0. -1.
     999900   -1    0    0    0    0 -0.00000000000E+00 -0.00000000000E+00 -0.74505805969E-08  0.93827000000E+00  0.93827000000E+00 0.  1.
     999902    2    1    2    0    0  0.13941498438E-01  0.43424989053E-03  0.92279569149E-03  0.10299512481E+01  0.10298563822E+01 0.  0.
     999903    2    3    3    0    0  0.54870049216E-01  0.12043340257E+00 -0.15738657394E-01  0.14070856645E+00  0.45125032761E-01 0.  0.
         14    1    1    2    0    0 -0.13941498438E-01 -0.43424989053E-03 -0.92279569149E-03  0.13978751860E-01  0.00000000000E+00 0. -1.
     999901    1    3    3    0    0 -0.40928550778E-01 -0.11999915268E+00  0.16661453085E-01  0.88924268169E+00  0.88000000000E+00 0.  1.
        -11    1    4    4    0    0 -0.57017834739E-03  0.35578752612E-01  0.82853956112E-02  0.36538769030E-01  0.51100000000E-03 0. -1.
         11    1    4    4    0    0  0.55440227563E-01  0.84854649957E-01 -0.24024053005E-01  0.10416979742E+00  0.51100000000E-03 0.  1.
</event>
<event>
 7    1  0.2846344E+004  0.1043930E+01  0.7957747E-01            NaN
         13   -1    0    0    0    0  0.00000000000E+00  0.00000000000E+00  0.74505805969E-08  0.10566000000E+00  0.10566000000E+00 0. -1.
     999900   -1    0    0    0    0 -0.00000000000E+00 -0.00000000000E+00 -0.74505805969E-08  0.93827000000E+00  0.93827000000E+00 0. -1.
     999903    2    1    2    0    0 -0.11052364129E+00 -0.42553106310E-01 -0.23330063772E-02  0.12706713775E+00  0.45982305709E-01 0.  0.
         14    1    1    2    0    0  0.33692448048E-02  0.10314920106E-01  0.27350303307E-01  0.29424283820E-01  0.00000000000E+00 0. -1.
     999901    1    1    2    0    0  0.10715439648E+00  0.32238186205E-01 -0.25017296930E-01  0.88743857843E+00  0.88000000000E+00 0.  1.
        -11    1    3    3    0    0 -0.76244815512E-01 -0.53431128310E-02 -0.38842239094E-03  0.76434499672E-01  0.51100000000E-03 0.  1.
         11    1    3    3    0    0 -0.34278825774E-01 -0.37209993479E-01 -0.19445839862E-02  0.50632638081E-01  0.51100000000E-03 0. -1.
</event>
<event>
 8    1  0.2846344E+004  0.1043930E+01  0.7957747E-01            NaN
         13   -1    0    0    0    0  0.00000000000E+00  0.00000000000E+00  0.74505805969E-08  0.10566000000E+00  0.10566000000E+00 0. -1.
     999900   -1    0    0    0    0 -0.00000000000E+00 -0.00000000000E+00 -0.74505805969E-08  0.93827000000E+00  0.93827000000E+00 0. -1.
     999902    2    1    2    0    0 -0.12368911320E-02  0.93902743236E-02  0.82456019575E-02  0.10313722493E+01  0.10312957963E+01 0.  0.
     999903    2    3    3    0    0 -0.88598699337E-02 -0.12115303601E-02  0.13416073334E+00  0.14231368632E+00  0.46627436584E-01 0.  0.
         14    1    1    2    0    0  0.12368911320E-02 -0.93902743236E-02 -0.82456019575E-02  0.12557750722E-01  0.00000000000E+00 0.  1.
     999901    1    3    3    0    0  0.76229788017E-02  0.10601804684E-01 -0.12591513138E+00  0.88905856296E+00  0.88000000000E+00 0. -1.
        -11    1    4    4    0    0  0.64989007147E-02  0.19935802911E-01  0.68546979561E-01  0.71684178702E-01  0.51100000000E-03 0.  1.
         11    1    4    4    0    0 -0.15358770648E-01 -0.21147333271E-01  0.65613753775E-01  0.70629507614E-01  0.51100000000E-03 0. -1.
</event>
<event>
 8    1  0.2846344E+004  0.1043930E+01  0.7957747E-01            NaN
         13   -1    0    0    0    0  0.00000000000E+00  0.00000000000E+00  0.74505805969E-08  0.10566000000E+00  0.10566000000E+00 0. -1.
     999900   -1    0    0    0    0 -0.00000000000E+00 -0.00000000000E+00 -0.74505805969E-08  0.93827000000E+00  0.93827000000E+00 0. -1.
     999902    2    1    2    0    0 -0.10247499309E-01  0.11732000350E-01  0.60326419346E-02  0.10272253946E+01  0.10270895615E+01 0.  0.
     999903    2    3    3    0    0  0.66014038295E-01  0.11196100408E+00  0.61393385179E-02  0.13825875475E+00  0.46740476043E-01 0.  0.
         14    1    1    2    0    0  0.10247499309E-01 -0.11732000350E-01 -0.60326419346E-02  0.16704605443E-01  0.00000000000E+00 0. -1.
     999901    1    3    3    0    0 -0.76261537604E-01 -0.10022900373E+00 -0.10669658335E-03  0.88896663981E+00  0.88000000000E+00 0. -1.
        -11    1    4    4    0    0 -0.49318201600E-02  0.25184278907E-01 -0.27712224577E-02  0.25816884960E-01  0.51100000000E-03 0. -1.
         11    1    4    4    0    0  0.70945858455E-01  0.86776725174E-01  0.89105609757E-02  0.11244186979E+00  0.51100000000E-03 0.  1.
</event>
<event>
 8    1  0.2846344E+004  0.1043930E+01  0.7957747E-01            NaN
         13   -1    0    0    0    0  0.00000000000E+00  0.00000000000E+00  0.74505805969E-08  0.10566000000E+00  0.10566000000E+00 0.  1.
     999900   -1    0    0    0    0 -0.00000000000E+00 -0.00000000000E+00 -0.74505805969E-08  0.93827000000E+00  0.93827000000E+00 0. -1.
     999902    2    1    2    0    0  0.49801396853E-02  0.85371837676E-02 -0.10464154174E-01  0.10295361186E+01  0.10294354937E+01 0.  0.
     999903    2    3    3    0    0 -0.10466789713E+00 -0.78502749742E-01  0.42920180216E-03  0.13840352065E+00  0.45136458742E-01 0.  0.
         14    1    1    2    0    0 -0.49801396853E-02 -0.85371837676E-02  0.10464154174E-01  0.14393881358E-01  0.00000000000E+00 0.  1.
     999901    1    3    3    0    0  0.10964803681E+00  0.87039933510E-01 -0.10893355976E-01  0.89113259799E+00  0.88000000000E+00 0.  1.
        -11    1    4    4    0    0 -0.44198504987E-01 -0.27827144958E-01  0.21899748885E-01  0.56636719201E-01  0.51100000000E-03 0. -1.
         11    1    4    4    0    0 -0.60469392140E-01 -0.50675604784E-01 -0.21470547083E-01  0.81766801448E-01  0.51100000000E-03 0.  1.
</event>
<event>
 8    1  0.2846344E+004  0.1043930E+01  0.7957747E-01            NaN
         13   -1    0    0    0    0  0.00000000000E+00  0.00000000000E+00  0.74505805969E-08  0.10566000000E+00  0.10566000000E+00 0. -1.
     999900   -1    0    0    0    0 -0.00000000000E+00 -0.00000000000E+00 -0.74505805969E-08  0.93827000000E+00  0.93827000000E+00 0.  1.
     999902    2    1    2    0    0 -0.46169237155E-02 -0.10410967775E-01 -0.55776510667E-02  0.10312487372E+01  0.10311707635E+01 0.  0.
     999903    2    3    3    0    0 -0.12719800970E+00 -0.37297820531E-01 -0.22873304095E-01  0.14217721865E+00  0.46051192976E-01 0.  0.
         14    1    1    2    0    0  0.46169237155E-02  0.10410967775E-01  0.55776510667E-02  0.12681262793E-01  0.00000000000E+00 0. -1.
     999901    1    3    3    0    0  0.12258108599E+00  0.26886852756E-01  0.17295653028E-01  0.88907151856E+00  0.88000000000E+00 0. -1.
        -11    1    4    4    0    0 -0.60288813587E-01 -0.13915095960E-01 -0.33728607295E-01  0.70471632664E-01  0.51100000000E-03 0.  1.
         11    1    4    4    0    0 -0.66909196115E-01 -0.23382724571E-01  0.10855303200E-01  0.71705585987E-01  0.51100000000E-03 0. -1.
</event>
<event>
 8    1  0.2846344E+004  0.1043930E+01  0.7957747E-01            NaN
         13   -1    0    0    0    0  0.00000000000E+00  0.00000000000E+00  0.74505805969E-08  0.10566000000E+00  0.10566000000E+00 0.  1.
     999900   -1    0    0    0    0 -0.00000000000E+00 -0.00000000000E+00 -0.74505805969E-08  0.93827000000E+00  0.93827000000E+00 0.  1.
     999902    2    1    2    0    0 -0.58126275439E-02  0.11306496860E-01 -0.10013029086E-01  0.10277471615E+01  0.10276197467E+01 0.  0.
     999903    2    3    3    0    0 -0.99593419773E-01  0.55153974177E-01  0.69579303591E-01  0.13811106867E+00  0.35673206631E-01 0.  0.
         14    1    1    2    0    0  0.58126275439E-02 -0.11306496860E-01  0.10013029086E-01  0.16182838493E-01  0.00000000000E+00 0. -1.
     999901    1    3    3    0    0  0.93780792229E-01 -0.43847477317E-01 -0.79592332677E-01  0.88963609284E+00  0.88000000000E+00 0. -1.
        -11    1    4    4    0    0 -0.34170626314E-01  0.29182226514E-01  0.10347631441E-01  0.46114733485E-01  0.51100000000E-03 0. -1.
         11    1    4    4    0    0 -0.65422793459E-01  0.25971747663E-01  0.59231672150E-01  0.91996335185E-01  0.51100000000E-03 0.  1.
</event>
<event>
 8    1  0.2846344E+004  0.1043930E+01  0.7957747E-01            NaN
         13   -1    0    0    0    0  0.00000000000E+00  0.00000000000E+00  0.74505805969E-08  0.10566000000E+00  0.10566000000E+00 0.  1.
     999900   -1    0    0    0    0 -0.00000000000E+00 -0.00000000000E+00 -0.74505805969E-08  0.93827000000E+00  0.93827000000E+00 0.  1.
     999902    2    1    2    0    0 -0.75829882925E-02 -0.11680643848E-01  0.15315887308E-02  0.10299198281E+01  0.10298245324E+01 0.  0.
     999903    2    3    3    0    0  0.11428455378E+00 -0.57607797860E-01 -0.34398689877E-01  0.13960977751E+00  0.43909025315E-01 0.  0.
         14    1    1    2    0    0  0.75829882925E-02  0.11680643848E-01 -0.15315887308E-02  0.14010171883E-01  0.00000000000E+00 0.  1.
     999901    1    3    3    0    0 -0.12186754208E+00  0.45927154012E-01  0.35930278608E-01  0.89031005060E+00  0.88000000000E+00 0. -1.
        -11    1    4    4    0    0  0.50080472778E-01 -0.47342944709E-01 -0.77985892165E-02  0.69357676447E-01  0.51100000000E-03 0. -1.
         11    1    4    4    0    0  0.64204081005E-01 -0.10264853151E-01 -0.26600100661E-01  0.70252101065E-01  0.51100000000E-03 0.  1.
</event>
<event>
 8    1  0.2846344E+004  0.1043930E+01  0.7957747E-01            NaN
         13   -1    0    0    0    0  0.00000000000E+00  0.00000000000E+00  0.74505805969E-08  0.10566000000E+00  0.10566000000E+00 0. -1.
     999900   -1    0    0    0    0 -0.00000000000E+00 -0.00000000000E+00 -0.74505805969E-08  0.93827000000E+00  0.93827000000E+00 0.  1.
     999902    2    1    2    0    0  0.13439570181E-02  0.12404293197E-01  0.46424054132E-02  0.10306174256E+01  0.10305314421E+01 0.  0.
     999903    2    3    3    0    0  0.44260574909E-01  0.11819553001E+00 -0.45603586507E-01  0.14182145258E+00  0.45874344728E-01 0.  0.
         14    1    1    2    0    0 -0.13439570181E-02 -0.12404293197E-01 -0.46424054132E-02  0.13312574439E-01  0.00000000000E+00 0.  1.
     999901    1    3    3    0    0 -0.42916617891E-01 -0.10579123682E+00  0.50245991920E-01  0.88879597298E+00  0.88000000000E+00 0.  1.
        -11    1    4    4    0    0  0.26179124267E-01  0.51769944116E-01 -0.44248874883E-01  0.72963673911E-01  0.51100000000E-03 0. -1.
         11    1    4    4    0    0  0.18081450643E-01  0.66425585896E-01 -0.13547116231E-02  0.68857778671E-01  0.51100000000E-03 0.  1.
</event>
<event>
 8    1  0.2846344E+004  0.1043930E+01  0.7957747E-01            NaN
         13   -1    0    0    0    0  0.00000000000E+00  0.00000000000E+00  0.74505805969E-08  0.10566000000E+00  0.10566000000E+00 0.  1.
     999900   -1    0    0    0    0 -0.00000000000E+00 -0.00000000000E+00 -0.74505805969E-08  0.93827000000E+00  0.93827000000E+00 0. -1.
     999902    2    1    2    0    0  0.12554574801E-01  0.32524467285E-02 -0.64605820251E-02  0.10294408703E+01  0.10293388998E+01 0.  0.
     999903    2    3    3    0    0 -0.72690794927E-01  0.53539868818E-01 -0.96038940288E-01  0.13937352449E+00  0.45288321422E-01 0.  0.
         14    1    1    2    0    0 -0.12554574801E-01 -0.32524467285E-02  0.64605820251E-02  0.14489129659E-01  0.00000000000E+00 0.  1.
     999901    1    3    3    0    0  0.85245369729E-01 -0.50287422089E-01  0.89578358262E-01  0.89006734585E+00  0.88000000000E+00 0.  1.
        -11    1    4    4    0    0 -0.66647588122E-01  0.37079995435E-01 -0.52942786207E-01  0.92844099415E-01  0.51100000000E-03 0.  1.
         11    1    4    4    0    0 -0.60432068054E-02  0.16459873383E-01 -0.43096154081E-01  0.46529425075E-01  0.51100000000E-03 0. -1.
</event>
<event>
 8    1  0.2846344E+004  0.1043930E+01  0.7957747E-01            NaN
         13   -1    0    0    0    0  0.00000000000E+00  0.00000000000E+00  0.74505805969E-08  0.10566000000E+00  0.10566000000E+00 0. -1.
     999900   -1    0    0    0    0 -0.00000000000E+00 -0.00000000000E+00 -0.74505805969E-08  0.93827000000E+00  0.93827000000E+00 0.  1.
     999902    2    1    2    0    0 -0.82514817114E-03  0.42774487740E-02 -0.12040075214E-01  0.10311260612E+01  0.10310465621E+01 0.  0.
     999903    2    3    3    0    0  0.40250046921E-02  0.35128222797E-02  0.13138199148E+00  0.13950170204E+00  0.46593525346E-01 0.  0.
         14    1    1    2    0    0  0.82514817114E-03 -0.42774487740E-02  0.12040075214E-01  0.12803938796E-01  0.00000000000E+00 0. -1.
     999901    1    3    3    0    0 -0.48501528632E-02  0.76462649426E-03 -0.14342206669E+00  0.89162435916E+00  0.88000000000E+00 0.  1.
        -11    1    4    4    0    0  0.23506066961E-01 -0.71406260027E-02  0.73911547186E-01  0.77889034222E-01  0.51100000000E-03 0. -1.
         11    1    4    4    0    0 -0.19481062269E-01  0.10653448282E-01  0.57470444294E-01  0.61612667820E-01  0.51100000000E-03 0.  1.
</event>
<event>
 8    1  0.2846344E+004  0.1043930E+01  0.7957747E-01            NaN
         13   -1    0    0    0    0  0.00000000000E+00  0.00000000000E+00  0.74505805969E-08  0.10566000000E+00  0.10566000000E+00 0.  1.
     999900   -1    0    0    0    0 -0.00000000000E+00 -0.00000000000E+00 -0.74505805969E-08  0.93827000000E+00  0.93827000000E+00 0. -1.
     999902    2    1    2    0    0 -0.17288005790E-02 -0.11916428663E-02  0.13205659614E-01  0.10305584552E+01  0.10304717033E+01 0.  0.
     999903    2    3    3    0    0 -0.79361240776E-01 -0.10654372783E+00  0.83707982901E-02  0.14086792842E+00  0.46086120651E-01 0.  0.
         14    1    1    2    0    0  0.17288005790E-02  0.11916428663E-02 -0.13205659614E-01  0.13371544787E-01  0.00000000000E+00 0. -1.
     999901    1    3    3    0    0  0.77632440197E-01  0.10535208496E+00  0.48348613234E-02  0.88969052679E+00  0.88000000000E+00 0. -1.
        -11    1    4    4    0    0 -0.56785267815E-01 -0.73551001415E-01  0.26992147693E-01  0.96763389812E-01  0.51100000000E-03 0.  1.
         11    1    4    4    0    0 -0.22575972961E-01 -0.32992726415E-01 -0.18621349403E-01  0.44104538610E-01  0.51100000000E-03 0. -1.
</event>
<event>
 8    1  0.2846344E+004  0.1043930E+01  0.7957747E-01            NaN
         13   -1    0    0    0    0  0.00000000000E+00  0.00000000000E+00  0.74505805969E-08  0.10566000000E+00  0.10566000000E+00 0.  1.
     999900   -1    0    0    0    0 -0.00000000000E+00 -0.00000000000E+00 -0.74505805969E-08  0.93827000000E+00  0.93827000000E+00 0. -1.
     999902    2    1    2    0    0  0.64539764730E-02 -0.63446580106E-02  0.92275530173E-02  0.10310049765E+01  0.10309239571E+01 0.  0.
     999903    2    3    3    0    0  0.13080994578E+00  0.28912522865E-01  0.10182901742E-01  0.14156223602E+00  0.44598198239E-01 0.  0.
         14    1    1    2    0    0 -0.64539764730E-02  0.63446580106E-02 -0.92275530173E-02  0.12925023492E-01  0.00000000000E+00 0. -1.
     999901    1    3    3    0    0 -0.12435596931E+00 -0.35257180876E-01 -0.95534872441E-03  0.88944274048E+00  0.88000000000E+00 0.  1.
        -11    1    4    4    0    0  0.48009164696E-01 -0.19653314646E-02 -0.13798073610E-01  0.49993903417E-01  0.51100000000E-03 0.  1.
         11    1    4    4    0    0  0.82800781088E-01  0.30877854330E-01  0.23980975351E-01  0.91568332608E-01  0.51100000000E-03 0. -1.
</event>
<event>
 8    1  0.2846344E+004  0.1043930E+01  0.7957747E-01            NaN
         13   -1    0    0    0    0  0.00000000000E+00  0.00000000000E+00  0.74505805969E-08  0.10566000000E+00  0.10566000000E+00 0. -1.
     999900   -1    0    0    0    0 -0.00000000000E+00 -0.00000000000E+00 -0.74505805969E-08  0.93827000000E+00  0.93827000000E+00 0. -1.
     999902    2    1    2    0    0  0.11792477761E-01  0.61246688147E-02 -0.15655297870E-02  0.10305499782E+01  0.10304631156E+01 0.  0.
     999903    2    3    3    0    0  0.12972769812E+00 -0.48140772028E-02  0.35632119895E-01  0.14183627992E+00  0.44670251117E-01 0.  0.
         14    1    1    2    0    0 -0.11792477761E-01 -0.61246688147E-02  0.15655297870E-02  0.13380021799E-01  0.00000000000E+00 0.  1.
     999901    1    3    3    0    0 -0.11793522036E+00  0.10938746017E-01 -0.37197649682E-01  0.88871369828E+00  0.88000000000E+00 0. -1.
        -11    1    4    4    0    0  0.62891448400E-01 -0.11314401493E-01 -0.37032972324E-02  0.64010354587E-01  0.51100000000E-03 0. -1.
         11    1    4    4    0    0  0.66836249722E-01  0.65003242907E-02  0.39335417127E-01  0.77825925336E-01  0.51100000000E-03 0.  1.
</event>
<event>
 8    1  0.2846344E+004  0.1043930E+01  0.7957747E-01            NaN
         13   -1    0    0    0    0  0.00000000000E+00  0.00000000000E+00  0.74505805969E-08  0.10566000000E+00  0.10566000000E+00 0. -1.
     999900   -1    0    0    0    0 -0.00000000000E+00 -0.00000000000E+00 -0.74505805969E-08  0.93827000000E+00  0.93827000000E+00 0. -1.
     999902    2    1    2    0    0  0.11095175373E-01 -0.92753089290E-02  0.15025380550E-02  0.10293906777E+01  0.10292879944E+01 0.  0.
     999903    2    3    3    0    0  0.11072987876E+00 -0.52498041665E-01  0.53824269513E-01  0.14117176193E+00  0.44891691324E-01 0.  0.
         14    1    1    2    0    0 -0.11095175373E-01  0.92753089290E-02 -0.15025380550E-02  0.14539322298E-01  0.00000000000E+00 0.  1.
     999901    1    3    3    0    0 -0.99634703388E-01  0.43222732736E-01 -0.52321731458E-01  0.88821891577E+00  0.88000000000E+00 0. -1.
        -11    1    4    4    0    0  0.90683688144E-01 -0.57110518076E-01  0.55197895044E-01  0.12054962177E+00  0.51100000000E-03 0.  1.
         11    1    4    4    0    0  0.20046190617E-01  0.46124764109E-02 -0.13736255314E-02  0.20622140165E-01  0.51100000000E-03 0. -1.
</event>
<event>
 8    1  0.2846344E+004  0.1043930E+01  0.7957747E-01            NaN
         13   -1    0    0    0    0  0.00000000000E+00  0.00000000000E+00  0.74505805969E-08  0.10566000000E+00  0.10566000000E+00 0. -1.
     999900   -1    0    0    0    0 -0.00000000000E+00 -0.00000000000E+00 -0.74505805969E-08  0.93827000000E+00  0.93827000000E+00 0.  1.
     999902    2    1    2    0    0  0.13211668274E-01 -0.20250473796E-03  0.65024992940E-03  0.10307007895E+01  0.10306158864E+01 0.  0.
     999903    2    3    3    0    0  0.62150597567E-01  0.11577966674E+00  0.26251837918E-01  0.14137389556E+00  0.45053205687E-01 0.  0.
         14    1    1    2    0    0 -0.13211668274E-01  0.20250473796E-03 -0.65024992940E-03  0.13229210548E-01  0.00000000000E+00 0. -1.
     999901    1    3    3    0    0 -0.48938929292E-01 -0.11598217148E+00 -0.25601587988E-01  0.88932689390E+00  0.88000000000E+00 0. -1.
        -11    1    4    4    0    0  0.38380474594E-01  0.48832160306E-01  0.32417605703E-01  0.70062850290E-01  0.51100000000E-03 0. -1.
         11    1    4    4    0    0  0.23770122973E-01  0.66947506431E-01 -0.61657677852E-02  0.71311045265E-01  0.51100000000E-03 0.  1.
</event>
<event>
 8    1  0.2846344E+004  0.1043930E+01  0.7957747E-01            NaN
         13   -1    0    0    0    0  0.00000000000E+00  0.00000000000E+00  0.74505805969E-08  0.10566000000E+00  0.10566000000E+00 0. -1.
     999900   -1    0    0    0    0 -0.00000000000E+00 -0.00000000000E+00 -0.74505805969E-08  0.93827000000E+00  0.93827000000E+00 0. -1.
     999902    2    1    2    0    0 -0.50201282508E-02  0.30626180778E-03 -0.13479108233E-01  0.10295431365E+01  0.10294426103E+01 0.  0.
     999903    2    3    3    0    0 -0.28099882158E-01  0.21994555421E-01  0.12556239005E+00  0.13806369453E+00  0.44970057896E-01 0.  0.
         14    1    1    2    0    0  0.50201282508E-02 -0.30626180778E-03  0.13479108233E-01  0.14386863546E-01  0.00000000000E+00 0. -1.
     999901    1    3    3    0    0  0.23079753907E-01 -0.21688293613E-01 -0.13904149829E+00  0.89147944192E+00  0.88000000000E+00 0. -1.
        -11    1    4    4    0    0 -0.44875128554E-03  0.20486738815E-01  0.18960716660E-01  0.27922710153E-01  0.51100000000E-03 0.  1.
         11    1    4    4    0    0 -0.27651130872E-01  0.15078166061E-02  0.10660167339E+00  0.11014098438E+00  0.51100000000E-03 0. -1.
</event>
<event>
 8    1  0.2846344E+004  0.1043930E+01  0.7957747E-01            NaN
         13   -1    0    0    0    0  0.00000000000E+00  0.00000000000E+00  0.74505805969E-08  0.10566000000E+00  0.10566000000E+00 0. -1.
     999900   -1    0    0    0    0 -0.00000000000E+00 -0.00000000000E+00 -0.74505805969E-08  0.93827000000E+00  0.93827000000E+00 0. -1.
     999902    2    1    2    0    0  0.10290932907E-01 -0.34065876635E-02  0.78215881572E-02  0.10305626749E+01  0.10304759781E+01 0.  0.
     999903    2    3    3    0    0  0.24481559117E-01 -0.11563170270E+00  0.63255615838E-01  0.14159204446E+00  0.45574079406E-01 0.  0.
         14    1    1    2    0    0 -0.10290932907E-01  0.34065876635E-02 -0.78215881572E-02  0.13367325122E-01  0.00000000000E+00 0.  1.
     999901    1    3    3    0    0 -0.14190626210E-01  0.11222511504E+00 -0.55434027680E-01  0.88897063042E+00  0.88000000000E+00 0. -1.
        -11    1    4    4    0    0 -0.22966179542E-02 -0.61164712678E-01  0.12504791851E-01  0.62474214450E-01  0.51100000000E-03 0. -1.
         11    1    4    4    0    0  0.26778177071E-01 -0.54466990024E-01  0.50750823987E-01  0.79117830012E-01  0.51100000000E-03 0.  1.
</event>
<event>
 8    1  0.2846344E+004  0.1043930E+01  0.7957747E-01            NaN
         13   -1    0    0    0    0  0.00000000000E+00  0.00000000000E+00  0.74505805969E-08  0.10566000000E+00  0.10566000000E+00 0. -1.
     999900   -1    0    0    0    0 -0.00000000000E+00 -0.00000000000E+00 -0.74505805969E-08  0.93827000000E+00  0.93827000000E+00 0.  1.
     999902    2    1    2    0    0 -0.97403018477E-02  0.13885714873E-02 -0.10369734200E-01  0.10296354906E+01  0.10295362600E+01 0.  0.
     999903    2    3    3    0    0 -0.93632583300E-01  0.81039856140E-01  0.46252537405E-01  0.14026024717E+00  0.46894784152E-01 0.  0.
         14    1    1    2    0    0  0.97403018477E-02 -0.13885714873E-02  0.10369734200E-01  0.14294509374E-01  0.00000000000E+00 0. -1.
     999901    1    3    3    0    0  0.83892281453E-01 -0.79651284652E-01 -0.56622271605E-01  0.88937524346E+00  0.88000000000E+00 0.  1.
        -11    1    4    4    0    0 -0.31899590833E-01  0.33339198225E-01  0.41562238517E-01  0.62102872922E-01  0.51100000000E-03 0. -1.
         11    1    4    4    0    0 -0.61732992468E-01  0.47700657914E-01  0.46902988881E-02  0.78157374247E-01  0.51100000000E-03 0.  1.
</event>
<event>
 8    1  0.2846344E+004  0.1043930E+01  0.7957747E-01            NaN
         13   -1    0    0    0    0  0.00000000000E+00  0.00000000000E+00  0.74505805969E-08  0.10566000000E+00  0.10566000000E+00 0. -1.
     999900   -1    0    0    0    0 -0.00000000000E+00 -0.00000000000E+00 -0.74505805969E-08  0.93827000000E+00  0.93827000000E+00 0. -1.
     999902    2    1    2    0    0 -0.35225641692E-02 -0.11717184343E-01  0.60648173068E-02  0.10302741267E+01  0.10301836211E+01 0.  0.
     999903    2    3    3    0    0 -0.40883417306E-01  0.88031389294E-01 -0.88419443875E-01  0.13882985646E+00  0.45108221846E-01 0.  0.
         14    1    1    2    0    0  0.35225641692E-02  0.11717184343E-01 -0.60648173068E-02  0.13655873323E-01  0.00000000000E+00 0. -1.
     999901    1    3    3    0    0  0.37360853137E-01 -0.99748573638E-01  0.94484261181E-01  0.89144427022E+00  0.88000000000E+00 0.  1.
        -11    1    4    4    0    0 -0.36020819770E-03  0.12685321344E-01  0.35825363742E-02  0.13196318252E-01  0.51100000000E-03 0.  1.
         11    1    4    4    0    0 -0.40523209109E-01  0.75346067950E-01 -0.92001980249E-01  0.12563353821E+00  0.51100000000E-03 0. -1.
</event>
<event>
 8    1  0.2846344E+004  0.1043930E+01  0.7957747E-01            NaN
         13   -1    0    0    0    0  0.00000000000E+00  0.00000000000E+00  0.74505805969E-08  0.10566000000E+00  0.10566000000E+00 0. -1.
     999900   -1    0    0    0    0 -0.00000000000E+00 -0.00000000000E+00 -0.74505805969E-08  0.93827000000E+00  0.93827000000E+00 0.  1.
     999902    2    1    2    0    0 -0.13757390442E-01  0.14381263632E-04 -0.80509397110E-02  0.10279899991E+01  0.10278664089E+01 0.  0.
     999903    2    3    3    0    0  0.67774795967E-01  0.28746837825E-01 -0.10807098713E+00  0.13811525433E+00  0.44459887159E-01 0.  0.
         14    1    1    2    0    0  0.13757390442E-01 -0.14381263632E-04  0.80509397110E-02  0.15940000904E-01  0.00000000000E+00 0. -1.
     999901    1    3    3    0    0 -0.81532186408E-01 -0.28732456562E-01  0.10002004742E+00  0.88987474476E+00  0.88000000000E+00 0. -1.
        -11    1    4    4    0    0  0.53124058887E-01  0.33690126701E-01 -0.57487772964E-01  0.85219102501E-01  0.51100000000E-03 0.  1.
         11    1    4    4    0    0  0.14650737080E-01 -0.49432888759E-02 -0.50583214169E-01  0.52896151832E-01  0.51100000000E-03 0. -1.
</event>
<event>
 8    1  0.2846344E+004  0.1043930E+01  0.7957747E-01            NaN
         13   -1    0    0    0    0  0.00000000000E+00  0.00000000000E+00  0.74505805969E-08  0.10566000000E+00  0.10566000000E+00 0. -1.
     999900   -1    0    0    0    0 -0.00000000000E+00 -0.00000000000E+00 -0.74505805969E-08  0.93827000000E+00  0.93827000000E+00 0.  1.
     999902    2    1    2    0    0  0.85297044293E-02 -0.55989513439E-02  0.10050914935E-01  0.10296078142E+01  0.10295081963E+01 0.  0.
     999903    2    3    3    0    0 -0.59059398483E-01 -0.11456083485E+00 -0.28613068770E-01  0.13947530584E+00  0.44971722268E-01 0.  0.
         14    1    1    2    0    0 -0.85297044293E-02  0.55989513439E-02 -0.10050914935E-01  0.14322185756E-01  0.00000000000E+00 0.  1.
     999901    1    3    3    0    0  0.67589102912E-01  0.10896188350E+00  0.38663983705E-01  0.89013250841E+00  0.88000000000E+00 0.  1.
        -11    1    4    4    0    0 -0.41477127768E-01 -0.10711526578E+00 -0.33701842514E-01  0.11970842744E+00  0.51100000000E-03 0. -1.
         11    1    4    4    0    0 -0.17582270715E-01 -0.74455690681E-02  0.50887737445E-02  0.19766878395E-01  0.51100000000E-03 0.  1.
</event>
<event>
 8    1  0.2846344E+004  0.1043930E+01  0.7957747E-01            NaN
         13   -1    0    0    0    0  0.00000000000E+00  0.00000000000E+00  0.74505805969E-08  0.10566000000E+00  0.10566000000E+00 0.  1.
     999900   -1    0    0    0    0 -0.00000000000E+00 -0.00000000000E+00 -0.74505805969E-08  0.93827000000E+00  0.93827000000E+00 0.  1.
     999902    2    1    2    0    0  0.82493662304E-02  0.10565418004E-01 -0.50162586548E-02  0.10296176644E+01  0.10295181843E+01 0.  0.
     999903    2    3    3    0    0 -0.57381984451E-01 -0.10647836378E+00 -0.50356441136E-01  0.13829143160E+00  0.44253980587E-01 0.  0.
         14    1    1    2    0    0 -0.82493662304E-02 -0.10565418004E-01  0.50162586548E-02  0.14312335647E-01  0.00000000000E+00 0.  1.
     999901    1    3    3    0    0  0.65631350681E-01  0.11704378178E+00  0.45340182482E-01  0.89132623275E+00  0.88000000000E+00 0. -1.
        -11    1    4    4    0    0 -0.26643161510E-01 -0.82820463215E-01 -0.48148338673E-01  0.99436466250E-01  0.51100000000E-03 0.  1.
         11    1    4    4    0    0 -0.30738822941E-01 -0.23657900563E-01 -0.22081024637E-02  0.38854965350E-01  0.51100000000E-03 0. -1.
</event>
<event>
 8    1  0.2846344E+004  0.1043930E+01  0.7957747E-01            NaN
         13   -1    0    0    0    0  0.00000000000E+00  0.00000000000E+00  0.74505805969E-08  0.10566000000E+00  0.10566000000E+00 0.  1.
     999900   -1    0    0    0    0 -0.00000000000E+00 -0.00000000000E+00 -0.74505805969E-08  0.93827000000E+00  0.93827000000E+00 0. -1.
     999902    2    1    2    0    0  0.94812479112E-02 -0.95030608433E-02  0.38948110101E-02  0.10299524544E+01  0.10298576050E+01 0.  0.
     999903    2    3    3    0    0 -0.11675820813E+00 -0.41064171865E-01  0.45414664879E-01  0.13941531188E+00  0.45336431555E-01 0.  0.
         14    1    1    2    0    0 -0.94812479112E-02  0.95030608433E-02 -0.38948110101E-02  0.13977545570E-01  0.00000000000E+00 0. -1.
     999901    1    3    3    0    0  0.12623945604E+00  0.31561111022E-01 -0.41519853869E-01  0.89053714255E+00  0.88000000000E+00 0. -1.
        -11    1    4    4    0    0 -0.74036707040E-01 -0.59789597650E-02  0.38606788912E-01  0.83713363451E-01  0.51100000000E-03 0.  1.
         11    1    4    4    0    0 -0.42721501085E-01 -0.35085212100E-01  0.68078759665E-02  0.55701948433E-01  0.51100000000E-03 0. -1.
</event>
<event>
 8    1  0.2846344E+004  0.1043930E+01  0.7957747E-01            NaN
         13   -1    0    0    0    0  0.00000000000E+00  0.00000000000E+00  0.74505805969E-08  0.10566000000E+00  0.10566000000E+00 0.  1.
     999900   -1    0    0    0    0 -0.00000000000E+00 -0.00000000000E+00 -0.74505805969E-08  0.93827000000E+00  0.93827000000E+00 0. -1.
     999902    2    1    2    0    0 -0.90477812352E-03  0.57024661038E-02  0.12602286043E-01  0.10300680248E+01  0.10299747479E+01 0.  0.
     999903    2    3    3    0    0 -0.93978800126E-01  0.83370307736E-01  0.45987769997E-01  0.14113064920E+00  0.44948437878E-01 0.  0.
         14    1    1    2    0    0  0.90477812352E-03 -0.57024661038E-02 -0.12602286043E-01  0.13861975207E-01  0.00000000000E+00 0. -1.
     999901    1    3    3    0    0  0.93074022003E-01 -0.77667841633E-01 -0.33385483954E-01  0.88893737560E+00  0.88000000000E+00 0.  1.
        -11    1    4    4    0    0 -0.45315248747E-01  0.47573035326E-01  0.83656628179E-03  0.65708648010E-01  0.51100000000E-03 0. -1.
         11    1    4    4    0    0 -0.48663551379E-01  0.35797272411E-01  0.45151203716E-01  0.75422001185E-01  0.51100000000E-03 0.  1.
</event>
<event>
 8    1  0.2846344E+004  0.1043930E+01  0.7957747E-01            NaN
         13   -1    0    0    0    0  0.00000000000E+00  0.00000000000E+00  0.74505805969E-08  0.10566000000E+00  0.10566000000E+00 0.  1.
     999900   -1    0    0    0    0 -0.00000000000E+00 -0.00000000000E+00 -0.74505805969E-08  0.93827000000E+00  0.93827000000E+00 0. -1.
     999902    2    1    2    0    0  0.84904225543E-02  0.88466023768E-02  0.45697514971E-02  0.10308444248E+01  0.10307613671E+01 0.  0.
     999903    2    3    3    0    0  0.95918154034E-01 -0.53334243647E-01 -0.75849345649E-01  0.14068865361E+00  0.44669231041E-01 0.  0.
         14    1    1    2    0    0 -0.84904225543E-02 -0.88466023768E-02 -0.45697514971E-02  0.13085575169E-01  0.00000000000E+00 0. -1.
     999901    1    3    3    0    0 -0.87427731480E-01  0.62180846023E-01  0.80419097146E-01  0.89015577122E+00  0.88000000000E+00 0. -1.
        -11    1    4    4    0    0  0.34200172056E-01  0.61252622042E-03 -0.35580408841E-01  0.49358419457E-01  0.51100000000E-03 0. -1.
         11    1    4    4    0    0  0.61717981979E-01 -0.53946769867E-01 -0.40268936808E-01  0.91330234157E-01  0.51100000000E-03 0.  1.
</event>
<event>
 8    1  0.2846344E+004  0.1043930E+01  0.7957747E-01            NaN
         13   -1    0    0    0    0  0.00000000000E+00  0.00000000000E+00  0.74505805969E-08  0.10566000000E+00  0.10566000000E+00 0.  1.
     999900   -1    0    0    0    0 -0.00000000000E+00 -0.00000000000E+00 -0.74505805969E-08  0.93827000000E+00  0.93827000000E+00 0.  1.
     999902    2    1    2    0    0 -0.12470340213E-01 -0.51258163177E-02  0.11178319399E-02  0.10304010338E+01  0.10303122136E+01 0.  0.
     999903    2    3    3    0    0 -0.90573596907E-01 -0.12493114267E-01  0.98286785130E-01  0.14158372904E+00  0.45011174592E-01 0.  0.
         14    1    1    2    0    0  0.12470340213E-01  0.51258163177E-02 -0.11178319399E-02  0.13528966191E-01  0.00000000000E+00 0. -1.
     999901    1    3    3    0    0  0.78103256693E-01  0.73672979497E-02 -0.97168953190E-01  0.88881730476E+00  0.88000000000E+00 0. -1.
        -11    1    4    4    0    0 -0.69294963796E-01 -0.20174388959E-01  0.48670515278E-01  0.87051008930E-01  0.51100000000E-03 0.  1.
         11    1    4    4    0    0 -0.21278633111E-01  0.76812746921E-02  0.49616269852E-01  0.54532720114E-01  0.51100000000E-03 0. -1.
</event>
<event>
 8    1  0.2846344E+004  0.1043930E+01  0.7957747E-01            NaN
         13   -1    0    0    0    0  0.00000000000E+00  0.00000000000E+00  0.74505805969E-08  0.10566000000E+00  0.10566000000E+00 0.  1.
     999900   -1    0    0    0    0 -0.00000000000E+00 -0.00000000000E+00 -0.74505805969E-08  0.93827000000E+00  0.93827000000E+00 0. -1.
     999902    2    1    2    0    0 -0.71960819616E-02  0.10925450144E-01 -0.28036065964E-02  0.10305505655E+01  0.10304637106E+01 0.  0.
     999903    2    3    3    0    0 -0.53787948517E-01 -0.51963603772E-01  0.10808288881E+00  0.14014523650E+00  0.48635552177E-01 0.  0.
         14    1    1    2    0    0  0.71960819616E-02 -0.10925450144E-01  0.28036065964E-02  0.13379434457E-01  0.00000000000E+00 0.  1.
     999901    1    3    3    0    0  0.46591866555E-01  0.62889053916E-01 -0.11088649541E+00  0.89040532905E+00  0.88000000000E+00 0. -1.
        -11    1    4    4    0    0 -0.16809266250E-01 -0.10659419585E-01  0.14531897290E-02  0.19963655455E-01  0.51100000000E-03 0.  1.
         11    1    4    4    0    0 -0.36978682267E-01 -0.41304184188E-01  0.10662969908E+00  0.12018158104E+00  0.51100000000E-03 0. -1.
</event>
<event>
 8    1  0.2846344E+004  0.1043930E+01  0.7957747E-01            NaN
         13   -1    0    0    0    0  0.00000000000E+00  0.00000000000E+00  0.74505805969E-08  0.10566000000E+00  0.10566000000E+00 0. -1.
     999900   -1    0    0    0    0 -0.00000000000E+00 -0.00000000000E+00 -0.74505805969E-08  0.93827000000E+00  0.93827000000E+00 0.  1.
     999902    2    1    2    0    0  0.98353662117E-02  0.56140153497E-04 -0.10238208665E-01  0.10297328701E+01  0.10296349962E+01 0.  0.
     999903    2    3    3    0    0 -0.10500821846E-01  0.10698444857E+00  0.75450433878E-01  0.13889631544E+00  0.45204855660E-01 0.  0.
         14    1    1    2    0    0 -0.98353662117E-02 -0.56140153497E-04  0.10238208665E-01  0.14197129882E-01  0.00000000000E+00 0. -1.
     999901    1    3    3    0    0  0.20336188058E-01 -0.10692830842E+00 -0.85688642543E-01  0.89083655468E+00  0.88000000000E+00 0.  1.
        -11    1    4    4    0    0 -0.14691261470E-01  0.95021496031E-02  0.20340466888E-01  0.26835046579E-01  0.51100000000E-03 0.  1.
         11    1    4    4    0    0  0.41904396239E-02  0.97482298969E-01  0.55109966990E-01  0.11206126886E+00  0.51100000000E-03 0. -1.
</event>
<event>
 8    1  0.2846344E+004  0.1043930E+01  0.7957747E-01            NaN
         13   -1    0    0    0    0  0.00000000000E+00  0.00000000000E+00  0.74505805969E-08  0.10566000000E+00  0.10566000000E+00 0.  1.
     999900   -1    0    0    0    0 -0.00000000000E+00 -0.00000000000E+00 -0.74505805969E-08  0.93827000000E+00  0.93827000000E+00 0.  1.
     999902    2    1    2    0    0  0.12601694408E-01  0.55165461246E-02 -0.63111794843E-03  0.10301592595E+01  0.10300672147E+01 0.  0.
     999903    2    3    3    0    0 -0.76461145172E-01 -0.79314607314E-01 -0.72383781015E-01  0.13871270553E+00  0.43182047975E-01 0.  0.
         14    1    1    2    0    0 -0.12601694408E-01 -0.55165461246E-02  0.63111794843E-03  0.13770740466E-01  0.00000000000E+00 0. -1.
     999901    1    3    3    0    0  0.89062839580E-01  0.84831153438E-01  0.71752663066E-01  0.89144655400E+00  0.88000000000E+00 0. -1.
        -11    1    4    4    0    0 -0.23855360839E-01 -0.55423528903E-01 -0.41090005598E-01  0.73003393606E-01  0.51100000000E-03 0.  1.
         11    1    4    4    0    0 -0.52605784333E-01 -0.23891078411E-01 -0.31293775416E-01  0.65709311925E-01  0.51100000000E-03 0. -1.
</event>
<event>
 8    1  0.2846344E+004  0.1043930E+01  0.7957747E-01            NaN
         13   -1    0    0    0    0  0.00000000000E+00  0.00000000000E+00  0.74505805969E-08  0.10566000000E+00  0.10566000000E+00 0. -1.
     999900   -1    0    0    0    0 -0.00000000000E+00 -0.00000000000E+00 -0.74505805969E-08  0.93827000000E+00  0.93827000000E+00 0. -1.
     999902    2    1    2    0    0 -0.30916335776E-02  0.10644495035E-01 -0.70829731003E-02  0.10307758379E+01  0.10306919016E+01 0.  0.
     999903    2    3    3    0    0  0.59395600306E-02 -0.12420526296E+00 -0.45338467052E-01  0.13963639734E+00  0.44503046499E-01 0.  0.
         14    1    1    2    0    0  0.30916335776E-02 -0.10644495035E-01  0.70829731003E-02  0.13154162105E-01  0.00000000000E+00 0. -1.
     999901    1    3    3    0    0 -0.90311936082E-02  0.13484975800E+00  0.38255493952E-01  0.89113944055E+00  0.88000000000E+00 0.  1.
        -11    1    4    4    0    0  0.10988990886E-01 -0.10675828329E+00 -0.21156932882E-01  0.10938905750E+00  0.51100000000E-03 0.  1.
         11    1    4    4    0    0 -0.50494308551E-02 -0.17446979676E-01 -0.24181534170E-01  0.30247339843E-01  0.51100000000E-03 0. -1.
</event>
<event>
 8    1  0.2846344E+004  0.1043930E+01  0.7957747E-01            NaN
         13   -1    0    0    0    0  0.00000000000E+00  0.00000000000E+00  0.74505805969E-08  0.10566000000E+00  0.10566000000E+00 0. -1.
     999900   -1    0    0    0    0 -0.00000000000E+00 -0.00000000000E+00 -0.74505805969E-08  0.93827000000E+00  0.93827000000E+00 0. -1.
     999902    2    1    2    0    0 -0.11366669767E-01  0.84734194105E-02  0.17311642981E-02  0.10296472500E+01  0.10295481837E+01 0.  0.
     999903    2    3    3    0    0 -0.12740458628E+00 -0.30749095328E-01  0.24792383369E-01  0.14086436111E+00  0.45284329423E-01 0.  0.
         14    1    1    2    0    0  0.11366669767E-01 -0.84734194105E-02 -0.17311642981E-02  0.14282750013E-01  0.00000000000E+00 0.  1.
     999901    1    3    3    0    0  0.11603791651E+00  0.39222514739E-01 -0.23061219070E-01  0.88878288887E+00  0.88000000000E+00 0. -1.
        -11    1    4    4    0    0 -0.16761528641E-01  0.64771973471E-02  0.15534792202E-01  0.23759078635E-01  0.51100000000E-03 0. -1.
         11    1    4    4    0    0 -0.11064305763E+00 -0.37226292676E-01  0.92575911669E-02  0.11710528248E+00  0.51100000000E-03 0.  1.
</event>
<event>
 8    1  0.2846344E+004  0.1043930E+01  0.7957747E-01            NaN
         13   -1    0    0    0    0  0.00000000000E+00  0.00000000000E+00  0.74505805969E-08  0.10566000000E+00  0.10566000000E+00 0. -1.
     999900   -1    0    0    0    0 -0.00000000000E+00 -0.00000000000E+00 -0.74505805969E-08  0.93827000000E+00  0.93827000000E+00 0.  1.
     999902    2    1    2    0    0  0.64056608704E-02 -0.62062372144E-02  0.10544559607E-01  0.10301192213E+01  0.10300266368E+01 0.  0.
     999903    2    3    3    0    0 -0.68417514422E-01 -0.10468774468E+00 -0.42489607796E-01  0.13988906127E+00  0.46077136711E-01 0.  0.
         14    1    1    2    0    0 -0.64056608704E-02  0.62062372144E-02 -0.10544559607E-01  0.13810778720E-01  0.00000000000E+00 0.  1.
     999901    1    3    3    0    0  0.74823175293E-01  0.98481507465E-01  0.53034167403E-01  0.89023016001E+00  0.88000000000E+00 0.  1.
        -11    1    4    4    0    0 -0.22282780199E-01 -0.73434942731E-01 -0.16966749276E-01  0.78596086476E-01  0.51100000000E-03 0.  1.
         11    1    4    4    0    0 -0.46134734223E-01 -0.31252801949E-01 -0.25522858520E-01  0.61292974798E-01  0.51100000000E-03 0. -1.
</event>
<event>
 8    1  0.2846344E+004  0.1043930E+01  0.7957747E-01            NaN
         13   -1    0    0    0    0  0.00000000000E+00  0.00000000000E+00  0.74505805969E-08  0.10566000000E+00  0.10566000000E+00 0. -1.
     999900   -1    0    0    0    0 -0.00000000000E+00 -0.00000000000E+00 -0.74505805969E-08  0.93827000000E+00  0.93827000000E+00 0. -1.
     999902    2    1    2    0    0  0.31858554015E-02  0.11010044430E-01  0.68850692292E-02  0.10305593257E+01  0.10304725852E+01 0.  0.
     999903    2    3    3    0    0 -0.90556505931E-01  0.14800952620E-02 -0.96065429699E-01  0.13956142701E+00  0.45234430217E-01 0.  0.
         14    1    1    2    0    0 -0.31858554015E-02 -0.11010044430E-01 -0.68850692292E-02  0.13370674301E-01  0.00000000000E+00 0.  1.
     999901    1    3    3    0    0  0.93742361333E-01  0.95299491676E-02  0.10295049893E+00  0.89099789869E+00  0.88000000000E+00 0.  1.
        -11    1    4    4    0    0 -0.82789461520E-01  0.33417681867E-02 -0.59191800557E-01  0.10182923317E+00  0.51100000000E-03 0. -1.
         11    1    4    4    0    0 -0.77670444114E-02 -0.18616729248E-02 -0.36873629142E-01  0.37732193841E-01  0.51100000000E-03 0.  1.
</event>
<event>
 8    1  0.2846344E+004  0.1043930E+01  0.7957747E-01            NaN
         13   -1    0    0    0    0  0.00000000000E+00  0.00000000000E+00  0.74505805969E-08  0.10566000000E+00  0.10566000000E+00 0.  1.
     999900   -1    0    0    0    0 -0.00000000000E+00 -0.00000000000E+00 -0.74505805969E-08  0.93827000000E+00  0.93827000000E+00 0.  1.
     999902    2    1    2    0    0  0.42870579807E-02 -0.13386676597E-01 -0.13532836472E-02  0.10298086207E+01  0.10297117956E+01 0.  0.
     999903    2    3    3    0    0  0.60042212132E-01 -0.61922770410E-01  0.10157153970E+00  0.14073162242E+00  0.45267152988E-01 0.  0.
         14    1    1    2    0    0 -0.42870579807E-02  0.13386676597E-01  0.13532836472E-02  0.14121379291E-01  0.00000000000E+00 0. -1.
     999901    1    3    3    0    0 -0.55755154151E-01  0.48536093812E-01 -0.10292482335E+00  0.88907699828E+00  0.88000000000E+00 0.  1.
        -11    1    4    4    0    0  0.71038030303E-02 -0.26954885651E-01  0.10614351141E-01  0.29832121096E-01  0.51100000000E-03 0.  1.
         11    1    4    4    0    0  0.52938409102E-01 -0.34967884759E-01  0.90957188562E-01  0.11089950133E+00  0.51100000000E-03 0. -1.
</event>
<event>
 8    1  0.2846344E+004  0.1043930E+01  0.7957747E-01            NaN
         13   -1    0    0    0    0  0.00000000000E+00  0.00000000000E+00  0.74505805969E-08  0.10566000000E+00  0.10566000000E+00 0.  1.
     999900   -1    0    0    0    0 -0.00000000000E+00 -0.00000000000E+00 -0.74505805969E-08  0.93827000000E+00  0.93827000000E+00 0.  1.
     999902    2    1    2    0    0  0.46197443496E-02  0.51549001517E-02 -0.18388236320E-01  0.10242820416E+01  0.10240935790E+01 0.  0.
     999903    2    3    3    0    0  0.72655438352E-01  0.27292540753E-01 -0.10388003954E+00  0.13724890853E+00  0.44972266720E-01 0.  0.
         14    1    1    2    0    0 -0.46197443496E-02 -0.51549001517E-02  0.18388236320E-01  0.19647958377E-01  0.00000000000E+00 0.  1.
     999901    1    3    3    0    0 -0.68035694003E-01 -0.22137640602E-01  0.85491803221E-01  0.88703313309E+00  0.88000000000E+00 0. -1.
        -11    1    4    4    0    0  0.23187222969E-01 -0.12920470686E-02 -0.61274190487E-02  0.24023386103E-01  0.51100000000E-03 0. -1.
         11    1    4    4    0    0  0.49468215383E-01  0.28584587822E-01 -0.97752620493E-01  0.11322552242E+00  0.51100000000E-03 0.  1.
</event>
<event>
 8    1  0.2846344E+004  0.1043930E+01  0.7957747E-01            NaN
         13   -1    0    0    0    0  0.00000000000E+00  0.00000000000E+00  0.74505805969E-08  0.10566000000E+00  0.10566000000E+00 0. -1.
     999900   -1    0    0    0    0 -0.00000000000E+00 -0.00000000000E+00 -0.74505805969E-08  0.93827000000E+00  0.93827000000E+00 0. -1.
     999902    2    1    2    0    0 -0.42558169368E-02 -0.10784550163E-01  0.47943830321E-02  0.10313839007E+01  0.10313075904E+01 0.  0.
     999903    2    3    3    0    0  0.11064562369E+00 -0.45372919542E-01  0.60939518922E-01  0.14146762783E+00  0.44702448348E-01 0.  0.
         14    1    1    2    0    0  0.42558169368E-02  0.10784550163E-01 -0.47943830321E-02  0.12546099341E-01  0.00000000000E+00 0. -1.
     999901    1    3    3    0    0 -0.11490144063E+00  0.34588369379E-01 -0.56145135890E-01  0.88991627283E+00  0.88000000000E+00 0. -1.
        -11    1    4    4    0    0  0.54070086608E-01 -0.36387729256E-03  0.36124637458E-01  0.65030433067E-01  0.51100000000E-03 0.  1.
         11    1    4    4    0    0  0.56575537085E-01 -0.45009042250E-01  0.24814881465E-01  0.76437194767E-01  0.51100000000E-03 0. -1.
</event>
<event>
 8    1  0.2846344E+004  0.1043930E+01  0.7957747E-01            NaN
         13   -1    0    0    0    0  0.00000000000E+00  0.00000000000E+00  0.74505805969E-08  0.10566000000E+00  0.10566000000E+00 0.  1.
     999900   -1    0    0    0    0 -0.00000000000E+00 -0.00000000000E+00 -0.74505805969E-08  0.93827000000E+00  0.93827000000E+00 0.  1.
     999902    2    1    2    0    0  0.12272000925E-01  0.52064834383E-02  0.20660970706E-03  0.10305976272E+01  0.10305113862E+01 0.  0.
     999903    2    3    3    0    0 -0.54193561052E-01 -0.92599477236E-01  0.76339096418E-01  0.13942994804E+00  0.45841548021E-01 0.  0.
         14    1    1    2    0    0 -0.12272000925E-01 -0.52064834383E-02 -0.20660970706E-03  0.13332372785E-01  0.00000000000E+00 0.  1.
     999901    1    3    3    0    0  0.66465561977E-01  0.97805960674E-01 -0.76132486711E-01  0.89116767917E+00  0.88000000000E+00 0.  1.
        -11    1    4    4    0    0 -0.93776917772E-02 -0.61117028600E-01  0.42881018438E-01  0.75248090682E-01  0.51100000000E-03 0.  1.
         11    1    4    4    0    0 -0.44815869275E-01 -0.31482448635E-01  0.33458077980E-01  0.64181857358E-01  0.51100000000E-03 0. -1.
</event>
<event>
 8    1  0.2846344E+004  0.1043930E+01  0.7957747E-01            NaN
         13   -1    0    0    0    0  0.00000000000E+00  0.00000000000E+00  0.74505805969E-08  0.10566000000E+00  0.10566000000E+00 0.  1.
     999900   -1    0    0    0    0 -0.00000000000E+00 -0.00000000000E+00 -0.74505805969E-08  0.93827000000E+00  0.93827000000E+00 0. -1.
     999902    2    1    2    0    0  0.53470371119E-02  0.95931847135E-02  0.90847845655E-02  0.10296768141E+01  0.10295781603E+01 0.  0.
     999903    2    3    3    0    0 -0.71569003906E-01  0.11169767586E+00  0.93530374151E-02  0.14044035707E+00  0.45138913054E-01 0.  0.
         14    1    1    2    0    0 -0.53470371119E-02 -0.95931847135E-02 -0.90847845655E-02  0.14253185939E-01  0.00000000000E+00 0.  1.
     999901    1    3    3    0    0  0.76916041018E-01 -0.10210449115E+00 -0.26825284961E-03  0.88923645699E+00  0.88000000000E+00 0.  1.
        -11    1    4    4    0    0 -0.13208596459E-01  0.41465506200E-01 -0.14824696532E-01  0.45977037454E-01  0.51100000000E-03 0. -1.
         11    1    4    4    0    0 -0.58360407447E-01  0.70232169665E-01  0.24177733947E-01  0.94463319617E-01  0.51100000000E-03 0.  1.
</event>
<event>
 8    1  0.2846344E+004  0.1043930E+01  0.7957747E-01            NaN
         13   -1    0    0    0    0  0.00000000000E+00  0.00000000000E+00  0.74505805969E-08  0.10566000000E+00  0.10566000000E+00 0.  1.
     999900   -1    0    0    0    0 -0.00000000000E+00 -0.00000000000E+00 -0.74505805969E-08  0.93827000000E+00  0.93827000000E+00 0. -1.
     999902    2    1    2    0    0 -0.12877345939E-01  0.17249821657E-03  0.48654522070E-02  0.10301630679E+01  0.10300710743E+01 0.  0.
     999903    2    3    3    0    0  0.10674226386E+00  0.42359822019E-01 -0.61617812543E-01  0.13858657325E+00  0.47129799971E-01 0.  0.
         14    1    1    2    0    0  0.12877345939E-01 -0.17249821657E-03 -0.48654522070E-02  0.13766932092E-01  0.00000000000E+00 0. -1.
     999901    1    3    3    0    0 -0.11961960980E+00 -0.42187323803E-01  0.66483264750E-01  0.89157649466E+00  0.88000000000E+00 0.  1.
        -11    1    4    4    0    0  0.39807886930E-01  0.18140647014E-01 -0.50039792494E-01  0.66467983945E-01  0.51100000000E-03 0. -1.
         11    1    4    4    0    0  0.66934376935E-01  0.24219175005E-01 -0.11578020048E-01  0.72118589302E-01  0.51100000000E-03 0.  1.
</event>
<event>
 8    1  0.2846344E+004  0.1043930E+01  0.7957747E-01            NaN
         13   -1    0    0    0    0  0.00000000000E+00  0.00000000000E+00  0.74505805969E-08  0.10566000000E+00  0.10566000000E+00 0.  1.
     999900   -1    0    0    0    0 -0.00000000000E+00 -0.00000000000E+00 -0.74505805969E-08  0.93827000000E+00  0.93827000000E+00 0. -1.
     999902    2    1    2    0    0  0.32762892182E-02 -0.11042209547E-01  0.93196438216E-02  0.10291137851E+01  0.10290071246E+01 0.  0.
     999903    2    3    3    0    0 -0.29024792726E-01  0.95158720056E-01 -0.84828822984E-01  0.13715754675E+00  0.41456517299E-01 0.  0.
         14    1    1    2    0    0 -0.32762892182E-02  0.11042209547E-01 -0.93196438216E-02  0.14816214891E-01  0.00000000000E+00 0. -1.
     999901    1    3    3    0    0  0.32301081944E-01 -0.10620092960E+00  0.94148466805E-01  0.89195623836E+00  0.88000000000E+00 0.  1.
        -11    1    4    4    0    0 -0.35072090674E-01  0.47435033634E-01 -0.54300818192E-01  0.80180882618E-01  0.51100000000E-03 0.  1.
         11    1    4    4    0    0  0.60472979480E-02  0.47723686423E-01 -0.30528004791E-01  0.56976664133E-01  0.51100000000E-03 0. -1.
</event>
<event>
 8    1  0.2846344E+004  0.1043930E+01  0.7957747E-01            NaN
         13   -1    0    0    0    0  0.00000000000E+00  0.00000000000E+00  0.74505805969E-08  0.10566000000E+00  0.10566000000E+00 0.  1.
     999900   -1    0    0    0    0 -0.00000000000E+00 -0.00000000000E+00 -0.74505805969E-08  0.93827000000E+00  0.93827000000E+00 0.  1.
     999902    2    1    2    0    0  0.42152990052E-02 -0.12068636963E-01 -0.17114191225E-02  0.10310323374E+01  0.10309516629E+01 0.  0.
     999903    2    3    3    0    0 -0.12528409170E+00 -0.45676162097E-01  0.36167688886E-02  0.14090428625E+00  0.45370931786E-01 0.  0.
         14    1    1    2    0    0 -0.42152990052E-02  0.12068636963E-01  0.17114191225E-02  0.12897662551E-01  0.00000000000E+00 0.  1.
     999901    1    3    3    0    0  0.12949939070E+00  0.33607525133E-01 -0.53281880111E-02  0.89012805120E+00  0.88000000000E+00 0. -1.
        -11    1    4    4    0    0 -0.43681482819E-01  0.55534337142E-02  0.64767438239E-02  0.44509795538E-01  0.51100000000E-03 0.  1.
         11    1    4    4    0    0 -0.81602608878E-01 -0.51229595811E-01 -0.28599749353E-02  0.96394490716E-01  0.51100000000E-03 0. -1.
</event>
<event>
 8    1  0.2846344E+004  0.1043930E+01  0.7957747E-01            NaN
         13   -1    0    0    0    0  0.00000000000E+00  0.00000000000E+00  0.74505805969E-08  0.10566000000E+00  0.10566000000E+00 0.  1.
     999900   -1    0    0    0    0 -0.00000000000E+00 -0.00000000000E+00 -0.74505805969E-08  0.93827000000E+00  0.93827000000E+00 0.  1.
     999902    2    1    2    0    0  0.20347703546E-02 -0.96093877154E-03  0.12072414560E-01  0.10316496544E+01  0.10315765617E+01 0.  0.
     999903    2    3    3    0    0  0.11673177015E+00 -0.65601508122E-01 -0.21302720631E-01  0.14122969475E+00  0.39524128611E-01 0.  0.
         14    1    1    2    0    0 -0.20347703546E-02  0.96093877154E-03 -0.12072414560E-01  0.12280345559E-01  0.00000000000E+00 0. -1.
     999901    1    3    3    0    0 -0.11469699980E+00  0.64640569351E-01  0.33375135192E-01  0.89041995969E+00  0.88000000000E+00 0. -1.
        -11    1    4    4    0    0  0.11846691358E-01 -0.22267200040E-01 -0.10165826570E-01  0.27198850060E-01  0.51100000000E-03 0.  1.
         11    1    4    4    0    0  0.10488507879E+00 -0.43334308082E-01 -0.11136894062E-01  0.11403084469E+00  0.51100000000E-03 0. -1.
</event>
<event>
 8    1  0.2846344E+004  0.1043930E+01  0.7957747E-01            NaN
         13   -1    0    0    0    0  0.00000000000E+00  0.00000000000E+00  0.74505805969E-08  0.10566000000E+00  0.10566000000E+00 0. -1.
     999900   -1    0    0    0    0 -0.00000000000E+00 -0.00000000000E+00 -0.74505805969E-08  0.93827000000E+00  0.93827000000E+00 0.  1.
     999902    2    1    2    0    0  0.10199215604E-01 -0.72545322886E-02  0.46654212352E-02  0.10305726652E+01  0.10304860988E+01 0.  0.
     999903    2    3    3    0    0 -0.16656387338E-02 -0.92494146465E-01 -0.95927734015E-01  0.14067067651E+00  0.45035181729E-01 0.  0.
         14    1    1    2    0    0 -0.10199215604E-01  0.72545322886E-02 -0.46654212352E-02  0.13357334800E-01  0.00000000000E+00 0. -1.
     999901    1    3    3    0    0  0.11864854338E-01  0.85239614177E-01  0.10059315525E+00  0.88990198869E+00  0.88000000000E+00 0. -1.
        -11    1    4    4    0    0  0.25935317157E-02 -0.12935851854E-01 -0.43093028013E-01  0.45070310120E-01  0.51100000000E-03 0.  1.
         11    1    4    4    0    0 -0.42591704495E-02 -0.79558294611E-01 -0.52834706002E-01  0.95600366389E-01  0.51100000000E-03 0. -1.
</event>
<event>
 8    1  0.2846344E+004  0.1043930E+01  0.7957747E-01            NaN
         13   -1    0    0    0    0  0.00000000000E+00  0.00000000000E+00  0.74505805969E-08  0.10566000000E+00  0.10566000000E+00 0. -1.
     999900   -1    0    0    0    0 -0.00000000000E+00 -0.00000000000E+00 -0.74505805969E-08  0.93827000000E+00  0.93827000000E+00 0.  1.
     999902    2    1    2    0    0 -0.47535490271E-02  0.43664251028E-02  0.12342582080E-01  0.10300015676E+01  0.10299073881E+01 0.  0.
     999903    2    3    3    0    0  0.39889945552E-01 -0.96062870704E-01 -0.80992286637E-01  0.13826703156E+00  0.41698185056E-01 0.  0.
         14    1    1    2    0    0  0.47535490271E-02 -0.43664251028E-02 -0.12342582080E-01  0.13928432393E-01  0.00000000000E+00 0.  1.
     999901    1    3    3    0    0 -0.44643494579E-01  0.10042929581E+00  0.93334868717E-01  0.89173453605E+00  0.88000000000E+00 0.  1.
        -11    1    4    4    0    0  0.37119792262E-01 -0.37610622519E-01 -0.30772424656E-01  0.61152605374E-01  0.51100000000E-03 0.  1.
         11    1    4    4    0    0  0.27701532898E-02 -0.58452248185E-01 -0.50219861981E-01  0.77114426183E-01  0.51100000000E-03 0. -1.
</event>
<event>
 8    1  0.2846344E+004  0.1043930E+01  0.7957747E-01            NaN
         13   -1    0    0    0    0  0.00000000000E+00  0.00000000000E+00  0.74505805969E-08  0.10566000000E+00  0.10566000000E+00 0.  1.
     999900   -1    0    0    0    0 -0.00000000000E+00 -0.00000000000E+00 -0.74505805969E-08  0.93827000000E+00  0.93827000000E+00 0. -1.
     999902    2    1    2    0    0  0.31289432900E-02 -0.73445778418E-02 -0.13444651877E-01  0.10282937673E+01  0.10281748781E+01 0.  0.
     999903    2    3    3    0    0 -0.10959698672E+00 -0.75572810257E-02  0.68578989232E-01  0.13731954866E+00  0.45661457323E-01 0.  0.
         14    1    1    2    0    0 -0.31289432900E-02  0.73445778418E-02  0.13444651877E-01  0.15636232726E-01  0.00000000000E+00 0.  1.
     999901    1    3    3    0    0  0.11272593001E+00  0.21270318393E-03 -0.82023641108E-01  0.89097421862E+00  0.88000000000E+00 0. -1.
        -11    1    4    4    0    0 -0.53409056169E-01  0.19109400007E-01  0.34596902898E-01  0.66444738397E-01  0.51100000000E-03 0.  1.
         11    1    4    4    0    0 -0.56187930550E-01 -0.26666681033E-01  0.33982086334E-01  0.70874810260E-01  0.51100000000E-03 0. -1.
</event>
<event>
 8    1  0.2846344E+004  0.1043930E+01  0.7957747E-01            NaN
         13   -1    0    0    0    0  0.00000000000E+00  0.00000000000E+00  0.74505805969E-08  0.10566000000E+00  0.10566000000E+00 0.  1.
     999900   -1    0    0    0    0 -0.00000000000E+00 -0.00000000000E+00 -0.74505805969E-08  0.93827000000E+00  0.93827000000E+00 0. -1.
     999902    2    1    2    0    0  0.47943817767E-02 -0.13570294716E-01 -0.28896743335E-02  0.10292504492E+01  0.10291457612E+01 0.  0.
     999903    2    3    3    0    0  0.62225135032E-02 -0.13442150443E+00 -0.95246232670E-02  0.14096497871E+00  0.40896775505E-01 0.  0.
         14    1    1    2    0    0 -0.47943817767E-02  0.13570294716E-01  0.28896743335E-02  0.14679550846E-01  0.00000000000E+00 0. -1.
     999901    1    3    3    0    0 -0.14281317265E-02  0.12085120972E+00  0.66349489335E-02  0.88828547044E+00  0.88000000000E+00 0.  1.
        -11    1    4    4    0    0 -0.51656470118E-02 -0.60623618359E-02  0.75353398640E-02  0.10976274775E-01  0.51100000000E-03 0. -1.
         11    1    4    4    0    0  0.11388160515E-01 -0.12835914260E+00 -0.17059963131E-01  0.12998870394E+00  0.51100000000E-03 0.  1.
</event>
<event>
 8    1  0.2846344E+004  0.1043930E+01  0.7957747E-01            NaN
         13   -1    0    0    0    0  0.00000000000E+00  0.00000000000E+00  0.74505805969E-08  0.10566000000E+00  0.10566000000E+00 0.  1.
     999900   -1    0    0    0    0 -0.00000000000E+00 -0.00000000000E+00 -0.74505805969E-08  0.93827000000E+00  0.93827000000E+00 0.  1.
     999902    2    1    2    0    0 -0.65806203432E-02 -0.22702618206E-02 -0.11382724787E-01  0.10305873962E+01  0.10305010219E+01 0.  0.
     999903    2    3    3    0    0 -0.15801152663E-01 -0.11810413333E+00 -0.62057684263E-01  0.14150334194E+00  0.44427208669E-01 0.  0.
         14    1    1    2    0    0  0.65806203432E-02  0.22702618206E-02  0.11382724787E-01  0.13342603809E-01  0.00000000000E+00 0.  1.
     999901    1    3    3    0    0  0.92205323199E-02  0.11583387151E+00  0.50674959477E-01  0.88908405425E+00  0.88000000000E+00 0. -1.
        -11    1    4    4    0    0  0.33085464125E-02 -0.45264769151E-01 -0.45763269164E-01  0.64454509006E-01  0.51100000000E-03 0. -1.
         11    1    4    4    0    0 -0.19109699076E-01 -0.72839364175E-01 -0.16294415100E-01  0.77048832935E-01  0.51100000000E-03 0.  1.
</event>
<event>
 8    1  0.2846344E+004  0.1043930E+01  0.7957747E-01            NaN
         13   -1    0    0    0    0  0.00000000000E+00  0.00000000000E+00  0.74505805969E-08  0.10566000000E+00  0.10566000000E+00 0. -1.
     999900   -1    0    0    0    0 -0.00000000000E+00 -0.00000000000E+00 -0.74505805969E-08  0.93827000000E+00  0.93827000000E+00 0. -1.
     999902    2    1    2    0    0 -0.53763204601E-02 -0.11932646162E-01 -0.17970887663E-02  0.10307193076E+01  0.10306346436E+01 0.  0.
     999903    2    3    3    0    0  0.11940315652E+00 -0.42897364945E-01  0.40074256149E-01  0.14039243435E+00  0.44797231056E-01 0.  0.
         14    1    1    2    0    0  0.53763204601E-02  0.11932646162E-01  0.17970887663E-02  0.13210692417E-01  0.00000000000E+00 0. -1.
     999901    1    3    3    0    0 -0.12477947698E+00  0.30964718784E-01 -0.41871344915E-01  0.89032687324E+00  0.88000000000E+00 0.  1.
        -11    1    4    4    0    0  0.67770067593E-01 -0.11376668461E-02  0.25381100039E-01  0.72377743179E-01  0.51100000000E-03 0. -1.
         11    1    4    4    0    0  0.51633088923E-01 -0.41759698099E-01  0.14693156110E-01  0.68014691167E-01  0.51100000000E-03 0.  1.
</event>
<event>
 7    1  0.2846344E+004  0.1043930E+01  0.7957747E-01            NaN
         13   -1    0    0    0    0  0.00000000000E+00  0.00000000000E+00  0.74505805969E-08  0.10566000000E+00  0.10566000000E+00 0. -1.
     999900   -1    0    0    0    0 -0.00000000000E+00 -0.00000000000E+00 -0.74505805969E-08  0.93827000000E+00  0.93827000000E+00 0.  1.
     999903    2    1    2    0    0  0.85527659883E-02  0.63255789474E-01 -0.19609822664E-01  0.81142171598E-01  0.46098396487E-01 0.  0.
         14    1    1    2    0    0 -0.51301380128E-01  0.52538661022E-02 -0.55675489148E-01  0.75889358963E-01  0.00000000000E+00 0.  1.
     999901    1    1    2    0    0  0.42748614140E-01 -0.68509655576E-01  0.75285311811E-01  0.88689846944E+00  0.88000000000E+00 0. -1.
        -11    1    3    3    0    0 -0.79974067049E-02  0.61038320210E-01 -0.11723814989E-01  0.62668524850E-01  0.51100000000E-03 0.  1.
         11    1    3    3    0    0  0.16550172693E-01  0.22174692642E-02 -0.78860076742E-02  0.18473646747E-01  0.51100000000E-03 0. -1.
</event>
<event>
 8    1  0.2846344E+004  0.1043930E+01  0.7957747E-01            NaN
         13   -1    0    0    0    0  0.00000000000E+00  0.00000000000E+00  0.74505805969E-08  0.10566000000E+00  0.10566000000E+00 0. -1.
     999900   -1    0    0    0    0 -0.00000000000E+00 -0.00000000000E+00 -0.74505805969E-08  0.93827000000E+00  0.93827000000E+00 0. -1.
     999902    2    1    2    0    0 -0.33086808072E-02  0.14157394147E-01 -0.15220961318E-02  0.10293116569E+01  0.10292078464E+01 0.  0.
     999903    2    3    3    0    0  0.15951885064E-01 -0.55000749806E-01 -0.11807173844E+00  0.13872890535E+00  0.45002540447E-01 0.  0.
         14    1    1    2    0    0  0.33086808072E-02 -0.14157394147E-01  0.15220961318E-02  0.14618343078E-01  0.00000000000E+00 0.  1.
     999901    1    3    3    0    0 -0.19260565871E-01  0.69158143952E-01  0.11654964230E+00  0.89058275157E+00  0.88000000000E+00 0.  1.
        -11    1    4    4    0    0  0.13797706113E-01 -0.50571404198E-01 -0.56939560595E-01  0.77396500556E-01  0.51100000000E-03 0. -1.
         11    1    4    4    0    0  0.21541789509E-02 -0.44293456071E-02 -0.61132177842E-01  0.61332404797E-01  0.51100000000E-03 0.  1.
</event>
<event>
 8    1  0.2846344E+004  0.1043930E+01  0.7957747E-01            NaN
         13   -1    0    0    0    0  0.00000000000E+00  0.00000000000E+00  0.74505805969E-08  0.10566000000E+00  0.10566000000E+00 0. -1.
     999900   -1    0    0    0    0 -0.00000000000E+00 -0.00000000000E+00 -0.74505805969E-08  0.93827000000E+00  0.93827000000E+00 0. -1.
     999902    2    1    2    0    0  0.70500012584E-02 -0.75558268466E-02  0.94162312085E-02  0.10299493545E+01  0.10298544628E+01 0.  0.
     999903    2    3    3    0    0  0.11108662062E+00  0.30427984434E-01 -0.57344286057E-01  0.14049820088E+00  0.56438265299E-01 0.  0.
         14    1    1    2    0    0 -0.70500012584E-02  0.75558268466E-02 -0.94162312085E-02  0.13980645452E-01  0.00000000000E+00 0.  1.
     999901    1    3    3    0    0 -0.10403661937E+00 -0.37983811281E-01  0.66760517266E-01  0.88945115366E+00  0.88000000000E+00 0. -1.
        -11    1    4    4    0    0  0.10275153042E+00  0.30668340454E-01 -0.29194737167E-01  0.11113513355E+00  0.51100000000E-03 0. -1.
         11    1    4    4    0    0  0.83350902083E-02 -0.24035601989E-03 -0.28149548890E-01  0.29363067339E-01  0.51100000000E-03 0.  1.
</event>
<event>
 8    1  0.2846344E+004  0.1043930E+01  0.7957747E-01            NaN
         13   -1    0    0    0    0  0.00000000000E+00  0.00000000000E+00  0.74505805969E-08  0.10566000000E+00  0.10566000000E+00 0. -1.
     999900   -1    0    0    0    0 -0.00000000000E+00 -0.00000000000E+00 -0.74505805969E-08  0.93827000000E+00  0.93827000000E+00 0. -1.
     999902    2    1    2    0    0 -0.95779062445E-02  0.76621322097E-02 -0.62782203539E-02  0.10301510084E+01  0.10300588525E+01 0.  0.
     999903    2    3    3    0    0  0.92042125051E-01  0.55056474809E-01  0.76839092463E-01  0.13915081641E+00  0.44223696996E-01 0.  0.
         14    1    1    2    0    0  0.95779062445E-02 -0.76621322097E-02  0.62782203539E-02  0.13778991576E-01  0.00000000000E+00 0. -1.
     999901    1    3    3    0    0 -0.10162003130E+00 -0.47394342600E-01 -0.83117312817E-01  0.89100019201E+00  0.88000000000E+00 0. -1.
        -11    1    4    4    0    0  0.52051816968E-01  0.25218669794E-01  0.15121164806E-01  0.59785313430E-01  0.51100000000E-03 0. -1.
         11    1    4    4    0    0  0.39990308084E-01  0.29837805015E-01  0.61717927657E-01  0.79365502985E-01  0.51100000000E-03 0.  1.
</event>
<event>
 8    1  0.2846344E+004  0.1043930E+01  0.7957747E-01            NaN
         13   -1    0    0    0    0  0.00000000000E+00  0.00000000000E+00  0.74505805969E-08  0.10566000000E+00  0.10566000000E+00 0. -1.
     999900   -1    0    0    0    0 -0.00000000000E+00 -0.00000000000E+00 -0.74505805969E-08  0.93827000000E+00  0.93827000000E+00 0. -1.
     999902    2    1    2    0    0 -0.47807923119E-02  0.46788603324E-02  0.12763118605E-01  0.10295201108E+01  0.10294192604E+01 0.  0.
     999903    2    3    3    0    0 -0.11872622049E+00 -0.49510230181E-01  0.33421728054E-01  0.14028066261E+00  0.44882892889E-01 0.  0.
         14    1    1    2    0    0  0.47807923119E-02 -0.46788603324E-02 -0.12763118605E-01  0.14409889162E-01  0.00000000000E+00 0.  1.
     999901    1    3    3    0    0  0.11394542817E+00  0.54189090513E-01 -0.20658609449E-01  0.88923944822E+00  0.88000000000E+00 0. -1.
        -11    1    4    4    0    0 -0.90833697161E-01 -0.15336680030E-01  0.21986414991E-01  0.94708172084E-01  0.51100000000E-03 0. -1.
         11    1    4    4    0    0 -0.27892523325E-01 -0.34173550151E-01  0.11435313062E-01  0.45572490531E-01  0.51100000000E-03 0.  1.
</event>
<event>
 8    1  0.2846344E+004  0.1043930E+01  0.7957747E-01            NaN
         13   -1    0    0    0    0  0.00000000000E+00  0.00000000000E+00  0.74505805969E-08  0.10566000000E+00  0.10566000000E+00 0.  1.
     999900   -1    0    0    0    0 -0.00000000000E+00 -0.00000000000E+00 -0.74505805969E-08  0.93827000000E+00  0.93827000000E+00 0.  1.
     999902    2    1    2    0    0 -0.73552360077E-02 -0.98928519450E-02 -0.65780913630E-02  0.10299571942E+01  0.10298624095E+01 0.  0.
     999903    2    3    3    0    0 -0.99039225500E-01  0.66955744409E-01 -0.58345761918E-01  0.14035528749E+00  0.44760908105E-01 0.  0.
         14    1    1    2    0    0  0.73552360077E-02  0.98928519450E-02  0.65780913630E-02  0.13972805814E-01  0.00000000000E+00 0.  1.
     999901    1    3    3    0    0  0.91683989493E-01 -0.76848596354E-01  0.51767670555E-01  0.88960190670E+00  0.88000000000E+00 0. -1.
        -11    1    4    4    0    0 -0.12879369068E-01  0.13226842001E-01 -0.29486455537E-01  0.34792810724E-01  0.51100000000E-03 0. -1.
         11    1    4    4    0    0 -0.86159856432E-01  0.53728902408E-01 -0.28859306380E-01  0.10556247676E+00  0.51100000000E-03 0.  1.
</event>
<event>
 8    1  0.2846344E+004  0.1043930E+01  0.7957747E-01            NaN
         13   -1    0    0    0    0  0.00000000000E+00  0.00000000000E+00  0.74505805969E-08  0.10566000000E+00  0.10566000000E+00 0.  1.
     999900   -1    0    0    0    0 -0.00000000000E+00 -0.00000000000E+00 -0.74505805969E-08  0.93827000000E+00  0.93827000000E+00 0.  1.
     999902    2    1    2    0    0  0.44165928575E-02  0.13204847604E-01  0.18892303507E-01  0.10204610114E+01  0.10201911009E+01 0.  0.
     999903    2    3    3    0    0  0.86300955149E-01 -0.81925883055E-01  0.32599736555E-01  0.13144875143E+00  0.45346733684E-01 0.  0.
         14    1    1    2    0    0 -0.44165928575E-02 -0.13204847604E-01 -0.18892303507E-01  0.23468988570E-01  0.00000000000E+00 0. -1.
     999901    1    3    3    0    0 -0.81884362292E-01  0.95130730659E-01 -0.13707433049E-01  0.88901226000E+00  0.88000000000E+00 0.  1.
        -11    1    4    4    0    0  0.18146320676E-01 -0.25131276111E-01  0.29318552517E-01  0.42669762546E-01  0.51100000000E-03 0. -1.
         11    1    4    4    0    0  0.68154634473E-01 -0.56794606944E-01  0.32811840383E-02  0.88778988887E-01  0.51100000000E-03 0.  1.
</event>
<event>
 8    1  0.2846344E+004  0.1043930E+01  0.7957747E-01            NaN
         13   -1    0    0    0    0  0.00000000000E+00  0.00000000000E+00  0.74505805969E-08  0.10566000000E+00  0.10566000000E+00 0. -1.
     999900   -1    0    0    0    0 -0.00000000000E+00 -0.00000000000E+00 -0.74505805969E-08  0.93827000000E+00  0.93827000000E+00 0. -1.
     999902    2    1    2    0    0  0.42655650233E-02 -0.12770927447E-01 -0.10183776271E-02  0.10304270845E+01  0.10303386083E+01 0.  0.
     999903    2    3    3    0    0  0.86561795371E-01 -0.32919163671E-01 -0.96494317598E-01  0.14121716778E+00  0.45326806565E-01 0.  0.
         14    1    1    2    0    0 -0.42655650233E-02  0.12770927447E-01  0.10183776271E-02  0.13502915456E-01  0.00000000000E+00 0. -1.
     999901    1    3    3    0    0 -0.82296230347E-01  0.20148236224E-01  0.95475939971E-01  0.88920991676E+00  0.88000000000E+00 0.  1.
        -11    1    4    4    0    0  0.53309185770E-01 -0.23001560632E-01 -0.88100659504E-01  0.10551269310E+00  0.51100000000E-03 0. -1.
         11    1    4    4    0    0  0.33252609600E-01 -0.99176030393E-02 -0.83936580945E-02  0.35704474684E-01  0.51100000000E-03 0.  1.
</event>
<event>
 8    1  0.2846344E+004  0.1043930E+01  0.7957747E-01            NaN
         13   -1    0    0    0    0  0.00000000000E+00  0.00000000000E+00  0.74505805969E-08  0.10566000000E+00  0.10566000000E+00 0. -1.
     999900   -1    0    0    0    0 -0.00000000000E+00 -0.00000000000E+00 -0.74505805969E-08  0.93827000000E+00  0.93827000000E+00 0. -1.
     999902    2    1    2    0    0 -0.71055344194E-02 -0.11881878240E-01  0.12521068126E-02  0.10300290856E+01  0.10299352804E+01 0.  0.
     999903    2    3    3    0    0 -0.13136524889E+00  0.17377532937E-01 -0.12475794927E-01  0.14071190648E+00  0.45666047553E-01 0.  0.
         14    1    1    2    0    0  0.71055344194E-02  0.11881878240E-01 -0.12521068126E-02  0.13900914407E-01  0.00000000000E+00 0.  1.
     999901    1    3    3    0    0  0.12425971447E+00 -0.29259411177E-01  0.13727901740E-01  0.88931717911E+00  0.88000000000E+00 0. -1.
        -11    1    4    4    0    0 -0.39413222574E-01  0.17738272119E-02 -0.24845377518E-01  0.46627271865E-01  0.51100000000E-03 0. -1.
         11    1    4    4    0    0 -0.91952026315E-01  0.15603705725E-01  0.12369582590E-01  0.94084634613E-01  0.51100000000E-03 0.  1.
</event>
<event>
 8    1  0.2846344E+004  0.1043930E+01  0.7957747E-01            NaN
         13   -1    0    0    0    0  0.00000000000E+00  0.00000000000E+00  0.74505805969E-08  0.10566000000E+00  0.10566000000E+00 0. -1.
     999900   -1    0    0    0    0 -0.00000000000E+00 -0.00000000000E+00 -0.74505805969E-08  0.93827000000E+00  0.93827000000E+00 0. -1.
     999902    2    1    2    0    0 -0.71062009560E-02 -0.35005401118E-02 -0.36781647053E-03  0.10359998574E+01  0.10359695060E+01 0.  0.
     999903    2    3    3    0    0  0.40125277034E-01 -0.45123520493E-01 -0.12419783573E+00  0.14510302907E+00  0.44537811899E-01 0.  0.
         14    1    1    2    0    0  0.71062009560E-02  0.35005401118E-02  0.36781647053E-03  0.79301426253E-02  0.00000000000E+00 0.  1.
     999901    1    3    3    0    0 -0.47231477990E-01  0.41622980381E-01  0.12383001925E+00  0.89089682830E+00  0.88000000000E+00 0.  1.
        -11    1    4    4    0    0 -0.95997668335E-02 -0.10399084634E-01 -0.28075941984E-01  0.31445446789E-01  0.51100000000E-03 0. -1.
         11    1    4    4    0    0  0.49725043867E-01 -0.34724435858E-01 -0.96121893741E-01  0.11365758228E+00  0.51100000000E-03 0.  1.
</event>
<event>
 8    1  0.2846344E+004  0.1043930E+01  0.7957747E-01            NaN
         13   -1    0    0    0    0  0.00000000000E+00  0.00000000000E+00  0.74505805969E-08  0.10566000000E+00  0.10566000000E+00 0. -1.
     999900   -1    0    0    0    0 -0.00000000000E+00 -0.00000000000E+00 -0.74505805969E-08  0.93827000000E+00  0.93827000000E+00 0. -1.
     999902    2    1    2    0    0 -0.13053293563E-01  0.17902496523E-02 -0.73443126754E-03  0.10307340591E+01  0.10306495853E+01 0.  0.
     999903    2    3    3    0    0 -0.27177504723E-01 -0.11617829076E+00  0.59345538048E-01  0.14071963643E+00  0.45211847826E-01 0.  0.
         14    1    1    2    0    0  0.13053293563E-01 -0.17902496523E-02  0.73443126754E-03  0.13195940889E-01  0.00000000000E+00 0. -1.
     999901    1    3    3    0    0  0.14124211160E-01  0.11796854041E+00 -0.60079969316E-01  0.89001442268E+00  0.88000000000E+00 0. -1.
        -11    1    4    4    0    0 -0.30406666708E-01 -0.99995961867E-01  0.32954592919E-01  0.10959025543E+00  0.51100000000E-03 0. -1.
         11    1    4    4    0    0  0.32291619856E-02 -0.16182328893E-01  0.26390945129E-01  0.31129380998E-01  0.51100000000E-03 0.  1.
</event>
<event>
 8    1  0.2846344E+004  0.1043930E+01  0.7957747E-01            NaN
         13   -1    0    0    0    0  0.00000000000E+00  0.00000000000E+00  0.74505805969E-08  0.10566000000E+00  0.10566000000E+00 0.  1.
     999900   -1    0    0    0    0 -0.00000000000E+00 -0.00000000000E+00 -0.74505805969E-08  0.93827000000E+00  0.93827000000E+00 0.  1.
     999902    2    1    2    0    0 -0.45318149232E-02  0.56931846280E-02 -0.10669535310E-01  0.10310153308E+01  0.10309344419E+01 0.  0.
     999903    2    3    3    0    0  0.14276262503E-01 -0.74053809539E-01  0.10848155504E+00  0.13921360998E+00  0.43868018445E-01 0.  0.
         14    1    1    2    0    0  0.45318149232E-02 -0.56931846280E-02  0.10669535310E-01  0.12914669234E-01  0.00000000000E+00 0.  1.
     999901    1    3    3    0    0 -0.18808077426E-01  0.79746994167E-01 -0.11915109035E+00  0.89180172078E+00  0.88000000000E+00 0.  1.
        -11    1    4    4    0    0  0.21247629319E-01 -0.29646241836E-01  0.24452398292E-01  0.43915171751E-01  0.51100000000E-03 0.  1.
         11    1    4    4    0    0 -0.69713668168E-02 -0.44407567703E-01  0.84029156751E-01  0.95298438234E-01  0.51100000000E-03 0. -1.
</event>
<event>
 8    1  0.2846344E+004  0.1043930E+01  0.7957747E-01            NaN
         13   -1    0    0    0    0  0.00000000000E+00  0.00000000000E+00  0.74505805969E-08  0.10566000000E+00  0.10566000000E+00 0.  1.
     999900   -1    0    0    0    0 -0.00000000000E+00 -0.00000000000E+00 -0.74505805969E-08  0.93827000000E+00  0.93827000000E+00 0. -1.
     999902    2    1    2    0    0  0.41161969172E-02 -0.14475117446E-01  0.17514843063E-02  0.10287794291E+01  0.10286678637E+01 0.  0.
     999903    2    3    3    0    0  0.56749646838E-01 -0.12051479763E+00  0.12724243384E-01  0.14078444301E+00  0.43749447535E-01 0.  0.
         14    1    1    2    0    0 -0.41161969172E-02  0.14475117446E-01 -0.17514843063E-02  0.15150570927E-01  0.00000000000E+00 0. -1.
     999901    1    3    3    0    0 -0.52633449921E-01  0.10603968019E+00 -0.10972759077E-01  0.88799498606E+00  0.88000000000E+00 0. -1.
        -11    1    4    4    0    0  0.30563942091E-01 -0.10281081468E+00  0.15987012308E-02  0.10727084943E+00  0.51100000000E-03 0. -1.
         11    1    4    4    0    0  0.26185704748E-01 -0.17703982957E-01  0.11125542153E-01  0.33513593583E-01  0.51100000000E-03 0.  1.
</event>
<event>
 7    1  0.2846344E+004  0.1043930E+01  0.7957747E-01            NaN
         13   -1    0    0    0    0  0.00000000000E+00  0.00000000000E+00  0.74505805969E-08  0.10566000000E+00  0.10566000000E+00 0. -1.
     999900   -1    0    0    0    0 -0.00000000000E+00 -0.00000000000E+00 -0.74505805969E-08  0.93827000000E+00  0.93827000000E+00 0.  1.
     999903    2    1    2    0    0 -0.73259983804E-01 -0.26189728277E-01  0.78603631837E-01  0.11934991338E+00  0.44865842135E-01 0.  0.
         14    1    1    2    0    0  0.42826123056E-02 -0.34088289303E-01 -0.15163090116E-01  0.37553582220E-01  0.00000000000E+00 0. -1.
     999901    1    1    2    0    0  0.68977371499E-01  0.60278017579E-01 -0.63440541722E-01  0.88702650440E+00  0.88000000000E+00 0.  1.
        -11    1    3    3    0    0 -0.59242700618E-01 -0.38796756060E-01  0.59358104928E-01  0.92404175225E-01  0.51100000000E-03 0.  1.
         11    1    3    3    0    0 -0.14017283187E-01  0.12607027784E-01  0.19245526909E-01  0.26945738150E-01  0.51100000000E-03 0. -1.
</event>
<event>
 7    1  0.2846344E+004  0.1043930E+01  0.7957747E-01            NaN
         13   -1    0    0    0    0  0.00000000000E+00  0.00000000000E+00  0.74505805969E-08  0.10566000000E+00  0.10566000000E+00 0. -1.
     999900   -1    0    0    0    0 -0.00000000000E+00 -0.00000000000E+00 -0.74505805969E-08  0.93827000000E+00  0.93827000000E+00 0.  1.
     999903    2    1    2    0    0 -0.43767611702E-01  0.69155840310E-01  0.22235252944E-01  0.95860544809E-01  0.44684488298E-01 0.  0.
         14    1    1    2    0    0  0.26638296726E-01  0.27957651581E-01 -0.48716807847E-01  0.62165557193E-01  0.00000000000E+00 0.  1.
     999901    1    1    2    0    0  0.17129314977E-01 -0.97113491890E-01  0.26481554902E-01  0.88590389800E+00  0.88000000000E+00 0. -1.
        -11    1    3    3    0    0 -0.49549413385E-02  0.49416915611E-01  0.10591504839E-01  0.50784092864E-01  0.51100000000E-03 0. -1.
         11    1    3    3    0    0 -0.38812670364E-01  0.19738924698E-01  0.11643748105E-01  0.45076451945E-01  0.51100000000E-03 0.  1.
</event>
<event>
 8    1  0.2846344E+004  0.1043930E+01  0.7957747E-01            NaN
         13   -1    0    0    0    0  0.00000000000E+00  0.00000000000E+00  0.74505805969E-08  0.10566000000E+00  0.10566000000E+00 0. -1.
     999900   -1    0    0    0    0 -0.00000000000E+00 -0.00000000000E+00 -0.74505805969E-08  0.93827000000E+00  0.93827000000E+00 0.  1.
     999902    2    1    2    0    0  0.12121025789E-01  0.14814929431E-02  0.52885640114E-02  0.10306227465E+01  0.10305368322E+01 0.  0.
     999903    2    3    3    0    0  0.82870687739E-01  0.95063599672E-01  0.47001770668E-01  0.14185780736E+00  0.44831152041E-01 0.  0.
         14    1    1    2    0    0 -0.12121025789E-01 -0.14814929431E-02 -0.52885640114E-02  0.13307253541E-01  0.00000000000E+00 0.  1.
     999901    1    3    3    0    0 -0.70749661951E-01 -0.93582106729E-01 -0.41713206657E-01  0.88876493910E+00  0.88000000000E+00 0. -1.
        -11    1    4    4    0    0  0.14418589190E-01  0.48261941966E-01  0.11584531516E-01  0.51687263886E-01  0.51100000000E-03 0. -1.
         11    1    4    4    0    0  0.68452098549E-01  0.46801657707E-01  0.35417239153E-01  0.90170543472E-01  0.51100000000E-03 0.  1.
</event>
<event>
 8    1  0.2846344E+004  0.1043930E+01  0.7957747E-01            NaN
         13   -1    0    0    0    0  0.00000000000E+00  0.00000000000E+00  0.74505805969E-08  0.10566000000E+00  0.10566000000E+00 0.  1.
     999900   -1    0    0    0    0 -0.00000000000E+00 -0.00000000000E+00 -0.74505805969E-08  0.93827000000E+00  0.93827000000E+00 0.  1.
     999902    2    1    2    0    0  0.11831421937E-03  0.12323928472E-01 -0.90126624903E-02  0.10286616898E+01  0.10285483706E+01 0.  0.
     999903    2    3    3    0    0 -0.58999745296E-01 -0.46378134306E-01  0.10587547475E+00  0.13729186688E+00  0.44805571865E-01 0.  0.
         14    1    1    2    0    0 -0.11831421937E-03 -0.12323928472E-01  0.90126624903E-02  0.15268310201E-01  0.00000000000E+00 0.  1.
     999901    1    3    3    0    0  0.59118059515E-01  0.58702062778E-01 -0.11488813724E+00  0.89136982292E+00  0.88000000000E+00 0.  1.
        -11    1    4    4    0    0 -0.24427450366E-01 -0.28753021290E-01  0.85507848740E-01  0.93462772706E-01  0.51100000000E-03 0.  1.
         11    1    4    4    0    0 -0.34572294930E-01 -0.17625113017E-01  0.20367626011E-01  0.43829094172E-01  0.51100000000E-03 0. -1.
</event>
<event>
 8    1  0.2846344E+004  0.1043930E+01  0.7957747E-01            NaN
         13   -1    0    0    0    0  0.00000000000E+00  0.00000000000E+00  0.74505805969E-08  0.10566000000E+00  0.10566000000E+00 0.  1.
     999900   -1    0    0    0    0 -0.00000000000E+00 -0.00000000000E+00 -0.74505805969E-08  0.93827000000E+00  0.93827000000E+00 0.  1.
     999902    2    1    2    0    0 -0.96432748886E-02 -0.10038968031E-01  0.33176170827E-03  0.10300057874E+01  0.10299116654E+01 0.  0.
     999903    2    3    3    0    0 -0.87187198688E-01  0.12483216499E-01 -0.10007408516E+00  0.14062305599E+00  0.44750229554E-01 0.  0.
         14    1    1    2    0    0  0.96432748886E-02  0.10038968031E-01 -0.33176170827E-03  0.13924212564E-01  0.00000000000E+00 0. -1.
     999901    1    3    3    0    0  0.77543923800E-01 -0.22522184530E-01  0.10040584687E+00  0.88938273145E+00  0.88000000000E+00 0. -1.
        -11    1    4    4    0    0 -0.10292938666E-01  0.13714329144E-01 -0.38345880437E-01  0.42008273919E-01  0.51100000000E-03 0.  1.
         11    1    4    4    0    0 -0.76894260023E-01 -0.12311126447E-02 -0.61728204724E-01  0.98614782067E-01  0.51100000000E-03 0. -1.
</event>
<event>
 8    1  0.2846344E+004  0.1043930E+01  0.7957747E-01            NaN
         13   -1    0    0    0    0  0.00000000000E+00  0.00000000000E+00  0.74505805969E-08  0.10566000000E+00  0.10566000000E+00 0.  1.
     999900   -1    0    0    0    0 -0.00000000000E+00 -0.00000000000E+00 -0.74505805969E-08  0.93827000000E+00  0.93827000000E+00 0.  1.
     999902    2    1    2    0    0 -0.26234329711E-02  0.63974274745E-02  0.12999305107E-01  0.10292061618E+01  0.10291008367E+01 0.  0.
     999903    2    3    3    0    0 -0.15819526869E-01 -0.10730747126E+00 -0.70365410606E-01  0.13788544693E+00  0.47916120950E-01 0.  0.
         14    1    1    2    0    0  0.26234329711E-02 -0.63974274745E-02 -0.12999305107E-01  0.14723838226E-01  0.00000000000E+00 0. -1.
     999901    1    3    3    0    0  0.13196093898E-01  0.11370489873E+00  0.83364715713E-01  0.89132071485E+00  0.88000000000E+00 0. -1.
        -11    1    4    4    0    0  0.66094724745E-02 -0.84919161583E-01 -0.40418854602E-01  0.94280931575E-01  0.51100000000E-03 0.  1.
         11    1    4    4    0    0 -0.22428999344E-01 -0.22388309672E-01 -0.29946556004E-01  0.43604515351E-01  0.51100000000E-03 0. -1.
</event>
<event>
 8    1  0.2846344E+004  0.1043930E+01  0.7957747E-01            NaN
         13   -1    0    0    0    0  0.00000000000E+00  0.00000000000E+00  0.74505805969E-08  0.10566000000E+00  0.10566000000E+00 0.  1.
     999900   -1    0    0    0    0 -0.00000000000E+00 -0.00000000000E+00 -0.74505805969E-08  0.93827000000E+00  0.93827000000E+00 0.  1.
     999902    2    1    2    0    0  0.12435511463E-01 -0.39583661024E-02  0.33526112032E-02  0.10304559283E+01  0.10303678321E+01 0.  0.
     999903    2    3    3    0    0  0.24016698861E-01  0.10416567499E+00  0.79251159838E-01  0.14052024415E+00  0.45143139117E-01 0.  0.
         14    1    1    2    0    0 -0.12435511463E-01  0.39583661024E-02 -0.33526112032E-02  0.13474071746E-01  0.00000000000E+00 0. -1.
     999901    1    3    3    0    0 -0.11581187398E-01 -0.10812404109E+00 -0.75898548634E-01  0.88993568411E+00  0.88000000000E+00 0.  1.
        -11    1    4    4    0    0  0.36573036565E-01  0.61513275607E-01  0.49691243073E-01  0.87126062912E-01  0.51100000000E-03 0.  1.
         11    1    4    4    0    0 -0.12556337704E-01  0.42652399381E-01  0.29559916765E-01  0.53394181234E-01  0.51100000000E-03 0. -1.
</event>
<event>
 8    1  0.2846344E+004  0.1043930E+01  0.7957747E-01            NaN
         13   -1    0    0    0    0  0.00000000000E+00  0.00000000000E+00  0.74505805969E-08  0.10566000000E+00  0.10566000000E+00 0.  1.
     999900   -1    0    0    0    0 -0.00000000000E+00 -0.00000000000E+00 -0.74505805969E-08  0.93827000000E+00  0.93827000000E+00 0. -1.
     999902    2    1    2    0    0 -0.92519042400E-02 -0.76196865882E-02  0.76673286657E-02  0.10297016732E+01  0.10296033656E+01 0.  0.
     999903    2    3    3    0    0 -0.12221455461E+00 -0.14416280200E-01  0.53387690342E-01  0.14127772845E+00  0.44327469856E-01 0.  0.
         14    1    1    2    0    0  0.92519042400E-02  0.76196865882E-02 -0.76673286657E-02  0.14228326839E-01  0.00000000000E+00 0. -1.
     999901    1    3    3    0    0  0.11296265037E+00  0.67965936121E-02 -0.45720361677E-01  0.88842394471E+00  0.88000000000E+00 0. -1.
        -11    1    4    4    0    0 -0.26639540073E-01 -0.22273916965E-01  0.17454156841E-01  0.38867739635E-01  0.51100000000E-03 0.  1.
         11    1    4    4    0    0 -0.95575014533E-01  0.78576367646E-02  0.35933533501E-01  0.10240998882E+00  0.51100000000E-03 0. -1.
</event>
<event>
 8    1  0.2846344E+004  0.1043930E+01  0.7957747E-01            NaN
         13   -1    0    0    0    0  0.00000000000E+00  0.00000000000E+00  0.74505805969E-08  0.10566000000E+00  0.10566000000E+00 0.  1.
     999900   -1    0    0    0    0 -0.00000000000E+00 -0.00000000000E+00 -0.74505805969E-08  0.93827000000E+00  0.93827000000E+00 0. -1.
     999902    2    1    2    0    0 -0.76818087217E-02  0.82687396342E-02  0.74650195114E-02  0.10303982316E+01  0.10303093744E+01 0.  0.
     999903    2    3    3    0    0  0.66894914543E-01  0.31049640595E-01 -0.10945304259E+00  0.13924701526E+00  0.44393163369E-01 0.  0.
         14    1    1    2    0    0  0.76818087217E-02 -0.82687396342E-02 -0.74650195114E-02  0.13531768424E-01  0.00000000000E+00 0. -1.
     999901    1    3    3    0    0 -0.74576723264E-01 -0.22780900961E-01  0.11691806210E+00  0.89115121632E+00  0.88000000000E+00 0.  1.
        -11    1    4    4    0    0  0.29360989536E-01 -0.54699498194E-04 -0.72041359588E-01  0.77796460786E-01  0.51100000000E-03 0.  1.
         11    1    4    4    0    0  0.37533925007E-01  0.31104340093E-01 -0.37411682999E-01  0.61450554471E-01  0.51100000000E-03 0. -1.
</event>
<event>
 8    1  0.2846344E+004  0.1043930E+01  0.7957747E-01            NaN
         13   -1    0    0    0    0  0.00000000000E+00  0.00000000000E+00  0.74505805969E-08  0.10566000000E+00  0.10566000000E+00 0.  1.
     999900   -1    0    0    0    0 -0.00000000000E+00 -0.00000000000E+00 -0.74505805969E-08  0.93827000000E+00  0.93827000000E+00 0. -1.
     999902    2    1    2    0    0 -0.11734350638E-01  0.68604253505E-02  0.50280603538E-02  0.10294371807E+01  0.10293351578E+01 0.  0.
     999903    2    3    3    0    0  0.88489202734E-01  0.89385369599E-01 -0.37922775541E-01  0.13887561550E+00  0.45035723341E-01 0.  0.
         14    1    1    2    0    0  0.11734350638E-01 -0.68604253505E-02 -0.50280603538E-02  0.14492819319E-01  0.00000000000E+00 0. -1.
     999901    1    3    3    0    0 -0.10022355337E+00 -0.82524944249E-01  0.42950835895E-01  0.89056156518E+00  0.88000000000E+00 0.  1.
        -11    1    4    4    0    0  0.16699754470E-01  0.36217625190E-01  0.42027999466E-02  0.40106393782E-01  0.51100000000E-03 0.  1.
         11    1    4    4    0    0  0.71789448265E-01  0.53167744409E-01 -0.42125575488E-01  0.98769221719E-01  0.51100000000E-03 0. -1.
</event>
<event>
 8    1  0.2846344E+004  0.1043930E+01  0.7957747E-01            NaN
         13   -1    0    0    0    0  0.00000000000E+00  0.00000000000E+00  0.74505805969E-08  0.10566000000E+00  0.10566000000E+00 0.  1.
     999900   -1    0    0    0    0 -0.00000000000E+00 -0.00000000000E+00 -0.74505805969E-08  0.93827000000E+00  0.93827000000E+00 0.  1.
     999902    2    1    2    0    0  0.10687255874E-01  0.83191876697E-02 -0.17757576520E-02  0.10302705843E+01  0.10301800315E+01 0.  0.
     999903    2    3    3    0    0  0.96684648214E-01  0.91378372198E-01  0.65488812557E-02  0.14214689967E+00  0.49648012375E-01 0.  0.
         14    1    1    2    0    0 -0.10687255874E-01 -0.83191876697E-02  0.17757576520E-02  0.13659415685E-01  0.00000000000E+00 0.  1.
     999901    1    3    3    0    0 -0.85997392340E-01 -0.83059184528E-01 -0.83246389077E-02  0.88812368465E+00  0.88000000000E+00 0. -1.
        -11    1    4    4    0    0  0.96814270544E-01  0.96152034917E-01  0.90169754179E-02  0.13674715268E+00  0.51100000000E-03 0. -1.
         11    1    4    4    0    0 -0.12962232977E-03 -0.47736627186E-02 -0.24680941622E-02  0.53997469842E-02  0.51100000000E-03 0.  1.
</event>
<event>
 8    1  0.2846344E+004  0.1043930E+01  0.7957747E-01            NaN
         13   -1    0    0    0    0  0.00000000000E+00  0.00000000000E+00  0.74505805969E-08  0.10566000000E+00  0.10566000000E+00 0. -1.
     999900   -1    0    0    0    0 -0.00000000000E+00 -0.00000000000E+00 -0.74505805969E-08  0.93827000000E+00  0.93827000000E+00 0. -1.
     999902    2    1    2    0    0  0.50582194366E-02  0.54900793715E-02 -0.97947171341E-02  0.10316148451E+01  0.10315413349E+01 0.  0.
     999903    2    3    3    0    0 -0.29822828421E-01  0.12887498749E+00 -0.22607207263E-01  0.14223040467E+00  0.47119408914E-01 0.  0.
         14    1    1    2    0    0 -0.50582194366E-02 -0.54900793715E-02  0.97947171341E-02  0.12315154855E-01  0.00000000000E+00 0. -1.
     999901    1    3    3    0    0  0.34881047858E-01 -0.12338490812E+00  0.12812490128E-01  0.88938444047E+00  0.88000000000E+00 0. -1.
        -11    1    4    4    0    0 -0.28274912344E-01  0.88981988132E-01  0.52996373495E-02  0.93517977721E-01  0.51100000000E-03 0.  1.
         11    1    4    4    0    0 -0.15479160775E-02  0.39892999361E-01 -0.27906844612E-01  0.48712426951E-01  0.51100000000E-03 0. -1.
</event>
<event>
 8    1  0.2846344E+004  0.1043930E+01  0.7957747E-01            NaN
         13   -1    0    0    0    0  0.00000000000E+00  0.00000000000E+00  0.74505805969E-08  0.10566000000E+00  0.10566000000E+00 0. -1.
     999900   -1    0    0    0    0 -0.00000000000E+00 -0.00000000000E+00 -0.74505805969E-08  0.93827000000E+00  0.93827000000E+00 0.  1.
     999902    2    1    2    0    0  0.37555345675E-02  0.24913554790E-02  0.13319352620E-01  0.10298688462E+01  0.10297728508E+01 0.  0.
     999903    2    3    3    0    0 -0.10821540030E+00 -0.33351655506E-01  0.69659917104E-01  0.14026417507E+00  0.44706028348E-01 0.  0.
         14    1    1    2    0    0 -0.37555345675E-02 -0.24913554790E-02 -0.13319352620E-01  0.14061153801E-01  0.00000000000E+00 0.  1.
     999901    1    3    3    0    0  0.11197093486E+00  0.35843010985E-01 -0.56340564484E-01  0.88960467113E+00  0.88000000000E+00 0. -1.
        -11    1    4    4    0    0 -0.43735992141E-01 -0.10671062314E-01  0.53691837063E-01  0.70069844210E-01  0.51100000000E-03 0. -1.
         11    1    4    4    0    0 -0.64479408154E-01 -0.22680593192E-01  0.15968080041E-01  0.70194330858E-01  0.51100000000E-03 0.  1.
</event>
<event>
 8    1  0.2846344E+004  0.1043930E+01  0.7957747E-01            NaN
         13   -1    0    0    0    0  0.00000000000E+00  0.00000000000E+00  0.74505805969E-08  0.10566000000E+00  0.10566000000E+00 0.  1.
     999900   -1    0    0    0    0 -0.00000000000E+00 -0.00000000000E+00 -0.74505805969E-08  0.93827000000E+00  0.93827000000E+00 0.  1.
     999902    2    1    2    0    0 -0.22324733337E-02  0.75916878262E-02  0.10905616787E-01  0.10304559457E+01  0.10303678498E+01 0.  0.
     999903    2    3    3    0    0 -0.13213987371E+00 -0.77176532645E-02 -0.11796332476E-01  0.14049769552E+00  0.45606365690E-01 0.  0.
         14    1    1    2    0    0  0.22324733337E-02 -0.75916878262E-02 -0.10905616787E-01  0.13474054280E-01  0.00000000000E+00 0. -1.
     999901    1    3    3    0    0  0.12990740037E+00  0.15309341091E-01  0.22701949263E-01  0.88995825020E+00  0.88000000000E+00 0.  1.
        -11    1    4    4    0    0 -0.11291425497E+00  0.42682333089E-02  0.36795392010E-02  0.11305594598E+00  0.51100000000E-03 0. -1.
         11    1    4    4    0    0 -0.19225618733E-01 -0.11985886573E-01 -0.15475871677E-01  0.27441749540E-01  0.51100000000E-03 0.  1.
</event>
<event>
 8    1  0.2846344E+004  0.1043930E+01  0.7957747E-01            NaN
         13   -1    0    0    0    0  0.00000000000E+00  0.00000000000E+00  0.74505805969E-08  0.10566000000E+00  0.10566000000E+00 0. -1.
     999900   -1    0    0    0    0 -0.00000000000E+00 -0.00000000000E+00 -0.74505805969E-08  0.93827000000E+00  0.93827000000E+00 0.  1.
     999902    2    1    2    0    0  0.62949175165E-02  0.11616951186E-01 -0.47835493001E-02  0.10298778868E+01  0.10297820157E+01 0.  0.
     999903    2    3    3    0    0 -0.41712878693E-01  0.10662952858E+00 -0.68447761692E-01  0.14117924817E+00  0.46224056735E-01 0.  0.
         14    1    1    2    0    0 -0.62949175165E-02 -0.11616951186E-01  0.47835493001E-02  0.14052113197E-01  0.00000000000E+00 0. -1.
     999901    1    3    3    0    0  0.48007796209E-01 -0.95012577392E-01  0.63664212391E-01  0.88869863863E+00  0.88000000000E+00 0. -1.
        -11    1    4    4    0    0 -0.47908272358E-01  0.61890909921E-01 -0.41669213573E-01  0.88669452304E-01  0.51100000000E-03 0. -1.
         11    1    4    4    0    0  0.61953936652E-02  0.44738618657E-01 -0.26778548119E-01  0.52509795871E-01  0.51100000000E-03 0.  1.
</event>
<event>
 8    1  0.2846344E+004  0.1043930E+01  0.7957747E-01            NaN
         13   -1    0    0    0    0  0.00000000000E+00  0.00000000000E+00  0.74505805969E-08  0.10566000000E+00  0.10566000000E+00 0.  1.
     999900   -1    0    0    0    0 -0.00000000000E+00 -0.00000000000E+00 -0.74505805969E-08  0.93827000000E+00  0.93827000000E+00 0.  1.
     999902    2    1    2    0    0  0.85808787112E-02 -0.26717462805E-02 -0.18857300384E-01  0.10230405892E+01  0.10228272970E+01 0.  0.
     999903    2    3    3    0    0  0.12499320092E+00  0.24664164187E-01 -0.15247658152E-01  0.13494593751E+00  0.41788679105E-01 0.  0.
         14    1    1    2    0    0 -0.85808787112E-02  0.26717462805E-02  0.18857300384E-01  0.20889410844E-01  0.00000000000E+00 0.  1.
     999901    1    3    3    0    0 -0.11641232221E+00 -0.27335910468E-01 -0.36096422319E-02  0.88809465164E+00  0.88000000000E+00 0.  1.
        -11    1    4    4    0    0  0.69505043927E-01  0.57594025727E-02 -0.27649859364E-01  0.75025980121E-01  0.51100000000E-03 0.  1.
         11    1    4    4    0    0  0.55488156990E-01  0.18904761614E-01  0.12402201212E-01  0.59919957391E-01  0.51100000000E-03 0. -1.
</event>
<event>
 8    1  0.2846344E+004  0.1043930E+01  0.7957747E-01            NaN
         13   -1    0    0    0    0  0.00000000000E+00  0.00000000000E+00  0.74505805969E-08  0.10566000000E+00  0.10566000000E+00 0.  1.
     999900   -1    0    0    0    0 -0.00000000000E+00 -0.00000000000E+00 -0.74505805969E-08  0.93827000000E+00  0.93827000000E+00 0.  1.
     999902    2    1    2    0    0 -0.88153892893E-02  0.94688257432E-02  0.64924535269E-02  0.10294551355E+01  0.10293533671E+01 0.  0.
     999903    2    3    3    0    0 -0.81215639461E-01  0.10652825662E+00  0.35641829463E-02  0.14115850481E+00  0.44370829681E-01 0.  0.
         14    1    1    2    0    0  0.88153892893E-02 -0.94688257432E-02 -0.64924535269E-02  0.14474864492E-01  0.00000000000E+00 0. -1.
     999901    1    3    3    0    0  0.72400250172E-01 -0.97059430880E-01  0.29282705806E-02  0.88829663070E+00  0.88000000000E+00 0. -1.
        -11    1    4    4    0    0 -0.22578795138E-01  0.18695385057E-01  0.18248706150E-01  0.34533980504E-01  0.51100000000E-03 0. -1.
         11    1    4    4    0    0 -0.58636844323E-01  0.87832871567E-01 -0.14684523204E-01  0.10662452430E+00  0.51100000000E-03 0.  1.
</event>
<event>
 8    1  0.2846344E+004  0.1043930E+01  0.7957747E-01            NaN
         13   -1    0    0    0    0  0.00000000000E+00  0.00000000000E+00  0.74505805969E-08  0.10566000000E+00  0.10566000000E+00 0.  1.
     999900   -1    0    0    0    0 -0.00000000000E+00 -0.00000000000E+00 -0.74505805969E-08  0.93827000000E+00  0.93827000000E+00 0. -1.
     999902    2    1    2    0    0 -0.29218713142E-02  0.14444781891E-01  0.83793845379E-02  0.10269770315E+01  0.10268370952E+01 0.  0.
     999903    2    3    3    0    0  0.59488579979E-01 -0.49071076242E-01 -0.10061342990E+00  0.13579312104E+00  0.48681082286E-01 0.  0.
         14    1    1    2    0    0  0.29218713142E-02 -0.14444781891E-01 -0.83793845379E-02  0.16952968504E-01  0.00000000000E+00 0. -1.
     999901    1    3    3    0    0 -0.62410451293E-01  0.63515858133E-01  0.10899281444E+00  0.89118391046E+00  0.88000000000E+00 0.  1.
        -11    1    4    4    0    0  0.13314881293E-01  0.77282797595E-02 -0.31759366455E-01  0.35297745686E-01  0.51100000000E-03 0.  1.
         11    1    4    4    0    0  0.46173698686E-01 -0.56799356001E-01 -0.68854063445E-01  0.10049537535E+00  0.51100000000E-03 0. -1.
</event>
<event>
 8    1  0.2846344E+004  0.1043930E+01  0.7957747E-01            NaN
         13   -1    0    0    0    0  0.00000000000E+00  0.00000000000E+00  0.74505805969E-08  0.10566000000E+00  0.10566000000E+00 0.  1.
     999900   -1    0    0    0    0 -0.00000000000E+00 -0.00000000000E+00 -0.74505805969E-08  0.93827000000E+00  0.93827000000E+00 0.  1.
     999902    2    1    2    0    0  0.12036976795E-01  0.15844557383E-02  0.58384365627E-02  0.10304583018E+01  0.10303702369E+01 0.  0.
     999903    2    3    3    0    0 -0.30594378832E-01 -0.40107387703E-01 -0.12155422554E+00  0.13928798552E+00  0.45619015783E-01 0.  0.
         14    1    1    2    0    0 -0.12036976795E-01 -0.15844557383E-02 -0.58384365627E-02  0.13471698180E-01  0.00000000000E+00 0. -1.
     999901    1    3    3    0    0  0.42631355627E-01  0.41691843442E-01  0.12739266210E+00  0.89117031630E+00  0.88000000000E+00 0. -1.
        -11    1    4    4    0    0 -0.20465961470E-01 -0.31187875024E-01 -0.33301738148E-01  0.50008059471E-01  0.51100000000E-03 0.  1.
         11    1    4    4    0    0 -0.10128417362E-01 -0.89195126794E-02 -0.88252487388E-01  0.89279926052E-01  0.51100000000E-03 0. -1.
</event>
<event>
 8    1  0.2846344E+004  0.1043930E+01  0.7957747E-01            NaN
         13   -1    0    0    0    0  0.00000000000E+00  0.00000000000E+00  0.74505805969E-08  0.10566000000E+00  0.10566000000E+00 0.  1.
     999900   -1    0    0    0    0 -0.00000000000E+00 -0.00000000000E+00 -0.74505805969E-08  0.93827000000E+00  0.93827000000E+00 0. -1.
     999902    2    1    2    0    0 -0.29761788005E-02 -0.11210612955E-02  0.14777676676E-01  0.10288139772E+01  0.10287029238E+01 0.  0.
     999903    2    3    3    0    0  0.70954236396E-01  0.80550328920E-01  0.77146054264E-01  0.13975507202E+00  0.45355344958E-01 0.  0.
         14    1    1    2    0    0  0.29761788005E-02  0.11210612955E-02 -0.14777676676E-01  0.15116022844E-01  0.00000000000E+00 0. -1.
     999901    1    3    3    0    0 -0.73930415197E-01 -0.81671390215E-01 -0.62368377588E-01  0.88905890513E+00  0.88000000000E+00 0. -1.
        -11    1    4    4    0    0  0.48094889326E-01  0.23290829397E-01  0.24974223063E-01  0.58987744930E-01  0.51100000000E-03 0.  1.
         11    1    4    4    0    0  0.22859347070E-01  0.57259499523E-01  0.52171831201E-01  0.80767327094E-01  0.51100000000E-03 0. -1.
</event>
<event>
 8    1  0.2846344E+004  0.1043930E+01  0.7957747E-01            NaN
         13   -1    0    0    0    0  0.00000000000E+00  0.00000000000E+00  0.74505805969E-08  0.10566000000E+00  0.10566000000E+00 0.  1.
     999900   -1    0    0    0    0 -0.00000000000E+00 -0.00000000000E+00 -0.74505805969E-08  0.93827000000E+00  0.93827000000E+00 0. -1.
     999902    2    1    2    0    0 -0.28982441546E-02  0.11788064779E-01 -0.29691044730E-02  0.10314330455E+01  0.10313573355E+01 0.  0.
     999903    2    3    3    0    0  0.98256539151E-01 -0.70330314118E-01  0.54191107140E-01  0.14000553407E+00  0.45433169686E-01 0.  0.
         14    1    1    2    0    0  0.28982441546E-02 -0.11788064779E-01  0.29691044730E-02  0.12496954501E-01  0.00000000000E+00 0. -1.
     999901    1    3    3    0    0 -0.10115478331E+00  0.82118378898E-01 -0.57160211613E-01  0.89142751143E+00  0.88000000000E+00 0.  1.
        -11    1    4    4    0    0  0.10577711436E-02 -0.69067552663E-02  0.16583231876E-01  0.18002412298E-01  0.51100000000E-03 0.  1.
         11    1    4    4    0    0  0.97198768007E-01 -0.63423558852E-01  0.37607875264E-01  0.12200312177E+00  0.51100000000E-03 0. -1.
</event>
<event>
 7    1  0.2846344E+004  0.1043930E+01  0.7957747E-01            NaN
         13   -1    0    0    0    0  0.00000000000E+00  0.00000000000E+00  0.74505805969E-08  0.10566000000E+00  0.10566000000E+00 0.  1.
     999900   -1    0    0    0    0 -0.00000000000E+00 -0.00000000000E+00 -0.74505805969E-08  0.93827000000E+00  0.93827000000E+00 0.  1.
     999903    2    1    2    0    0 -0.11025211049E-01  0.77672474332E-01 -0.77213491875E-01  0.11921622763E+00  0.45782278837E-01 0.  0.
         14    1    1    2    0    0  0.29363969892E-02 -0.22944970489E-01 -0.28450690025E-01  0.36667913234E-01  0.00000000000E+00 0. -1.
     999901    1    1    2    0    0  0.80888140602E-02 -0.54727503842E-01  0.10566418190E+00  0.88804585913E+00  0.88000000000E+00 0. -1.
        -11    1    3    3    0    0 -0.90522461008E-02  0.50269196674E-01 -0.76177064037E-01  0.91717727294E-01  0.51100000000E-03 0.  1.
         11    1    3    3    0    0 -0.19729649486E-02  0.27403277658E-01 -0.10364278378E-02  0.27498500337E-01  0.51100000000E-03 0. -1.
</event>
<event>
 8    1  0.2846344E+004  0.1043930E+01  0.7957747E-01            NaN
         13   -1    0    0    0    0  0.00000000000E+00  0.00000000000E+00  0.74505805969E-08  0.10566000000E+00  0.10566000000E+00 0.  1.
     999900   -1    0    0    0    0 -0.00000000000E+00 -0.00000000000E+00 -0.74505805969E-08  0.93827000000E+00  0.93827000000E+00 0. -1.
     999902    2    1    2    0    0  0.12488879322E-01 -0.23125200077E-02  0.58580975291E-02  0.10299429645E+01  0.10298479854E+01 0.  0.
     999903    2    3    3    0    0 -0.40883815129E-01  0.36079527927E-01  0.12121334858E+00  0.13998261268E+00  0.43923083972E-01 0.  0.
         14    1    1    2    0    0 -0.12488879322E-01  0.23125200077E-02 -0.58580975291E-02  0.13987035503E-01  0.00000000000E+00 0.  1.
     999901    1    3    3    0    0  0.53372694451E-01 -0.38392047935E-01 -0.11535525105E+00  0.88996035181E+00  0.88000000000E+00 0. -1.
        -11    1    4    4    0    0 -0.83140147285E-02 -0.75871262692E-02  0.44430054991E-01  0.45836429109E-01  0.51100000000E-03 0. -1.
         11    1    4    4    0    0 -0.32569800400E-01  0.43666654196E-01  0.76783293584E-01  0.94146183573E-01  0.51100000000E-03 0.  1.
</event>
<event>
 8    1  0.2846344E+004  0.1043930E+01  0.7957747E-01            NaN
         13   -1    0    0    0    0  0.00000000000E+00  0.00000000000E+00  0.74505805969E-08  0.10566000000E+00  0.10566000000E+00 0.  1.
     999900   -1    0    0    0    0 -0.00000000000E+00 -0.00000000000E+00 -0.74505805969E-08  0.93827000000E+00  0.93827000000E+00 0.  1.
     999902    2    1    2    0    0  0.92876442718E-02 -0.11145230015E-01  0.16649693414E-02  0.10293269657E+01  0.10292233740E+01 0.  0.
     999903    2    3    3    0    0 -0.90005942046E-01  0.58163916770E-01  0.74542863856E-01  0.13805026251E+00  0.44912421563E-01 0.  0.
         14    1    1    2    0    0 -0.92876442718E-02  0.11145230015E-01 -0.16649693414E-02  0.14603034312E-01  0.00000000000E+00 0. -1.
     999901    1    3    3    0    0  0.99293586318E-01 -0.69309146785E-01 -0.72877894515E-01  0.89127670317E+00  0.88000000000E+00 0.  1.
        -11    1    4    4    0    0 -0.58607264791E-01  0.60943561914E-01  0.57011275285E-01  0.10197782041E+00  0.51100000000E-03 0.  1.
         11    1    4    4    0    0 -0.31398677255E-01 -0.27796451438E-02  0.17531588571E-01  0.36072442104E-01  0.51100000000E-03 0. -1.
</event>
<event>
 8    1  0.2846344E+004  0.1043930E+01  0.7957747E-01            NaN
         13   -1    0    0    0    0  0.00000000000E+00  0.00000000000E+00  0.74505805969E-08  0.10566000000E+00  0.10566000000E+00 0.  1.
     999900   -1    0    0    0    0 -0.00000000000E+00 -0.00000000000E+00 -0.74505805969E-08  0.93827000000E+00  0.93827000000E+00 0.  1.
     999902    2    1    2    0    0 -0.10641645348E-01  0.79883876605E-02 -0.11746675675E-02  0.10305719014E+01  0.10304853251E+01 0.  0.
     999903    2    3    3    0    0 -0.89906288077E-01 -0.59121585298E-01 -0.79453446172E-01  0.14101347209E+00  0.44648031513E-01 0.  0.
         14    1    1    2    0    0  0.10641645348E-01 -0.79883876605E-02  0.11746675675E-02  0.13358098555E-01  0.00000000000E+00 0.  1.
     999901    1    3    3    0    0  0.79264642729E-01  0.67109972959E-01  0.78278778605E-01  0.88955842936E+00  0.88000000000E+00 0. -1.
        -11    1    4    4    0    0 -0.30929451801E-01 -0.15242865187E-01 -0.52303572442E-01  0.62649028237E-01  0.51100000000E-03 0.  1.
         11    1    4    4    0    0 -0.58976836276E-01 -0.43878720111E-01 -0.27149873730E-01  0.78364443852E-01  0.51100000000E-03 0. -1.
</event>
<event>
 8    1  0.2846344E+004  0.1043930E+01  0.7957747E-01            NaN
         13   -1    0    0    0    0  0.00000000000E+00  0.00000000000E+00  0.74505805969E-08  0.10566000000E+00  0.10566000000E+00 0.  1.
     999900   -1    0    0    0    0 -0.00000000000E+00 -0.00000000000E+00 -0.74505805969E-08  0.93827000000E+00  0.93827000000E+00 0. -1.
     999902    2    1    2    0    0  0.10460385677E-01 -0.69165994739E-02  0.38235903369E-02  0.10308197422E+01  0.10307363688E+01 0.  0.
     999903    2    3    3    0    0  0.32580426792E-01  0.10278491476E-02  0.13014412806E+00  0.14148893269E+00  0.44934211023E-01 0.  0.
         14    1    1    2    0    0 -0.10460385677E-01  0.69165994739E-02 -0.38235903369E-02  0.13110257810E-01  0.00000000000E+00 0. -1.
     999901    1    3    3    0    0 -0.22120041115E-01 -0.79444486215E-02 -0.12632053772E+00  0.88933080950E+00  0.88000000000E+00 0. -1.
        -11    1    4    4    0    0  0.24384868753E-01  0.11378236379E-02  0.21495868110E-01  0.32530753658E-01  0.51100000000E-03 0. -1.
         11    1    4    4    0    0  0.81955580387E-02 -0.10997449035E-03  0.10864825995E+00  0.10895817903E+00  0.51100000000E-03 0.  1.
</event>
<event>
 8    1  0.2846344E+004  0.1043930E+01  0.7957747E-01            NaN
         13   -1    0    0    0    0  0.00000000000E+00  0.00000000000E+00  0.74505805969E-08  0.10566000000E+00  0.10566000000E+00 0. -1.
     999900   -1    0    0    0    0 -0.00000000000E+00 -0.00000000000E+00 -0.74505805969E-08  0.93827000000E+00  0.93827000000E+00 0.  1.
     999902    2    1    2    0    0 -0.95493325250E-02 -0.10272129858E-01 -0.76296081196E-02  0.10279638695E+01  0.10278398706E+01 0.  0.
     999903    2    3    3    0    0 -0.72823788424E-01  0.52922348325E-01 -0.96009772210E-01  0.13902728443E+00  0.44795427717E-01 0.  0.
         14    1    1    2    0    0  0.95493325250E-02  0.10272129858E-01  0.76296081196E-02  0.15966130513E-01  0.00000000000E+00 0. -1.
     999901    1    3    3    0    0  0.63274455899E-01 -0.63194478184E-01  0.88380164090E-01  0.88893658505E+00  0.88000000000E+00 0. -1.
        -11    1    4    4    0    0 -0.48457294631E-01  0.56334746530E-01 -0.60502737839E-01  0.95825651454E-01  0.51100000000E-03 0. -1.
         11    1    4    4    0    0 -0.24366493793E-01 -0.34123982046E-02 -0.35507034371E-01  0.43201632979E-01  0.51100000000E-03 0.  1.
</event>
<event>
 8    1  0.2846344E+004  0.1043930E+01  0.7957747E-01            NaN
         13   -1    0    0    0    0  0.00000000000E+00  0.00000000000E+00  0.74505805969E-08  0.10566000000E+00  0.10566000000E+00 0.  1.
     999900   -1    0    0    0    0 -0.00000000000E+00 -0.00000000000E+00 -0.74505805969E-08  0.93827000000E+00  0.93827000000E+00 0. -1.
     999902    2    1    2    0    0 -0.45577288203E-02 -0.12636499555E-01 -0.27115381311E-02  0.10302257506E+01  0.10301345983E+01 0.  0.
     999903    2    3    3    0    0 -0.25438131384E-01 -0.13117269121E+00 -0.16718516527E-01  0.14192230278E+00  0.44822514251E-01 0.  0.
         14    1    1    2    0    0  0.45577288203E-02  0.12636499555E-01  0.27115381311E-02  0.13704249415E-01  0.00000000000E+00 0.  1.
     999901    1    3    3    0    0  0.20880402563E-01  0.11853619165E+00  0.14006978395E-01  0.88830344781E+00  0.88000000000E+00 0.  1.
        -11    1    4    4    0    0 -0.17602134272E-01 -0.13919126634E-01 -0.88996225870E-02  0.24146254790E-01  0.51100000000E-03 0. -1.
         11    1    4    4    0    0 -0.78359971111E-02 -0.11725356457E+00 -0.78188939396E-02  0.11777604799E+00  0.51100000000E-03 0.  1.
</event>
<event>
 8    1  0.2846344E+004  0.1043930E+01  0.7957747E-01            NaN
         13   -1    0    0    0    0  0.00000000000E+00  0.00000000000E+00  0.74505805969E-08  0.10566000000E+00  0.10566000000E+00 0. -1.
     999900   -1    0    0    0    0 -0.00000000000E+00 -0.00000000000E+00 -0.74505805969E-08  0.93827000000E+00  0.93827000000E+00 0. -1.
     999902    2    1    2    0    0 -0.66392337091E-02  0.21029281310E-02 -0.92677928468E-02  0.10323371697E+01  0.10322720756E+01 0.  0.
     999903    2    3    3    0    0 -0.73199536013E-01 -0.10490067248E+00 -0.44211223103E-01  0.14267370087E+00  0.45153399788E-01 0.  0.
         14    1    1    2    0    0  0.66392337091E-02 -0.21029281310E-02  0.92677928468E-02  0.11592830337E-01  0.00000000000E+00 0.  1.
     999901    1    3    3    0    0  0.66560302303E-01  0.10700360061E+00  0.34943430257E-01  0.88966346879E+00  0.88000000000E+00 0. -1.
        -11    1    4    4    0    0 -0.40151110913E-03 -0.82900671654E-02  0.74224311788E-02  0.11146301197E-01  0.51100000000E-03 0.  1.
         11    1    4    4    0    0 -0.72798024903E-01 -0.96610605315E-01 -0.51633654282E-01  0.13152739967E+00  0.51100000000E-03 0. -1.
</event>
<event>
 8    1  0.2846344E+004  0.1043930E+01  0.7957747E-01            NaN
         13   -1    0    0    0    0  0.00000000000E+00  0.00000000000E+00  0.74505805969E-08  0.10566000000E+00  0.10566000000E+00 0. -1.
     999900   -1    0    0    0    0 -0.00000000000E+00 -0.00000000000E+00 -0.74505805969E-08  0.93827000000E+00  0.93827000000E+00 0. -1.
     999902    2    1    2    0    0 -0.51317079588E-02 -0.43030905909E-02 -0.12015289549E-01  0.10301743394E+01  0.10300824974E+01 0.  0.
     999903    2    3    3    0    0  0.95831206174E-01 -0.53924643121E-01 -0.75695213025E-01  0.14073016401E+00  0.44539045513E-01 0.  0.
         14    1    1    2    0    0  0.51317079588E-02  0.43030905909E-02  0.12015289549E-01  0.13755660586E-01  0.00000000000E+00 0.  1.
     999901    1    3    3    0    0 -0.10096291413E+00  0.49621552530E-01  0.63679923476E-01  0.88944417540E+00  0.88000000000E+00 0.  1.
        -11    1    4    4    0    0  0.56534150061E-01 -0.36478547860E-01 -0.70441353503E-01  0.97411703514E-01  0.51100000000E-03 0. -1.
         11    1    4    4    0    0  0.39297056113E-01 -0.17446095260E-01 -0.52538595217E-02  0.43318460497E-01  0.51100000000E-03 0.  1.
</event>
<event>
 8    1  0.2846344E+004  0.1043930E+01  0.7957747E-01            NaN
         13   -1    0    0    0    0  0.00000000000E+00  0.00000000000E+00  0.74505805969E-08  0.10566000000E+00  0.10566000000E+00 0. -1.
     999900   -1    0    0    0    0 -0.00000000000E+00 -0.00000000000E+00 -0.74505805969E-08  0.93827000000E+00  0.93827000000E+00 0.  1.
     999902    2    1    2    0    0 -0.26562988144E-03 -0.45279973514E-02 -0.12697602985E-01  0.10304465865E+01  0.10303583673E+01 0.  0.
     999903    2    3    3    0    0 -0.13165178203E+00  0.15674483176E-01  0.10207870815E-01  0.14016847152E+00  0.44329658799E-01 0.  0.
         14    1    1    2    0    0  0.26562988144E-03  0.45279973514E-02  0.12697602985E-01  0.13483413545E-01  0.00000000000E+00 0. -1.
     999901    1    3    3    0    0  0.13138615215E+00 -0.20202480527E-01 -0.22905473800E-01  0.89027811493E+00  0.88000000000E+00 0.  1.
        -11    1    4    4    0    0 -0.39801799287E-01 -0.14785461370E-01  0.89222757531E-02  0.43389644156E-01  0.51100000000E-03 0.  1.
         11    1    4    4    0    0 -0.91849982740E-01  0.30459944546E-01  0.12855950620E-02  0.96778827368E-01  0.51100000000E-03 0. -1.
</event>
<event>
 8    1  0.2846344E+004  0.1043930E+01  0.7957747E-01            NaN
         13   -1    0    0    0    0  0.00000000000E+00  0.00000000000E+00  0.74505805969E-08  0.10566000000E+00  0.10566000000E+00 0.  1.
     999900   -1    0    0    0    0 -0.00000000000E+00 -0.00000000000E+00 -0.74505805969E-08  0.93827000000E+00  0.93827000000E+00 0.  1.
     999902    2    1    2    0    0  0.78022091259E-02  0.74618963455E-02 -0.88670573995E-02  0.10299593496E+01  0.10298645944E+01 0.  0.
     999903    2    3    3    0    0 -0.44659336422E-01  0.11086302085E+00 -0.60018002307E-01  0.14088093608E+00  0.44274279527E-01 0.  0.
         14    1    1    2    0    0 -0.78022091259E-02 -0.74618963455E-02  0.88670573995E-02  0.13970650351E-01  0.00000000000E+00 0.  1.
     999901    1    3    3    0    0  0.52461545547E-01 -0.10340112451E+00  0.51150944908E-01  0.88907841357E+00  0.88000000000E+00 0. -1.
        -11    1    4    4    0    0 -0.46078963355E-01  0.10356347014E+00 -0.41145379124E-01  0.12058966189E+00  0.51100000000E-03 0.  1.
         11    1    4    4    0    0  0.14196269332E-02  0.72995507100E-02 -0.18872623184E-01  0.20291274185E-01  0.51100000000E-03 0. -1.
</event>
<event>
 8    1  0.2846344E+004  0.1043930E+01  0.7957747E-01            NaN
         13   -1    0    0    0    0  0.00000000000E+00  0.00000000000E+00  0.74505805969E-08  0.10566000000E+00  0.10566000000E+00 0.  1.
     999900   -1    0    0    0    0 -0.00000000000E+00 -0.00000000000E+00 -0.74505805969E-08  0.93827000000E+00  0.93827000000E+00 0. -1.
     999902    2    1    2    0    0 -0.26668028993E-02 -0.81427741817E-02 -0.11795276199E-01  0.10293510717E+01  0.10292478242E+01 0.  0.
     999903    2    3    3    0    0 -0.10140703798E+00 -0.85611352605E-01 -0.22332944834E-03  0.14037136182E+00  0.45731589704E-01 0.  0.
         14    1    1    2    0    0  0.26668028993E-02  0.81427741817E-02  0.11795276199E-01  0.14578928277E-01  0.00000000000E+00 0.  1.
     999901    1    3    3    0    0  0.98740235080E-01  0.77468578423E-01 -0.11571946751E-01  0.88897970990E+00  0.88000000000E+00 0. -1.
        -11    1    4    4    0    0 -0.82280035836E-01 -0.65148870689E-01  0.18646636514E-01  0.10659426731E+00  0.51100000000E-03 0. -1.
         11    1    4    4    0    0 -0.19127002144E-01 -0.20462481916E-01 -0.18869965962E-01  0.33777094511E-01  0.51100000000E-03 0.  1.
</event>
<event>
 8    1  0.2846344E+004  0.1043930E+01  0.7957747E-01            NaN
         13   -1    0    0    0    0  0.00000000000E+00  0.00000000000E+00  0.74505805969E-08  0.10566000000E+00  0.10566000000E+00 0.  1.
     999900   -1    0    0    0    0 -0.00000000000E+00 -0.00000000000E+00 -0.74505805969E-08  0.93827000000E+00  0.93827000000E+00 0.  1.
     999902    2    1    2    0    0  0.17551892731E-02  0.26809002418E-02 -0.13377495639E-01  0.10301740811E+01  0.10300822356E+01 0.  0.
     999903    2    3    3    0    0 -0.76696555557E-01 -0.86004037128E-01  0.63233162389E-01  0.13894521749E+00  0.45036480793E-01 0.  0.
         14    1    1    2    0    0 -0.17551892731E-02 -0.26809002418E-02  0.13377495639E-01  0.13755918910E-01  0.00000000000E+00 0.  1.
     999901    1    3    3    0    0  0.78451744830E-01  0.88684937369E-01 -0.76610658028E-01  0.89122886360E+00  0.88000000000E+00 0.  1.
        -11    1    4    4    0    0  0.27395421976E-02 -0.11806526591E-01  0.16851249833E-01  0.20763547470E-01  0.51100000000E-03 0.  1.
         11    1    4    4    0    0 -0.79436097754E-01 -0.74197510537E-01  0.46381912556E-01  0.11818167002E+00  0.51100000000E-03 0. -1.
</event>
<event>
 8    1  0.2846344E+004  0.1043930E+01  0.7957747E-01            NaN
         13   -1    0    0    0    0  0.00000000000E+00  0.00000000000E+00  0.74505805969E-08  0.10566000000E+00  0.10566000000E+00 0. -1.
     999900   -1    0    0    0    0 -0.00000000000E+00 -0.00000000000E+00 -0.74505805969E-08  0.93827000000E+00  0.93827000000E+00 0.  1.
     999902    2    1    2    0    0 -0.10634132362E-01  0.81029101319E-02  0.17552429429E-02  0.10304458315E+01  0.10303576024E+01 0.  0.
     999903    2    3    3    0    0  0.87585305066E-01  0.18370580710E-01  0.97602664961E-01  0.13974991743E+00  0.44666489839E-01 0.  0.
         14    1    1    2    0    0  0.10634132362E-01 -0.81029101319E-02 -0.17552429429E-02  0.13484168550E-01  0.00000000000E+00 0. -1.
     999901    1    3    3    0    0 -0.98219437427E-01 -0.10267670578E-01 -0.95847422018E-01  0.89069591402E+00  0.88000000000E+00 0.  1.
        -11    1    4    4    0    0  0.25801582186E-01  0.26777387388E-01  0.29998883461E-01  0.47780165849E-01  0.51100000000E-03 0.  1.
         11    1    4    4    0    0  0.61783722879E-01 -0.84068066786E-02  0.67603781500E-01  0.91969751579E-01  0.51100000000E-03 0. -1.
</event>
<event>
 8    1  0.2846344E+004  0.1043930E+01  0.7957747E-01            NaN
         13   -1    0    0    0    0  0.00000000000E+00  0.00000000000E+00  0.74505805969E-08  0.10566000000E+00  0.10566000000E+00 0. -1.
     999900   -1    0    0    0    0 -0.00000000000E+00 -0.00000000000E+00 -0.74505805969E-08  0.93827000000E+00  0.93827000000E+00 0.  1.
     999902    2    1    2    0    0  0.29170751931E-02 -0.11122940191E-01 -0.48187575086E-02  0.10314620591E+01  0.10313867024E+01 0.  0.
     999903    2    3    3    0    0  0.38295745342E-01 -0.12826113233E+00  0.24687868768E-01  0.14250556560E+00  0.42200274675E-01 0.  0.
         14    1    1    2    0    0 -0.29170751931E-02  0.11122940191E-01  0.48187575086E-02  0.12467940893E-01  0.00000000000E+00 0. -1.
     999901    1    3    3    0    0 -0.35378670149E-01  0.11713819214E+00 -0.29506626277E-01  0.88895649351E+00  0.88000000000E+00 0.  1.
        -11    1    4    4    0    0  0.33845158377E-01 -0.56413636106E-01  0.25379940815E-01  0.70515215387E-01  0.51100000000E-03 0.  1.
         11    1    4    4    0    0  0.44505869652E-02 -0.71847496228E-01 -0.69207204658E-03  0.71990350210E-01  0.51100000000E-03 0. -1.
</event>
<event>
 8    1  0.2846344E+004  0.1043930E+01  0.7957747E-01            NaN
         13   -1    0    0    0    0  0.00000000000E+00  0.00000000000E+00  0.74505805969E-08  0.10566000000E+00  0.10566000000E+00 0. -1.
     999900   -1    0    0    0    0 -0.00000000000E+00 -0.00000000000E+00 -0.74505805969E-08  0.93827000000E+00  0.93827000000E+00 0.  1.
     999902    2    1    2    0    0 -0.55196415159E-02  0.11949327820E-01 -0.35188750541E-02  0.10303051932E+01  0.10302151017E+01 0.  0.
     999903    2    3    3    0    0  0.40605080178E-01  0.50690435928E-02 -0.12509022762E+00  0.14072415587E+00  0.49812199918E-01 0.  0.
         14    1    1    2    0    0  0.55196415159E-02 -0.11949327820E-01  0.35188750541E-02  0.13624806768E-01  0.00000000000E+00 0.  1.
     999901    1    3    3    0    0 -0.46124721694E-01  0.68802842275E-02  0.12157135257E+00  0.88958103736E+00  0.88000000000E+00 0. -1.
        -11    1    4    4    0    0  0.19105920930E-02 -0.18085120419E-01 -0.24761453081E-01  0.30726415710E-01  0.51100000000E-03 0. -1.
         11    1    4    4    0    0  0.38694488086E-01  0.23154164011E-01 -0.10032877454E+00  0.10999774016E+00  0.51100000000E-03 0.  1.
</event>
<event>
 8    1  0.2846344E+004  0.1043930E+01  0.7957747E-01            NaN
         13   -1    0    0    0    0  0.00000000000E+00  0.00000000000E+00  0.74505805969E-08  0.10566000000E+00  0.10566000000E+00 0. -1.
     999900   -1    0    0    0    0 -0.00000000000E+00 -0.00000000000E+00 -0.74505805969E-08  0.93827000000E+00  0.93827000000E+00 0. -1.
     999902    2    1    2    0    0  0.76355754892E-02 -0.78764924288E-02  0.86222898656E-02  0.10299770423E+01  0.10298825286E+01 0.  0.
     999903    2    3    3    0    0  0.99051588062E-01  0.35520715111E-01 -0.80029673172E-01  0.13975270230E+00  0.45311487649E-01 0.  0.
         14    1    1    2    0    0 -0.76355754892E-02  0.78764924288E-02 -0.86222898656E-02  0.13952957699E-01  0.00000000000E+00 0. -1.
     999901    1    3    3    0    0 -0.91416012573E-01 -0.43397207540E-01  0.88651963038E-01  0.89022434000E+00  0.88000000000E+00 0.  1.
        -11    1    4    4    0    0  0.34887410830E-01  0.20215230373E-01 -0.62884623786E-02  0.40811675456E-01  0.51100000000E-03 0.  1.
         11    1    4    4    0    0  0.64164177232E-01  0.15305484738E-01 -0.73741210793E-01  0.98941026845E-01  0.51100000000E-03 0. -1.
</event>
<event>
 8    1  0.2846344E+004  0.1043930E+01  0.7957747E-01            NaN
         13   -1    0    0    0    0  0.00000000000E+00  0.00000000000E+00  0.74505805969E-08  0.10566000000E+00  0.10566000000E+00 0. -1.
     999900   -1    0    0    0    0 -0.00000000000E+00 -0.00000000000E+00 -0.74505805969E-08  0.93827000000E+00  0.93827000000E+00 0. -1.
     999902    2    1    2    0    0  0.12933091355E-01 -0.33038005819E-02 -0.24186850054E-01  0.10163042210E+01  0.10159286815E+01 0.  0.
     999903    2    3    3    0    0  0.22281404393E-01  0.65849663146E-01  0.93856086553E-01  0.12568436528E+00  0.46421499061E-01 0.  0.
         14    1    1    2    0    0 -0.12933091355E-01  0.33038005819E-02  0.24186850054E-01  0.27625779008E-01  0.00000000000E+00 0. -1.
     999901    1    3    3    0    0 -0.93483130378E-02 -0.69153463728E-01 -0.11804293661E+00  0.89061985571E+00  0.88000000000E+00 0. -1.
        -11    1    4    4    0    0  0.15256428648E-01  0.32985530541E-03  0.31289653689E-01  0.34816245756E-01  0.51100000000E-03 0. -1.
         11    1    4    4    0    0  0.70249757445E-02  0.65519807841E-01  0.62566432865E-01  0.90868119525E-01  0.51100000000E-03 0.  1.
</event>
<event>
 8    1  0.2846344E+004  0.1043930E+01  0.7957747E-01            NaN
         13   -1    0    0    0    0  0.00000000000E+00  0.00000000000E+00  0.74505805969E-08  0.10566000000E+00  0.10566000000E+00 0. -1.
     999900   -1    0    0    0    0 -0.00000000000E+00 -0.00000000000E+00 -0.74505805969E-08  0.93827000000E+00  0.93827000000E+00 0. -1.
     999902    2    1    2    0    0  0.42219138870E-02  0.13371995515E-01 -0.67662914215E-02  0.10283602370E+01  0.10282423642E+01 0.  0.
     999903    2    3    3    0    0  0.12217278301E+00 -0.44453684527E-01 -0.13368226554E-01  0.13858509553E+00  0.46095555571E-01 0.  0.
         14    1    1    2    0    0 -0.42219138870E-02 -0.13371995515E-01  0.67662914215E-02  0.15569763021E-01  0.00000000000E+00 0. -1.
     999901    1    3    3    0    0 -0.11795086913E+00  0.57825680042E-01  0.66019351321E-02  0.88977514145E+00  0.88000000000E+00 0. -1.
        -11    1    4    4    0    0  0.38027037053E-01 -0.36107646811E-01 -0.12981413098E-01  0.54024030877E-01  0.51100000000E-03 0. -1.
         11    1    4    4    0    0  0.84145745961E-01 -0.83460377164E-02 -0.38681345597E-03  0.84561064649E-01  0.51100000000E-03 0.  1.
</event>
<event>
 8    1  0.2846344E+004  0.1043930E+01  0.7957747E-01            NaN
         13   -1    0    0    0    0  0.00000000000E+00  0.00000000000E+00  0.74505805969E-08  0.10566000000E+00  0.10566000000E+00 0.  1.
     999900   -1    0    0    0    0 -0.00000000000E+00 -0.00000000000E+00 -0.74505805969E-08  0.93827000000E+00  0.93827000000E+00 0. -1.
     999902    2    1    2    0    0  0.49040103147E-02  0.50942504006E-02 -0.11825839553E-01  0.10301513504E+01  0.10300591990E+01 0.  0.
     999903    2    3    3    0    0 -0.83999669033E-01  0.34304984590E-01 -0.97854310011E-01  0.14101804827E+00  0.45583413470E-01 0.  0.
         14    1    1    2    0    0 -0.49040103147E-02 -0.50942504006E-02  0.11825839553E-01  0.13778649623E-01  0.00000000000E+00 0.  1.
     999901    1    3    3    0    0  0.88903679348E-01 -0.29210734189E-01  0.86028470458E-01  0.88913330211E+00  0.88000000000E+00 0. -1.
        -11    1    4    4    0    0 -0.43867537170E-01  0.78304975686E-03 -0.67635989406E-01  0.80621722682E-01  0.51100000000E-03 0. -1.
         11    1    4    4    0    0 -0.40132131863E-01  0.33521934833E-01 -0.30218320605E-01  0.60396325584E-01  0.51100000000E-03 0.  1.
</event>
<event>
 8    1  0.2846344E+004  0.1043930E+01  0.7957747E-01            NaN
         13   -1    0    0    0    0  0.00000000000E+00  0.00000000000E+00  0.74505805969E-08  0.10566000000E+00  0.10566000000E+00 0. -1.
     999900   -1    0    0    0    0 -0.00000000000E+00 -0.00000000000E+00 -0.74505805969E-08  0.93827000000E+00  0.93827000000E+00 0. -1.
     999902    2    1    2    0    0 -0.86042079353E-02  0.64376596423E-02 -0.98298937087E-02  0.10293662551E+01  0.10292632241E+01 0.  0.
     999903    2    3    3    0    0 -0.24304075388E-01  0.81249293603E-01  0.10056978383E+00  0.13918011993E+00  0.45438844313E-01 0.  0.
         14    1    1    2    0    0  0.86042079353E-02 -0.64376596423E-02  0.98298937087E-02  0.14563744923E-01  0.00000000000E+00 0.  1.
     999901    1    3    3    0    0  0.15699867453E-01 -0.74811633960E-01 -0.11039967754E+00  0.89018613515E+00  0.88000000000E+00 0. -1.
        -11    1    4    4    0    0  0.81972873996E-02  0.50087806857E-01  0.59797629814E-01  0.78434696206E-01  0.51100000000E-03 0. -1.
         11    1    4    4    0    0 -0.32501362788E-01  0.31161486746E-01  0.40772154012E-01  0.60745423721E-01  0.51100000000E-03 0.  1.
</event>
<event>
 8    1  0.2846344E+004  0.1043930E+01  0.7957747E-01            NaN
         13   -1    0    0    0    0  0.00000000000E+00  0.00000000000E+00  0.74505805969E-08  0.10566000000E+00  0.10566000000E+00 0. -1.
     999900   -1    0    0    0    0 -0.00000000000E+00 -0.00000000000E+00 -0.74505805969E-08  0.93827000000E+00  0.93827000000E+00 0.  1.
     999902    2    1    2    0    0 -0.68775728994E-04  0.40674271598E-02  0.12906432329E-01  0.10303976429E+01  0.10303087779E+01 0.  0.
     999903    2    3    3    0    0 -0.51670525085E-01 -0.92952161295E-01  0.80456726324E-01  0.14099414429E+00  0.45783364466E-01 0.  0.
         14    1    1    2    0    0  0.68775728994E-04 -0.40674271598E-02 -0.12906432329E-01  0.13532357121E-01  0.00000000000E+00 0.  1.
     999901    1    3    3    0    0  0.51601749356E-01  0.97019588454E-01 -0.67550293995E-01  0.88940349859E+00  0.88000000000E+00 0. -1.
        -11    1    4    4    0    0 -0.25637386727E-01 -0.39592759614E-01  0.88844595642E-02  0.48000593276E-01  0.51100000000E-03 0. -1.
         11    1    4    4    0    0 -0.26033138358E-01 -0.53359401681E-01  0.71572266759E-01  0.92993551016E-01  0.51100000000E-03 0.  1.
</event>
<event>
 8    1  0.2846344E+004  0.1043930E+01  0.7957747E-01            NaN
         13   -1    0    0    0    0  0.00000000000E+00  0.00000000000E+00  0.74505805969E-08  0.10566000000E+00  0.10566000000E+00 0. -1.
     999900   -1    0    0    0    0 -0.00000000000E+00 -0.00000000000E+00 -0.74505805969E-08  0.93827000000E+00  0.93827000000E+00 0.  1.
     999902    2    1    2    0    0  0.11386024590E-01 -0.31181062414E-02 -0.71088319250E-02  0.10301495924E+01  0.10300574174E+01 0.  0.
     999903    2    3    3    0    0  0.38063719238E-01  0.10848355894E+00 -0.67201298887E-01  0.14066786934E+00  0.45320035413E-01 0.  0.
         14    1    1    2    0    0 -0.11386024590E-01  0.31181062414E-02  0.71088319250E-02  0.13780407608E-01  0.00000000000E+00 0. -1.
     999901    1    3    3    0    0 -0.26677694648E-01 -0.11160166518E+00  0.60092466962E-01  0.88948172305E+00  0.88000000000E+00 0.  1.
        -11    1    4    4    0    0  0.10478325881E-01  0.74894638198E-01 -0.60155276345E-01  0.96632916427E-01  0.51100000000E-03 0.  1.
         11    1    4    4    0    0  0.27585393358E-01  0.33588920740E-01 -0.70460225420E-02  0.44034952910E-01  0.51100000000E-03 0. -1.
</event>
<event>
 8    1  0.2846344E+004  0.1043930E+01  0.7957747E-01            NaN
         13   -1    0    0    0    0  0.00000000000E+00  0.00000000000E+00  0.74505805969E-08  0.10566000000E+00  0.10566000000E+00 0. -1.
     999900   -1    0    0    0    0 -0.00000000000E+00 -0.00000000000E+00 -0.74505805969E-08  0.93827000000E+00  0.93827000000E+00 0.  1.
     999902    2    1    2    0    0 -0.15176494334E-03  0.26654826853E-01  0.20949177078E-02  0.10171925449E+01  0.10168410799E+01 0.  0.
     999903    2    3    3    0    0  0.25585565542E-01  0.97666876704E-01  0.69597713081E-01  0.13138119430E+00  0.47156511527E-01 0.  0.
         14    1    1    2    0    0  0.15176494334E-03 -0.26654826853E-01 -0.20949177078E-02  0.26737455140E-01  0.00000000000E+00 0. -1.
     999901    1    3    3    0    0 -0.25737330485E-01 -0.71012049851E-01 -0.67502795373E-01  0.88581135056E+00  0.88000000000E+00 0.  1.
        -11    1    4    4    0    0  0.33028273476E-01  0.42809117777E-01  0.46785869550E-01  0.71502909901E-01  0.51100000000E-03 0.  1.
         11    1    4    4    0    0 -0.74427079346E-02  0.54857758927E-01  0.22811843531E-01  0.59878284395E-01  0.51100000000E-03 0. -1.
</event>
<event>
 8    1  0.2846344E+004  0.1043930E+01  0.7957747E-01            NaN
         13   -1    0    0    0    0  0.00000000000E+00  0.00000000000E+00  0.74505805969E-08  0.10566000000E+00  0.10566000000E+00 0. -1.
     999900   -1    0    0    0    0 -0.00000000000E+00 -0.00000000000E+00 -0.74505805969E-08  0.93827000000E+00  0.93827000000E+00 0. -1.
     999902    2    1    2    0    0  0.10400667668E-01  0.69313392855E-02 -0.66603627429E-02  0.10297674514E+01  0.10296700569E+01 0.  0.
     999903    2    3    3    0    0  0.97651127032E-01 -0.16758818546E-01 -0.90328224295E-01  0.14118758590E+00  0.44250940083E-01 0.  0.
         14    1    1    2    0    0 -0.10400667668E-01 -0.69313392855E-02  0.66603627429E-02  0.14162548644E-01  0.00000000000E+00 0. -1.
     999901    1    3    3    0    0 -0.87250459364E-01  0.23690157832E-01  0.83667861552E-01  0.88857986546E+00  0.88000000000E+00 0.  1.
        -11    1    4    4    0    0  0.90967122795E-01 -0.33838682943E-02 -0.65306169238E-01  0.11203403436E+00  0.51100000000E-03 0.  1.
         11    1    4    4    0    0  0.66840042366E-02 -0.13374950252E-01 -0.25022055057E-01  0.29153551536E-01  0.51100000000E-03 0. -1.
</event>
<event>
 8    1  0.2846344E+004  0.1043930E+01  0.7957747E-01            NaN
         13   -1    0    0    0    0  0.00000000000E+00  0.00000000000E+00  0.74505805969E-08  0.10566000000E+00  0.10566000000E+00 0. -1.
     999900   -1    0    0    0    0 -0.00000000000E+00 -0.00000000000E+00 -0.74505805969E-08  0.93827000000E+00  0.93827000000E+00 0.  1.
     999902    2    1    2    0    0  0.11124390792E-01  0.11227334021E-01 -0.11234501511E-02  0.10280848986E+01  0.10279627870E+01 0.  0.
     999903    2    3    3    0    0  0.22234019635E-01 -0.91457612295E-01 -0.90651564770E-01  0.13753287572E+00  0.42880522783E-01 0.  0.
         14    1    1    2    0    0 -0.11124390792E-01 -0.11227334021E-01  0.11234501511E-02  0.15845101449E-01  0.00000000000E+00 0.  1.
     999901    1    3    3    0    0 -0.11109628843E-01  0.10268494632E+00  0.89528114619E-01  0.89055202283E+00  0.88000000000E+00 0. -1.
        -11    1    4    4    0    0 -0.11889833709E-01 -0.39581862173E-01 -0.36633475522E-01  0.55230105998E-01  0.51100000000E-03 0.  1.
         11    1    4    4    0    0  0.34123853344E-01 -0.51875750122E-01 -0.54018089248E-01  0.82302769727E-01  0.51100000000E-03 0. -1.
</event>
<event>
 8    1  0.2846344E+004  0.1043930E+01  0.7957747E-01            NaN
         13   -1    0    0    0    0  0.00000000000E+00  0.00000000000E+00  0.74505805969E-08  0.10566000000E+00  0.10566000000E+00 0. -1.
     999900   -1    0    0    0    0 -0.00000000000E+00 -0.00000000000E+00 -0.74505805969E-08  0.93827000000E+00  0.93827000000E+00 0. -1.
     999902    2    1    2    0    0  0.30078563237E-02  0.14770890745E-01  0.24731096753E-02  0.10286544416E+01  0.10285410140E+01 0.  0.
     999903    2    3    3    0    0 -0.25025367509E-01 -0.10786976540E+00 -0.66558992862E-01  0.13703118968E+00  0.45664998710E-01 0.  0.
         14    1    1    2    0    0 -0.30078563237E-02 -0.14770890745E-01 -0.24731096753E-02  0.15275558403E-01  0.00000000000E+00 0.  1.
     999901    1    3    3    0    0  0.28033223833E-01  0.12264065615E+00  0.69032102537E-01  0.89162325192E+00  0.88000000000E+00 0.  1.
        -11    1    4    4    0    0 -0.22932733375E-01 -0.17634148622E-01 -0.22139348526E-01  0.36431927369E-01  0.51100000000E-03 0.  1.
         11    1    4    4    0    0 -0.20926341339E-02 -0.90235616781E-01 -0.44419644336E-01  0.10059926231E+00  0.51100000000E-03 0. -1.
</event>
<event>
 8    1  0.2846344E+004  0.1043930E+01  0.7957747E-01            NaN
         13   -1    0    0    0    0  0.00000000000E+00  0.00000000000E+00  0.74505805969E-08  0.10566000000E+00  0.10566000000E+00 0.  1.
     999900   -1    0    0    0    0 -0.00000000000E+00 -0.00000000000E+00 -0.74505805969E-08  0.93827000000E+00  0.93827000000E+00 0. -1.
     999902    2    1    2    0    0  0.36934270392E-02  0.13764312964E-01 -0.94091263345E-03  0.10296477372E+01  0.10295486776E+01 0.  0.
     999903    2    3    3    0    0 -0.13025252389E-02  0.13367383128E+00 -0.14550919787E-01  0.14139749968E+00  0.43716517556E-01 0.  0.
         14    1    1    2    0    0 -0.36934270392E-02 -0.13764312964E-01  0.94091263345E-03  0.14282262820E-01  0.00000000000E+00 0. -1.
     999901    1    3    3    0    0  0.49959522781E-02 -0.11990951832E+00  0.13610007154E-01  0.88825023750E+00  0.88000000000E+00 0.  1.
        -11    1    4    4    0    0  0.14168899028E-01  0.40298813820E-01  0.94489457614E-02  0.43752666112E-01  0.51100000000E-03 0.  1.
         11    1    4    4    0    0 -0.15471424266E-01  0.93375017464E-01 -0.23999865549E-01  0.97644833568E-01  0.51100000000E-03 0. -1.
</event>
<event>
 8    1  0.2846344E+004  0.1043930E+01  0.7957747E-01            NaN
         13   -1    0    0    0    0  0.00000000000E+00  0.00000000000E+00  0.74505805969E-08  0.10566000000E+00  0.10566000000E+00 0.  1.
     999900   -1    0    0    0    0 -0.00000000000E+00 -0.00000000000E+00 -0.74505805969E-08  0.93827000000E+00  0.93827000000E+00 0.  1.
     999902    2    1    2    0    0  0.38275648684E-02 -0.59308559697E-02  0.39996122776E-02  0.10358169116E+01  0.10357851380E+01 0.  0.
     999903    2    3    3    0    0  0.68221455127E-01 -0.10826360700E+00  0.54361868720E-01  0.14612318792E+00  0.44962181187E-01 0.  0.
         14    1    1    2    0    0 -0.38275648684E-02  0.59308559697E-02 -0.39996122776E-02  0.81130884210E-02  0.00000000000E+00 0.  1.
     999901    1    3    3    0    0 -0.64393890259E-01  0.10233275103E+00 -0.50362256442E-01  0.88969372365E+00  0.88000000000E+00 0.  1.
        -11    1    4    4    0    0  0.81047549812E-03 -0.38836538260E-01  0.16569784184E-01  0.42234493527E-01  0.51100000000E-03 0.  1.
         11    1    4    4    0    0  0.67410979629E-01 -0.69427068745E-01  0.37792084536E-01  0.10388869440E+00  0.51100000000E-03 0. -1.
</event>
<event>
 8    1  0.2846344E+004  0.1043930E+01  0.7957747E-01            NaN
         13   -1    0    0    0    0  0.00000000000E+00  0.00000000000E+00  0.74505805969E-08  0.10566000000E+00  0.10566000000E+00 0. -1.
     999900   -1    0    0    0    0 -0.00000000000E+00 -0.00000000000E+00 -0.74505805969E-08  0.93827000000E+00  0.93827000000E+00 0.  1.
     999902    2    1    2    0    0  0.92455971580E-02 -0.65942795969E-02  0.67455587494E-02  0.10307213607E+01  0.10306367232E+01 0.  0.
     999903    2    3    3    0    0  0.90982021894E-02 -0.71013168634E-01 -0.11192144856E+00  0.14042271773E+00  0.45458570194E-01 0.  0.
         14    1    1    2    0    0 -0.92455971580E-02  0.65942795969E-02 -0.67455587494E-02  0.13208639334E-01  0.00000000000E+00 0.  1.
     999901    1    3    3    0    0  0.14739496864E-03  0.64418889037E-01  0.11866700731E+00  0.89029864294E+00  0.88000000000E+00 0. -1.
        -11    1    4    4    0    0  0.20884226667E-01 -0.21789466047E-01 -0.22426857074E-01  0.37605276136E-01  0.51100000000E-03 0.  1.
         11    1    4    4    0    0 -0.11786024477E-01 -0.49223702587E-01 -0.89494591488E-01  0.10281744159E+00  0.51100000000E-03 0. -1.
</event>
<event>
 8    1  0.2846344E+004  0.1043930E+01  0.7957747E-01            NaN
         13   -1    0    0    0    0  0.00000000000E+00  0.00000000000E+00  0.74505805969E-08  0.10566000000E+00  0.10566000000E+00 0.  1.
     999900   -1    0    0    0    0 -0.00000000000E+00 -0.00000000000E+00 -0.74505805969E-08  0.93827000000E+00  0.93827000000E+00 0.  1.
     999902    2    1    2    0    0 -0.63758154991E-02 -0.11000923559E-01 -0.35086496740E-03  0.10312101553E+01  0.10311317035E+01 0.  0.
     999903    2    3    3    0    0  0.18766076813E-01  0.40369493421E-01  0.12547772479E+00  0.14042181430E+00  0.44629193080E-01 0.  0.
         14    1    1    2    0    0  0.63758154991E-02  0.11000923559E-01  0.35086496740E-03  0.12719844679E-01  0.00000000000E+00 0. -1.
     999901    1    3    3    0    0 -0.25141892312E-01 -0.51370416980E-01 -0.12582858976E+00  0.89078834102E+00  0.88000000000E+00 0.  1.
        -11    1    4    4    0    0 -0.10982054904E-02  0.34161302853E-01  0.40821164332E-01  0.53243114544E-01  0.51100000000E-03 0. -1.
         11    1    4    4    0    0  0.19864282303E-01  0.62081905677E-02  0.84656560463E-01  0.87178699761E-01  0.51100000000E-03 0.  1.
</event>
<event>
 8    1  0.2846344E+004  0.1043930E+01  0.7957747E-01            NaN
         13   -1    0    0    0    0  0.00000000000E+00  0.00000000000E+00  0.74505805969E-08  0.10566000000E+00  0.10566000000E+00 0.  1.
     999900   -1    0    0    0    0 -0.00000000000E+00 -0.00000000000E+00 -0.74505805969E-08  0.93827000000E+00  0.93827000000E+00 0.  1.
     999902    2    1    2    0    0  0.80334852656E-02 -0.96459202853E-02  0.82654822871E-02  0.10289000678E+01  0.10287902851E+01 0.  0.
     999903    2    3    3    0    0 -0.14991829716E-01 -0.13124531896E+00 -0.10398607188E-01  0.14004410249E+00  0.45322520922E-01 0.  0.
         14    1    1    2    0    0 -0.80334852656E-02  0.96459202853E-02 -0.82654822871E-02  0.15029932172E-01  0.00000000000E+00 0. -1.
     999901    1    3    3    0    0  0.23025314981E-01  0.12159939867E+00  0.18664089475E-01  0.88885596534E+00  0.88000000000E+00 0.  1.
        -11    1    4    4    0    0 -0.31128707284E-01 -0.92987151178E-01 -0.93546245818E-02  0.98505719750E-01  0.51100000000E-03 0.  1.
         11    1    4    4    0    0  0.16136877569E-01 -0.38258167781E-01 -0.10439826058E-02  0.41538382736E-01  0.51100000000E-03 0. -1.
</event>
<event>
 8    1  0.2846344E+004  0.1043930E+01  0.7957747E-01            NaN
         13   -1    0    0    0    0  0.00000000000E+00  0.00000000000E+00  0.74505805969E-08  0.10566000000E+00  0.10566000000E+00 0. -1.
     999900   -1    0    0    0    0 -0.00000000000E+00 -0.00000000000E+00 -0.74505805969E-08  0.93827000000E+00  0.93827000000E+00 0.  1.
     999902    2    1    2    0    0  0.41804083006E-02 -0.12192970864E-01  0.43423286122E-02  0.10303285232E+01  0.10302387421E+01 0.  0.
     999903    2    3    3    0    0  0.54524216563E-01  0.11786794135E+00 -0.21130937746E-01  0.13898166191E+00  0.44762082474E-01 0.  0.
         14    1    1    2    0    0 -0.41804083006E-02  0.12192970864E-01 -0.43423286122E-02  0.13601476752E-01  0.00000000000E+00 0.  1.
     999901    1    3    3    0    0 -0.50343808263E-01 -0.13006091222E+00  0.25473266358E-01  0.89134686134E+00  0.88000000000E+00 0. -1.
        -11    1    4    4    0    0  0.23046191118E-01  0.41216583794E-01  0.13582954985E-01  0.49139510496E-01  0.51100000000E-03 0. -1.
         11    1    4    4    0    0  0.31478025446E-01  0.76651357556E-01 -0.34713892731E-01  0.89842151414E-01  0.51100000000E-03 0.  1.
</event>
<event>
 8    1  0.2846344E+004  0.1043930E+01  0.7957747E-01            NaN
         13   -1    0    0    0    0  0.00000000000E+00  0.00000000000E+00  0.74505805969E-08  0.10566000000E+00  0.10566000000E+00 0.  1.
     999900   -1    0    0    0    0 -0.00000000000E+00 -0.00000000000E+00 -0.74505805969E-08  0.93827000000E+00  0.93827000000E+00 0.  1.
     999902    2    1    2    0    0 -0.10390462881E-01  0.63448332028E-02 -0.70639116625E-02  0.10298545790E+01  0.10297583874E+01 0.  0.
     999903    2    3    3    0    0  0.72764976131E-02 -0.10100683748E+00  0.83471482694E-01  0.13854477862E+00  0.44405389590E-01 0.  0.
         14    1    1    2    0    0  0.10390462881E-01 -0.63448332028E-02  0.70639116625E-02  0.14075420961E-01  0.00000000000E+00 0.  1.
     999901    1    3    3    0    0 -0.17666960494E-01  0.10735167068E+00 -0.90535394356E-01  0.89130980042E+00  0.88000000000E+00 0.  1.
        -11    1    4    4    0    0  0.16302338086E-01 -0.93571050345E-01  0.60081512685E-01  0.11238930989E+00  0.51100000000E-03 0.  1.
         11    1    4    4    0    0 -0.90258404732E-02 -0.74357871355E-02  0.23389970009E-01  0.26155468732E-01  0.51100000000E-03 0. -1.
</event>
<event>
 8    1  0.2846344E+004  0.1043930E+01  0.7957747E-01            NaN
         13   -1    0    0    0    0  0.00000000000E+00  0.00000000000E+00  0.74505805969E-08  0.10566000000E+00  0.10566000000E+00 0. -1.
     999900   -1    0    0    0    0 -0.00000000000E+00 -0.00000000000E+00 -0.74505805969E-08  0.93827000000E+00  0.93827000000E+00 0.  1.
     999902    2    1    2    0    0 -0.93494576318E-03 -0.69538363192E-02 -0.14324762712E-01  0.10279791759E+01  0.10278554165E+01 0.  0.
     999903    2    3    3    0    0  0.52884519237E-01  0.67755612654E-01 -0.10045335905E+00  0.13899314018E+00  0.42902450408E-01 0.  0.
         14    1    1    2    0    0  0.93494576318E-03  0.69538363192E-02  0.14324762712E-01  0.15950824113E-01  0.00000000000E+00 0. -1.
     999901    1    3    3    0    0 -0.53819465000E-01 -0.74709448973E-01  0.86128596337E-01  0.88898603571E+00  0.88000000000E+00 0. -1.
        -11    1    4    4    0    0  0.46631429579E-01  0.26096300391E-01 -0.49111949787E-01  0.72579279767E-01  0.51100000000E-03 0. -1.
         11    1    4    4    0    0  0.62530896580E-02  0.41659312263E-01 -0.51341409263E-01  0.66413860410E-01  0.51100000000E-03 0.  1.
</event>
<event>
 8    1  0.2846344E+004  0.1043930E+01  0.7957747E-01            NaN
         13   -1    0    0    0    0  0.00000000000E+00  0.00000000000E+00  0.74505805969E-08  0.10566000000E+00  0.10566000000E+00 0.  1.
     999900   -1    0    0    0    0 -0.00000000000E+00 -0.00000000000E+00 -0.74505805969E-08  0.93827000000E+00  0.93827000000E+00 0. -1.
     999902    2    1    2    0    0 -0.91433533618E-02 -0.24456978063E-02 -0.10470912464E-01  0.10298153850E+01  0.10297186532E+01 0.  0.
     999903    2    3    3    0    0  0.32770214392E-01  0.91232616249E-01 -0.91018767596E-01  0.14019730367E+00  0.44425113193E-01 0.  0.
         14    1    1    2    0    0  0.91433533618E-02  0.24456978063E-02  0.10470912464E-01  0.14114614989E-01  0.00000000000E+00 0.  1.
     999901    1    3    3    0    0 -0.41913567754E-01 -0.93678314055E-01  0.80547855132E-01  0.88961808134E+00  0.88000000000E+00 0.  1.
        -11    1    4    4    0    0  0.59812161906E-02  0.57592721471E-01 -0.73960310993E-01  0.93931279330E-01  0.51100000000E-03 0.  1.
         11    1    4    4    0    0  0.26788998201E-01  0.33639894778E-01 -0.17058456603E-01  0.46266024338E-01  0.51100000000E-03 0. -1.
</event>
<event>
 8    1  0.2846344E+004  0.1043930E+01  0.7957747E-01            NaN
         13   -1    0    0    0    0  0.00000000000E+00  0.00000000000E+00  0.74505805969E-08  0.10566000000E+00  0.10566000000E+00 0. -1.
     999900   -1    0    0    0    0 -0.00000000000E+00 -0.00000000000E+00 -0.74505805969E-08  0.93827000000E+00  0.93827000000E+00 0. -1.
     999902    2    1    2    0    0 -0.57416605984E-02  0.88648486157E-02  0.91447046839E-02  0.10299593940E+01  0.10298646394E+01 0.  0.
     999903    2    3    3    0    0 -0.35786491438E-02 -0.62433795092E-01  0.11751967137E+00  0.14044643256E+00  0.44760940128E-01 0.  0.
         14    1    1    2    0    0  0.57416605984E-02 -0.88648486157E-02 -0.91447046839E-02  0.13970605970E-01  0.00000000000E+00 0.  1.
     999901    1    3    3    0    0 -0.21630114546E-02  0.71298643708E-01 -0.10837496669E+00  0.88951296147E+00  0.88000000000E+00 0. -1.
        -11    1    4    4    0    0 -0.21537739146E-01 -0.17358228641E-01  0.52159215556E-01  0.59042587998E-01  0.51100000000E-03 0.  1.
         11    1    4    4    0    0  0.17959090002E-01 -0.45075566451E-01  0.65360455816E-01  0.81403844566E-01  0.51100000000E-03 0. -1.
</event>
<event>
 8    1  0.2846344E+004  0.1043930E+01  0.7957747E-01            NaN
         13   -1    0    0    0    0  0.00000000000E+00  0.00000000000E+00  0.74505805969E-08  0.10566000000E+00  0.10566000000E+00 0.  1.
     999900   -1    0    0    0    0 -0.00000000000E+00 -0.00000000000E+00 -0.74505805969E-08  0.93827000000E+00  0.93827000000E+00 0.  1.
     999902    2    1    2    0    0 -0.40972718193E-02 -0.10831363635E-01  0.76916807828E-02  0.10300279128E+01  0.10299340917E+01 0.  0.
     999903    2    3    3    0    0 -0.86113001917E-01 -0.56143411866E-01 -0.83613362483E-01  0.14035585379E+00  0.46271368176E-01 0.  0.
         14    1    1    2    0    0  0.40972718193E-02  0.10831363635E-01 -0.76916807828E-02  0.13902087175E-01  0.00000000000E+00 0. -1.
     999901    1    3    3    0    0  0.82015730098E-01  0.45312048231E-01  0.91305043266E-01  0.88967205903E+00  0.88000000000E+00 0. -1.
        -11    1    4    4    0    0 -0.66984708184E-01 -0.27359517490E-01 -0.34148997224E-01  0.80011933236E-01  0.51100000000E-03 0. -1.
         11    1    4    4    0    0 -0.19128293733E-01 -0.28783894376E-01 -0.49464365259E-01  0.60343920556E-01  0.51100000000E-03 0.  1.
</event>
<event>
 8    1  0.2846344E+004  0.1043930E+01  0.7957747E-01            NaN
         13   -1    0    0    0    0  0.00000000000E+00  0.00000000000E+00  0.74505805969E-08  0.10566000000E+00  0.10566000000E+00 0. -1.
     999900   -1    0    0    0    0 -0.00000000000E+00 -0.00000000000E+00 -0.74505805969E-08  0.93827000000E+00  0.93827000000E+00 0.  1.
     999902    2    1    2    0    0  0.90170407547E-02 -0.53255119339E-02  0.86867376902E-02  0.10303238428E+01  0.10302339994E+01 0.  0.
     999903    2    3    3    0    0  0.96974976589E-02 -0.12902555621E+00 -0.32505099012E-01  0.14071778879E+00  0.44758004912E-01 0.  0.
         14    1    1    2    0    0 -0.90170407547E-02  0.53255119339E-02 -0.86867376902E-02  0.13606157173E-01  0.00000000000E+00 0.  1.
     999901    1    3    3    0    0 -0.68045690415E-03  0.12370004427E+00  0.41191836702E-01  0.88960605404E+00  0.88000000000E+00 0.  1.
        -11    1    4    4    0    0 -0.36272865566E-02 -0.10547783290E+00 -0.10924629203E-01  0.10610532072E+00  0.51100000000E-03 0. -1.
         11    1    4    4    0    0  0.13324784215E-01 -0.23547723305E-01 -0.21580469810E-01  0.34612468064E-01  0.51100000000E-03 0.  1.
</event>
<event>
 8    1  0.2846344E+004  0.1043930E+01  0.7957747E-01            NaN
         13   -1    0    0    0    0  0.00000000000E+00  0.00000000000E+00  0.74505805969E-08  0.10566000000E+00  0.10566000000E+00 0.  1.
     999900   -1    0    0    0    0 -0.00000000000E+00 -0.00000000000E+00 -0.74505805969E-08  0.93827000000E+00  0.93827000000E+00 0.  1.
     999902    2    1    2    0    0  0.11532001899E-01  0.86851502476E-02  0.90645120804E-03  0.10294648503E+01  0.10293632194E+01 0.  0.
     999903    2    3    3    0    0  0.47412292738E-01 -0.12241641860E+00 -0.82262903326E-02  0.13898272042E+00  0.44886742788E-01 0.  0.
         14    1    1    2    0    0 -0.11532001899E-01 -0.86851502476E-02 -0.90645120804E-03  0.14465149720E-01  0.00000000000E+00 0.  1.
     999901    1    3    3    0    0 -0.35880290839E-01  0.13110156885E+00  0.91327415407E-02  0.89048212986E+00  0.88000000000E+00 0.  1.
        -11    1    4    4    0    0  0.34590745237E-01 -0.49571932488E-01  0.13405918810E-01  0.61918300419E-01  0.51100000000E-03 0. -1.
         11    1    4    4    0    0  0.12821547502E-01 -0.72844486113E-01 -0.21632209142E-01  0.77064420006E-01  0.51100000000E-03 0.  1.
</event>
<event>
 8    1  0.2846344E+004  0.1043930E+01  0.7957747E-01            NaN
         13   -1    0    0    0    0  0.00000000000E+00  0.00000000000E+00  0.74505805969E-08  0.10566000000E+00  0.10566000000E+00 0. -1.
     999900   -1    0    0    0    0 -0.00000000000E+00 -0.00000000000E+00 -0.74505805969E-08  0.93827000000E+00  0.93827000000E+00 0. -1.
     999902    2    1    2    0    0  0.10536691650E-01 -0.77773575949E-02  0.42476347186E-02  0.10301622274E+01  0.10300702224E+01 0.  0.
     999903    2    3    3    0    0 -0.72481570608E-02 -0.85832867881E-01  0.10255526066E+00  0.14107654375E+00  0.44330494204E-01 0.  0.
         14    1    1    2    0    0 -0.10536691650E-01  0.77773575949E-02 -0.42476347186E-02  0.13767772616E-01  0.00000000000E+00 0.  1.
     999901    1    3    3    0    0  0.17784848711E-01  0.78055510286E-01 -0.98307625945E-01  0.88908568364E+00  0.88000000000E+00 0. -1.
        -11    1    4    4    0    0 -0.71956047954E-02 -0.65447218250E-01  0.44309890175E-01  0.79364618020E-01  0.51100000000E-03 0.  1.
         11    1    4    4    0    0 -0.52552265399E-04 -0.20385649630E-01  0.58245370489E-01  0.61711925727E-01  0.51100000000E-03 0. -1.
</event>
<event>
 8    1  0.2846344E+004  0.1043930E+01  0.7957747E-01            NaN
         13   -1    0    0    0    0  0.00000000000E+00  0.00000000000E+00  0.74505805969E-08  0.10566000000E+00  0.10566000000E+00 0.  1.
     999900   -1    0    0    0    0 -0.00000000000E+00 -0.00000000000E+00 -0.74505805969E-08  0.93827000000E+00  0.93827000000E+00 0. -1.
     999902    2    1    2    0    0 -0.11175997743E-01 -0.21050245593E-03 -0.51634701192E-02  0.10316170531E+01  0.10315435694E+01 0.  0.
     999903    2    3    3    0    0  0.44683089009E-01 -0.12261925071E+00 -0.29592849326E-01  0.14105490831E+00  0.44594745653E-01 0.  0.
         14    1    1    2    0    0  0.11175997743E-01  0.21050245593E-03  0.51634701192E-02  0.12312946865E-01  0.00000000000E+00 0.  1.
     999901    1    3    3    0    0 -0.55859086752E-01  0.12240874825E+00  0.24429379207E-01  0.89056214482E+00  0.88000000000E+00 0. -1.
        -11    1    4    4    0    0  0.21842235142E-01 -0.21655510052E-01  0.64727939019E-02  0.31435688851E-01  0.51100000000E-03 0.  1.
         11    1    4    4    0    0  0.22840853866E-01 -0.10096374066E+00 -0.36065643228E-01  0.10961921946E+00  0.51100000000E-03 0. -1.
</event>
<event>
 8    1  0.2846344E+004  0.1043930E+01  0.7957747E-01            NaN
         13   -1    0    0    0    0  0.00000000000E+00  0.00000000000E+00  0.74505805969E-08  0.10566000000E+00  0.10566000000E+00 0. -1.
     999900   -1    0    0    0    0 -0.00000000000E+00 -0.00000000000E+00 -0.74505805969E-08  0.93827000000E+00  0.93827000000E+00 0.  1.
     999902    2    1    2    0    0  0.50742566830E-02 -0.34443920940E-02 -0.12627042605E-01  0.10298924032E+01  0.10297967315E+01 0.  0.
     999903    2    3    3    0    0 -0.80902477686E-01 -0.63635593785E-01  0.81068183321E-01  0.13871690146E+00  0.45559068382E-01 0.  0.
         14    1    1    2    0    0 -0.50742566830E-02  0.34443920940E-02  0.12627042605E-01  0.14037596758E-01  0.00000000000E+00 0. -1.
     999901    1    3    3    0    0  0.85976734369E-01  0.60191201691E-01 -0.93695225926E-01  0.89117550178E+00  0.88000000000E+00 0.  1.
        -11    1    4    4    0    0 -0.69466271118E-01 -0.48103158617E-01  0.40304600690E-01  0.93617298881E-01  0.51100000000E-03 0.  1.
         11    1    4    4    0    0 -0.11436206568E-01 -0.15532435169E-01  0.40763582632E-01  0.45099602580E-01  0.51100000000E-03 0. -1.
</event>
<event>
 8    1  0.2846344E+004  0.1043930E+01  0.7957747E-01            NaN
         13   -1    0    0    0    0  0.00000000000E+00  0.00000000000E+00  0.74505805969E-08  0.10566000000E+00  0.10566000000E+00 0.  1.
     999900   -1    0    0    0    0 -0.00000000000E+00 -0.00000000000E+00 -0.74505805969E-08  0.93827000000E+00  0.93827000000E+00 0.  1.
     999902    2    1    2    0    0 -0.70095418406E-02 -0.10673070856E-01  0.52400837913E-02  0.10301275873E+01  0.10300351157E+01 0.  0.
     999903    2    3    3    0    0  0.45737130599E-05 -0.11184739320E+00 -0.72708921818E-01  0.14087987783E+00  0.45284801844E-01 0.  0.
         14    1    1    2    0    0  0.70095418406E-02  0.10673070856E-01 -0.52400837913E-02  0.13802412704E-01  0.00000000000E+00 0.  1.
     999901    1    3    3    0    0 -0.70141155536E-02  0.10117432234E+00  0.77949005609E-01  0.88924770947E+00  0.88000000000E+00 0. -1.
        -11    1    4    4    0    0 -0.20086991284E-01 -0.61498943231E-01 -0.51400034402E-01  0.82630695840E-01  0.51100000000E-03 0.  1.
         11    1    4    4    0    0  0.20091564997E-01 -0.50348449970E-01 -0.21308887416E-01  0.58249181988E-01  0.51100000000E-03 0. -1.
</event>
<event>
 8    1  0.2846344E+004  0.1043930E+01  0.7957747E-01            NaN
         13   -1    0    0    0    0  0.00000000000E+00  0.00000000000E+00  0.74505805969E-08  0.10566000000E+00  0.10566000000E+00 0. -1.
     999900   -1    0    0    0    0 -0.00000000000E+00 -0.00000000000E+00 -0.74505805969E-08  0.93827000000E+00  0.93827000000E+00 0.  1.
     999902    2    1    2    0    0  0.21951765238E-02  0.13488630814E-01  0.27126566699E-02  0.10299972879E+01  0.10299030501E+01 0.  0.
     999903    2    3    3    0    0 -0.11425949797E+00 -0.49226883470E-01 -0.42455562417E-01  0.13896693207E+00  0.45064559195E-01 0.  0.
         14    1    1    2    0    0 -0.21951765238E-02 -0.13488630814E-01 -0.27126566699E-02  0.13932712134E-01  0.00000000000E+00 0. -1.
     999901    1    3    3    0    0  0.11645467449E+00  0.62715514284E-01  0.45168219086E-01  0.89103035580E+00  0.88000000000E+00 0. -1.
        -11    1    4    4    0    0 -0.72523898798E-01 -0.25328952776E-01 -0.47950192124E-01  0.90558013402E-01  0.51100000000E-03 0.  1.
         11    1    4    4    0    0 -0.41735599170E-01 -0.23897930694E-01  0.54946297075E-02  0.48408918663E-01  0.51100000000E-03 0. -1.
</event>
<event>
 8    1  0.2846344E+004  0.1043930E+01  0.7957747E-01            NaN
         13   -1    0    0    0    0  0.00000000000E+00  0.00000000000E+00  0.74505805969E-08  0.10566000000E+00  0.10566000000E+00 0.  1.
     999900   -1    0    0    0    0 -0.00000000000E+00 -0.00000000000E+00 -0.74505805969E-08  0.93827000000E+00  0.93827000000E+00 0.  1.
     999902    2    1    2    0    0 -0.39930724675E-02  0.88428533785E-03  0.20097706493E-01  0.10234203829E+01  0.10232148531E+01 0.  0.
     999903    2    3    3    0    0 -0.11972536162E+00  0.19015630815E-02 -0.38550934847E-01  0.13390666138E+00  0.45902518739E-01 0.  0.
         14    1    1    2    0    0  0.39930724675E-02 -0.88428533785E-03 -0.20097706493E-01  0.20509617124E-01  0.00000000000E+00 0. -1.
     999901    1    3    3    0    0  0.11573228915E+00 -0.10172777436E-02  0.58648641339E-01  0.88951372150E+00  0.88000000000E+00 0. -1.
        -11    1    4    4    0    0 -0.86138148285E-01 -0.15463837830E-01 -0.13511181986E-01  0.88553509417E-01  0.51100000000E-03 0. -1.
         11    1    4    4    0    0 -0.33587213334E-01  0.17365400912E-01 -0.25039752860E-01  0.45353151959E-01  0.51100000000E-03 0.  1.
</event>
<event>
 8    1  0.2846344E+004  0.1043930E+01  0.7957747E-01            NaN
         13   -1    0    0    0    0  0.00000000000E+00  0.00000000000E+00  0.74505805969E-08  0.10566000000E+00  0.10566000000E+00 0. -1.
     999900   -1    0    0    0    0 -0.00000000000E+00 -0.00000000000E+00 -0.74505805969E-08  0.93827000000E+00  0.93827000000E+00 0. -1.
     999902    2    1    2    0    0 -0.10989527488E-01 -0.63469794771E-02 -0.53604401724E-02  0.10301536368E+01  0.10300615163E+01 0.  0.
     999903    2    3    3    0    0  0.15507787874E-01  0.12455193519E+00  0.40151735962E-01  0.13891405527E+00  0.43946294574E-01 0.  0.
         14    1    1    2    0    0  0.10989527488E-01  0.63469794771E-02  0.53604401724E-02  0.13776363154E-01  0.00000000000E+00 0. -1.
     999901    1    3    3    0    0 -0.26497315363E-01 -0.13089891467E+00 -0.45512176135E-01  0.89123958157E+00  0.88000000000E+00 0.  1.
        -11    1    4    4    0    0 -0.14014081163E-01  0.27947194498E-01  0.15663100163E-01  0.34971902706E-01  0.51100000000E-03 0.  1.
         11    1    4    4    0    0  0.29521869037E-01  0.96604740696E-01  0.24488635799E-01  0.10394215257E+00  0.51100000000E-03 0. -1.
</event>
<event>
 8    1  0.2846344E+004  0.1043930E+01  0.7957747E-01            NaN
         13   -1    0    0    0    0  0.00000000000E+00  0.00000000000E+00  0.74505805969E-08  0.10566000000E+00  0.10566000000E+00 0.  1.
     999900   -1    0    0    0    0 -0.00000000000E+00 -0.00000000000E+00 -0.74505805969E-08  0.93827000000E+00  0.93827000000E+00 0.  1.
     999902    2    1    2    0    0 -0.12214949834E-01 -0.60592732662E-02 -0.21634584250E-03  0.10302930430E+01  0.10302027896E+01 0.  0.
     999903    2    3    3    0    0 -0.68339573759E-01  0.10655656653E+00 -0.41284658184E-01  0.14039478638E+00  0.44515995201E-01 0.  0.
         14    1    1    2    0    0  0.12214949834E-01  0.60592732662E-02  0.21634584250E-03  0.13636957046E-01  0.00000000000E+00 0. -1.
     999901    1    3    3    0    0  0.56124623925E-01 -0.11261583979E+00  0.41068312341E-01  0.88989825658E+00  0.88000000000E+00 0. -1.
        -11    1    4    4    0    0 -0.40124884530E-01  0.73291078539E-01 -0.47838406324E-01  0.96282723230E-01  0.51100000000E-03 0.  1.
         11    1    4    4    0    0 -0.28214689229E-01  0.33265487987E-01  0.65537481397E-02  0.44112063146E-01  0.51100000000E-03 0. -1.
</event>
<event>
 8    1  0.2846344E+004  0.1043930E+01  0.7957747E-01            NaN
         13   -1    0    0    0    0  0.00000000000E+00  0.00000000000E+00  0.74505805969E-08  0.10566000000E+00  0.10566000000E+00 0.  1.
     999900   -1    0    0    0    0 -0.00000000000E+00 -0.00000000000E+00 -0.74505805969E-08  0.93827000000E+00  0.93827000000E+00 0. -1.
     999902    2    1    2    0    0  0.28423279620E-02  0.26175235969E-03  0.12680528440E-01  0.10309321870E+01  0.10308502466E+01 0.  0.
     999903    2    3    3    0    0  0.12566811089E+00 -0.45374204407E-01 -0.37221762466E-02  0.14107946755E+00  0.45147193135E-01 0.  0.
         14    1    1    2    0    0 -0.28423279620E-02 -0.26175235969E-03 -0.12680528440E-01  0.12997813049E-01  0.00000000000E+00 0.  1.
     999901    1    3    3    0    0 -0.12282578293E+00  0.45635956766E-01  0.16402704687E-01  0.88985271940E+00  0.88000000000E+00 0.  1.
        -11    1    4    4    0    0  0.79926963996E-02 -0.18724695331E-01 -0.10777244700E-02  0.20394117338E-01  0.51100000000E-03 0. -1.
         11    1    4    4    0    0  0.11767541449E+00 -0.26649509076E-01 -0.26444517766E-02  0.12068535021E+00  0.51100000000E-03 0.  1.
</event>
<event>
 8    1  0.2846344E+004  0.1043930E+01  0.7957747E-01            NaN
         13   -1    0    0    0    0  0.00000000000E+00  0.00000000000E+00  0.74505805969E-08  0.10566000000E+00  0.10566000000E+00 0. -1.
     999900   -1    0    0    0    0 -0.00000000000E+00 -0.00000000000E+00 -0.74505805969E-08  0.93827000000E+00  0.93827000000E+00 0. -1.
     999902    2    1    2    0    0  0.27847064982E-02 -0.61722723162E-02  0.80482163933E-02  0.10334121427E+01  0.10333586170E+01 0.  0.
     999903    2    3    3    0    0  0.13665120819E+00 -0.11721112900E-01  0.61630289458E-02  0.14326912953E+00  0.40952696632E-01 0.  0.
         14    1    1    2    0    0 -0.27847064982E-02  0.61722723162E-02 -0.80482163933E-02  0.10517857336E-01  0.00000000000E+00 0.  1.
     999901    1    3    3    0    0 -0.13386650169E+00  0.55488405833E-02  0.18851874475E-02  0.89014301314E+00  0.88000000000E+00 0.  1.
        -11    1    4    4    0    0  0.13114193781E+00 -0.20359620124E-01  0.39392778922E-02  0.13277236541E+00  0.51100000000E-03 0. -1.
         11    1    4    4    0    0  0.55092703791E-02  0.86385072248E-02  0.22237510536E-02  0.10496764117E-01  0.51100000000E-03 0.  1.
</event>
<event>
 8    1  0.2846344E+004  0.1043930E+01  0.7957747E-01            NaN
         13   -1    0    0    0    0  0.00000000000E+00  0.00000000000E+00  0.74505805969E-08  0.10566000000E+00  0.10566000000E+00 0.  1.
     999900   -1    0    0    0    0 -0.00000000000E+00 -0.00000000000E+00 -0.74505805969E-08  0.93827000000E+00  0.93827000000E+00 0. -1.
     999902    2    1    2    0    0  0.90698085381E-03  0.12437800114E-01  0.79848163111E-03  0.10314336382E+01  0.10313579354E+01 0.  0.
     999903    2    3    3    0    0 -0.11282113622E+00  0.71468734953E-01  0.17485454942E-01  0.14199719246E+00  0.44956341926E-01 0.  0.
         14    1    1    2    0    0 -0.90698085381E-03 -0.12437800114E-01 -0.79848163111E-03  0.12496361825E-01  0.00000000000E+00 0. -1.
     999901    1    3    3    0    0  0.11372811707E+00 -0.59030934839E-01 -0.16686973311E-01  0.88943644571E+00  0.88000000000E+00 0. -1.
        -11    1    4    4    0    0 -0.59630955436E-01  0.16986959940E-01  0.21816154945E-01  0.65731372965E-01  0.51100000000E-03 0.  1.
         11    1    4    4    0    0 -0.53190180783E-01  0.54481775013E-01 -0.43307000027E-02  0.76265819499E-01  0.51100000000E-03 0. -1.
</event>
<event>
 8    1  0.2846344E+004  0.1043930E+01  0.7957747E-01            NaN
         13   -1    0    0    0    0  0.00000000000E+00  0.00000000000E+00  0.74505805969E-08  0.10566000000E+00  0.10566000000E+00 0. -1.
     999900   -1    0    0    0    0 -0.00000000000E+00 -0.00000000000E+00 -0.74505805969E-08  0.93827000000E+00  0.93827000000E+00 0.  1.
     999902    2    1    2    0    0 -0.13229714356E-01  0.20995544952E-02  0.25651307899E-02  0.10302913283E+01  0.10302010521E+01 0.  0.
     999903    2    3    3    0    0 -0.54763505445E-01 -0.89419832020E-01  0.82210610284E-01  0.14099708206E+00  0.46115559404E-01 0.  0.
         14    1    1    2    0    0  0.13229714356E-01 -0.20995544952E-02 -0.25651307899E-02  0.13638671746E-01  0.00000000000E+00 0.  1.
     999901    1    3    3    0    0  0.41533791089E-01  0.91519386515E-01 -0.79645479494E-01  0.88929424619E+00  0.88000000000E+00 0. -1.
        -11    1    4    4    0    0 -0.16386043117E-01 -0.57860590393E-01  0.64648157177E-01  0.88294935739E-01  0.51100000000E-03 0. -1.
         11    1    4    4    0    0 -0.38377462328E-01 -0.31559241626E-01  0.17562453107E-01  0.52702146321E-01  0.51100000000E-03 0.  1.
</event>
<event>
 8    1  0.2846344E+004  0.1043930E+01  0.7957747E-01            NaN
         13   -1    0    0    0    0  0.00000000000E+00  0.00000000000E+00  0.74505805969E-08  0.10566000000E+00  0.10566000000E+00 0. -1.
     999900   -1    0    0    0    0 -0.00000000000E+00 -0.00000000000E+00 -0.74505805969E-08  0.93827000000E+00  0.93827000000E+00 0. -1.
     999902    2    1    2    0    0 -0.11745521466E-01 -0.37250694552E-02  0.40293811431E-02  0.10309658444E+01  0.10308843306E+01 0.  0.
     999903    2    3    3    0    0  0.32231638951E-01  0.73107422174E-01 -0.10610267356E+00  0.13969355615E+00  0.43277460266E-01 0.  0.
         14    1    1    2    0    0  0.11745521466E-01  0.37250694552E-02 -0.40293811431E-02  0.12964155559E-01  0.00000000000E+00 0. -1.
     999901    1    3    3    0    0 -0.43977160417E-01 -0.76832491629E-01  0.11013205470E+00  0.89127228829E+00  0.88000000000E+00 0.  1.
        -11    1    4    4    0    0 -0.84757733116E-02  0.31003697729E-01 -0.33774172868E-01  0.46626428986E-01  0.51100000000E-03 0.  1.
         11    1    4    4    0    0  0.40707412263E-01  0.42103724445E-01 -0.72328500688E-01  0.93067127161E-01  0.51100000000E-03 0. -1.
</event>
<event>
 8    1  0.2846344E+004  0.1043930E+01  0.7957747E-01            NaN
         13   -1    0    0    0    0  0.00000000000E+00  0.00000000000E+00  0.74505805969E-08  0.10566000000E+00  0.10566000000E+00 0. -1.
     999900   -1    0    0    0    0 -0.00000000000E+00 -0.00000000000E+00 -0.74505805969E-08  0.93827000000E+00  0.93827000000E+00 0. -1.
     999902    2    1    2    0    0  0.11247114788E-01 -0.39714037111E-02  0.56339209038E-02  0.10307386883E+01  0.10306542742E+01 0.  0.
     999903    2    3    3    0    0  0.74880052989E-01  0.28549621659E-01 -0.10660386808E+00  0.14073639105E+00  0.44947122755E-01 0.  0.
         14    1    1    2    0    0 -0.11247114788E-01  0.39714037111E-02 -0.56339209038E-02  0.13191311657E-01  0.00000000000E+00 0.  1.
     999901    1    3    3    0    0 -0.63632938202E-01 -0.32521025370E-01  0.11223778898E+00  0.89000229729E+00  0.88000000000E+00 0.  1.
        -11    1    4    4    0    0  0.64214667904E-01  0.29085846079E-01 -0.58944052931E-01  0.91892178737E-01  0.51100000000E-03 0. -1.
         11    1    4    4    0    0  0.10665385086E-01 -0.53622441978E-03 -0.47659815145E-01  0.48844212311E-01  0.51100000000E-03 0.  1.
</event>
<event>
 8    1  0.2846344E+004  0.1043930E+01  0.7957747E-01            NaN
         13   -1    0    0    0    0  0.00000000000E+00  0.00000000000E+00  0.74505805969E-08  0.10566000000E+00  0.10566000000E+00 0. -1.
     999900   -1    0    0    0    0 -0.00000000000E+00 -0.00000000000E+00 -0.74505805969E-08  0.93827000000E+00  0.93827000000E+00 0. -1.
     999902    2    1    2    0    0  0.41195983679E-02  0.11543276099E-01  0.64061412402E-02  0.10301004317E+01  0.10300075934E+01 0.  0.
     999903    2    3    3    0    0  0.93687879313E-01  0.75175287568E-01 -0.59151996031E-01  0.14084828568E+00  0.43709705485E-01 0.  0.
         14    1    1    2    0    0 -0.41195983679E-02 -0.11543276099E-01 -0.64061412402E-02  0.13829568301E-01  0.00000000000E+00 0.  1.
     999901    1    3    3    0    0 -0.89568280945E-01 -0.63632011469E-01  0.65558137272E-01  0.88925214602E+00  0.88000000000E+00 0.  1.
        -11    1    4    4    0    0  0.36804503719E-01  0.13964852632E-01 -0.37852890667E-01  0.54614018859E-01  0.51100000000E-03 0. -1.
         11    1    4    4    0    0  0.56883375594E-01  0.61210434936E-01 -0.21299105364E-01  0.86234266822E-01  0.51100000000E-03 0.  1.
</event>
<event>
 8    1  0.2846344E+004  0.1043930E+01  0.7957747E-01            NaN
         13   -1    0    0    0    0  0.00000000000E+00  0.00000000000E+00  0.74505805969E-08  0.10566000000E+00  0.10566000000E+00 0.  1.
     999900   -1    0    0    0    0 -0.00000000000E+00 -0.00000000000E+00 -0.74505805969E-08  0.93827000000E+00  0.93827000000E+00 0. -1.
     999902    2    1    2    0    0 -0.62218451816E-02 -0.41003049603E-02 -0.11597519067E-01  0.10301449970E+01  0.10300527601E+01 0.  0.
     999903    2    3    3    0    0 -0.13123770465E+00  0.17034697450E-01 -0.18331779373E-01  0.14103251613E+00  0.45173005540E-01 0.  0.
         14    1    1    2    0    0  0.62218451816E-02  0.41003049603E-02  0.11597519067E-01  0.13785002965E-01  0.00000000000E+00 0.  1.
     999901    1    3    3    0    0  0.12501585947E+00 -0.21135002411E-01  0.67342603055E-02  0.88911248091E+00  0.88000000000E+00 0.  1.
        -11    1    4    4    0    0 -0.53356341518E-01 -0.28583157817E-02 -0.27555072330E-01  0.60121645697E-01  0.51100000000E-03 0. -1.
         11    1    4    4    0    0 -0.77881363137E-01  0.19893013232E-01  0.92232929566E-02  0.80910870428E-01  0.51100000000E-03 0.  1.
</event>
<event>
 8    1  0.2846344E+004  0.1043930E+01  0.7957747E-01            NaN
         13   -1    0    0    0    0  0.00000000000E+00  0.00000000000E+00  0.74505805969E-08  0.10566000000E+00  0.10566000000E+00 0. -1.
     999900   -1    0    0    0    0 -0.00000000000E+00 -0.00000000000E+00 -0.74505805969E-08  0.93827000000E+00  0.93827000000E+00 0.  1.
     999902    2    1    2    0    0 -0.20427057065E-02  0.13804192287E-01  0.67886892526E-02  0.10284117954E+01  0.10282947079E+01 0.  0.
     999903    2    3    3    0    0 -0.61854427393E-01 -0.11361949558E+00  0.43125866430E-02  0.13722137281E+00  0.45560364237E-01 0.  0.
         14    1    1    2    0    0  0.20427057065E-02 -0.13804192287E-01 -0.67886892526E-02  0.15518204569E-01  0.00000000000E+00 0.  1.
     999901    1    3    3    0    0  0.59811721686E-01  0.12742368787E+00  0.24761026096E-02  0.89119042262E+00  0.88000000000E+00 0. -1.
        -11    1    4    4    0    0 -0.34109041981E-01 -0.99288444379E-01 -0.34397203499E-02  0.10504149051E+00  0.51100000000E-03 0.  1.
         11    1    4    4    0    0 -0.27745385412E-01 -0.14331051200E-01  0.77523069929E-02  0.32179882300E-01  0.51100000000E-03 0. -1.
</event>
<event>
 8    1  0.2846344E+004  0.1043930E+01  0.7957747E-01            NaN
         13   -1    0    0    0    0  0.00000000000E+00  0.00000000000E+00  0.74505805969E-08  0.10566000000E+00  0.10566000000E+00 0.  1.
     999900   -1    0    0    0    0 -0.00000000000E+00 -0.00000000000E+00 -0.74505805969E-08  0.93827000000E+00  0.93827000000E+00 0. -1.
     999902    2    1    2    0    0 -0.26310939188E-02 -0.11113097999E-01  0.82835378250E-02  0.10298218250E+01  0.10297251821E+01 0.  0.
     999903    2    3    3    0    0  0.11689688564E+00 -0.62771618021E-01 -0.52742163672E-04  0.14020110013E+00  0.45290040796E-01 0.  0.
         14    1    1    2    0    0  0.26310939188E-02  0.11113097999E-01 -0.82835378250E-02  0.14108174979E-01  0.00000000000E+00 0.  1.
     999901    1    3    3    0    0 -0.11952797956E+00  0.51658520021E-01  0.83362799886E-02  0.88962072489E+00  0.88000000000E+00 0.  1.
        -11    1    4    4    0    0  0.11088697545E-01 -0.18639281311E-01  0.12224389768E-01  0.24901382436E-01  0.51100000000E-03 0.  1.
         11    1    4    4    0    0  0.10580818809E+00 -0.44132336710E-01 -0.12277131932E-01  0.11529971770E+00  0.51100000000E-03 0. -1.
</event>
<event>
 8    1  0.2846344E+004  0.1043930E+01  0.7957747E-01            NaN
         13   -1    0    0    0    0  0.00000000000E+00  0.00000000000E+00  0.74505805969E-08  0.10566000000E+00  0.10566000000E+00 0. -1.
     999900   -1    0    0    0    0 -0.00000000000E+00 -0.00000000000E+00 -0.74505805969E-08  0.93827000000E+00  0.93827000000E+00 0.  1.
     999902    2    1    2    0    0  0.39958392931E-02 -0.12023557325E-01 -0.64065805632E-02  0.10297322207E+01  0.10296343377E+01 0.  0.
     999903    2    3    3    0    0  0.10589296812E+00  0.23053929558E-01  0.75047687938E-01  0.13942426679E+00  0.45411081684E-01 0.  0.
         14    1    1    2    0    0 -0.39958392931E-02  0.12023557325E-01  0.64065805632E-02  0.14197779295E-01  0.00000000000E+00 0. -1.
     999901    1    3    3    0    0 -0.10189712883E+00 -0.35077486882E-01 -0.81454268501E-01  0.89030795392E+00  0.88000000000E+00 0.  1.
        -11    1    4    4    0    0  0.34945815047E-01  0.10518436780E-02  0.50039513157E-01  0.61045314009E-01  0.51100000000E-03 0.  1.
         11    1    4    4    0    0  0.70947153072E-01  0.22002085880E-01  0.25008174781E-01  0.78378952781E-01  0.51100000000E-03 0. -1.
</event>
<event>
 8    1  0.2846344E+004  0.1043930E+01  0.7957747E-01            NaN
         13   -1    0    0    0    0  0.00000000000E+00  0.00000000000E+00  0.74505805969E-08  0.10566000000E+00  0.10566000000E+00 0.  1.
     999900   -1    0    0    0    0 -0.00000000000E+00 -0.00000000000E+00 -0.74505805969E-08  0.93827000000E+00  0.93827000000E+00 0.  1.
     999902    2    1    2    0    0  0.10854697555E-01 -0.76891286854E-02  0.77791890073E-02  0.10285201674E+01  0.10284047218E+01 0.  0.
     999903    2    3    3    0    0 -0.12905659722E+00 -0.57606774635E-02 -0.11294300114E-01  0.13726112127E+00  0.44991816012E-01 0.  0.
         14    1    1    2    0    0 -0.10854697555E-01  0.76891286854E-02 -0.77791890073E-02  0.15409832594E-01  0.00000000000E+00 0. -1.
     999901    1    3    3    0    0  0.13991129477E+00 -0.19284512219E-02  0.19073489122E-01  0.89125904613E+00  0.88000000000E+00 0.  1.
        -11    1    4    4    0    0 -0.57287195201E-01 -0.24810605478E-01 -0.78774993339E-02  0.62926186877E-01  0.51100000000E-03 0.  1.
         11    1    4    4    0    0 -0.71769402015E-01  0.19049928014E-01 -0.34168007805E-02  0.74334934395E-01  0.51100000000E-03 0. -1.
</event>
<event>
 8    1  0.2846344E+004  0.1043930E+01  0.7957747E-01            NaN
         13   -1    0    0    0    0  0.00000000000E+00  0.00000000000E+00  0.74505805969E-08  0.10566000000E+00  0.10566000000E+00 0.  1.
     999900   -1    0    0    0    0 -0.00000000000E+00 -0.00000000000E+00 -0.74505805969E-08  0.93827000000E+00  0.93827000000E+00 0.  1.
     999902    2    1    2    0    0 -0.83316238509E-02  0.64490576178E-02  0.47334315919E-02  0.10323796028E+01  0.10323149871E+01 0.  0.
     999903    2    3    3    0    0 -0.13135514498E+00  0.34763990679E-01  0.95433356982E-02  0.14335786105E+00  0.44695546823E-01 0.  0.
         14    1    1    2    0    0  0.83316238509E-02 -0.64490576178E-02 -0.47334315919E-02  0.11550397170E-01  0.00000000000E+00 0.  1.
     999901    1    3    3    0    0  0.12302352113E+00 -0.28314933061E-01 -0.48099041062E-02  0.88902174178E+00  0.88000000000E+00 0.  1.
        -11    1    4    4    0    0 -0.10988026134E+00  0.39105994894E-01  0.21186666465E-01  0.11854149748E+00  0.51100000000E-03 0. -1.
         11    1    4    4    0    0 -0.21474883644E-01 -0.43420042152E-02 -0.11643330767E-01  0.24816363562E-01  0.51100000000E-03 0.  1.
</event>
<event>
 8    1  0.2846344E+004  0.1043930E+01  0.7957747E-01            NaN
         13   -1    0    0    0    0  0.00000000000E+00  0.00000000000E+00  0.74505805969E-08  0.10566000000E+00  0.10566000000E+00 0.  1.
     999900   -1    0    0    0    0 -0.00000000000E+00 -0.00000000000E+00 -0.74505805969E-08  0.93827000000E+00  0.93827000000E+00 0. -1.
     999902    2    1    2    0    0  0.11260006200E-02  0.13892445503E-01  0.13886062889E-02  0.10299229965E+01  0.10298277441E+01 0.  0.
     999903    2    3    3    0    0  0.36795672308E-01 -0.68274056915E-01 -0.10602376734E+00  0.13887806071E+00  0.45064488871E-01 0.  0.
         14    1    1    2    0    0 -0.11260006200E-02 -0.13892445503E-01 -0.13886062889E-02  0.14007003494E-01  0.00000000000E+00 0. -1.
     999901    1    3    3    0    0 -0.35669671688E-01  0.82166502418E-01  0.10741237363E+00  0.89104493580E+00  0.88000000000E+00 0.  1.
        -11    1    4    4    0    0  0.13151284079E-01 -0.16396089131E-02 -0.39987539439E-01  0.42129669138E-01  0.51100000000E-03 0.  1.
         11    1    4    4    0    0  0.23644388230E-01 -0.66634448002E-01 -0.66036227902E-01  0.96748391572E-01  0.51100000000E-03 0. -1.
</event>
<event>
 8    1  0.2846344E+004  0.1043930E+01  0.7957747E-01            NaN
         13   -1    0    0    0    0  0.00000000000E+00  0.00000000000E+00  0.74505805969E-08  0.10566000000E+00  0.10566000000E+00 0. -1.
     999900   -1    0    0    0    0 -0.00000000000E+00 -0.00000000000E+00 -0.74505805969E-08  0.93827000000E+00  0.93827000000E+00 0.  1.
     999902    2    1    2    0    0  0.13317544377E-02  0.66409699044E-02 -0.12323928045E-01  0.10298674521E+01  0.10297714376E+01 0.  0.
     999903    2    3    3    0    0 -0.12325336007E+00  0.14029952696E-01  0.44688794680E-01  0.13923481269E+00  0.44732698917E-01 0.  0.
         14    1    1    2    0    0 -0.13317544377E-02 -0.66409699044E-02  0.12323928045E-01  0.14062547906E-01  0.00000000000E+00 0. -1.
     999901    1    3    3    0    0  0.12458511451E+00 -0.73889827919E-02 -0.57012722725E-01  0.89063263941E+00  0.88000000000E+00 0. -1.
        -11    1    4    4    0    0 -0.35068264538E-01  0.76285467569E-02  0.35261364950E-01  0.50315036346E-01  0.51100000000E-03 0.  1.
         11    1    4    4    0    0 -0.88185095534E-01  0.64014059394E-02  0.94274297305E-02  0.88919776342E-01  0.51100000000E-03 0. -1.
</event>
<event>
 8    1  0.2846344E+004  0.1043930E+01  0.7957747E-01            NaN
         13   -1    0    0    0    0  0.00000000000E+00  0.00000000000E+00  0.74505805969E-08  0.10566000000E+00  0.10566000000E+00 0. -1.
     999900   -1    0    0    0    0 -0.00000000000E+00 -0.00000000000E+00 -0.74505805969E-08  0.93827000000E+00  0.93827000000E+00 0.  1.
     999902    2    1    2    0    0 -0.11028978876E-01  0.84474589931E-02 -0.19164287339E-02  0.10299060691E+01  0.10298105848E+01 0.  0.
     999903    2    3    3    0    0 -0.13372295292E-01  0.14965832751E-01  0.13099211635E+00  0.13989895583E+00  0.44832899389E-01 0.  0.
         14    1    1    2    0    0  0.11028978876E-01 -0.84474589931E-02  0.19164287339E-02  0.14023930889E-01  0.00000000000E+00 0. -1.
     999901    1    3    3    0    0  0.23433164160E-02 -0.65183737574E-02 -0.13290854508E+00  0.89000711328E+00  0.88000000000E+00 0.  1.
        -11    1    4    4    0    0 -0.28460673797E-01  0.28559840833E-02  0.92374313507E-01  0.96702851638E-01  0.51100000000E-03 0. -1.
         11    1    4    4    0    0  0.15088378505E-01  0.12109848667E-01  0.38617802838E-01  0.43196104196E-01  0.51100000000E-03 0.  1.
</event>
<event>
 8    1  0.2846344E+004  0.1043930E+01  0.7957747E-01            NaN
         13   -1    0    0    0    0  0.00000000000E+00  0.00000000000E+00  0.74505805969E-08  0.10566000000E+00  0.10566000000E+00 0. -1.
     999900   -1    0    0    0    0 -0.00000000000E+00 -0.00000000000E+00 -0.74505805969E-08  0.93827000000E+00  0.93827000000E+00 0.  1.
     999902    2    1    2    0    0 -0.10182323260E-01  0.31326864552E-02 -0.51309943779E-02  0.10321054267E+01  0.10320376888E+01 0.  0.
     999903    2    3    3    0    0  0.66703244409E-02  0.80012277086E-01  0.10550000268E+00  0.14169333066E+00  0.50002916669E-01 0.  0.
         14    1    1    2    0    0  0.10182323260E-01 -0.31326864552E-02  0.51309943779E-02  0.11824573341E-01  0.00000000000E+00 0.  1.
     999901    1    3    3    0    0 -0.16852647701E-01 -0.76879590631E-01 -0.11063099706E+00  0.89041209600E+00  0.88000000000E+00 0. -1.
        -11    1    4    4    0    0 -0.24492235205E-02  0.35983460064E-01  0.12122383448E-01  0.38052876310E-01  0.51100000000E-03 0.  1.
         11    1    4    4    0    0  0.91195479615E-02  0.44028817023E-01  0.93377619233E-01  0.10364045435E+00  0.51100000000E-03 0. -1.
</event>
<event>
 8    1  0.2846344E+004  0.1043930E+01  0.7957747E-01            NaN
         13   -1    0    0    0    0  0.00000000000E+00  0.00000000000E+00  0.74505805969E-08  0.10566000000E+00  0.10566000000E+00 0. -1.
     999900   -1    0    0    0    0 -0.00000000000E+00 -0.00000000000E+00 -0.74505805969E-08  0.93827000000E+00  0.93827000000E+00 0.  1.
     999902    2    1    2    0    0  0.53894439659E-02  0.11388552652E-02  0.12900424352E-01  0.10299027392E+01  0.10298072092E+01 0.  0.
     999903    2    3    3    0    0  0.31317619217E-01 -0.83624350194E-01 -0.96143480080E-01  0.13875311967E+00  0.45111353741E-01 0.  0.
         14    1    1    2    0    0 -0.53894439659E-02 -0.11388552652E-02 -0.12900424352E-01  0.14027260817E-01  0.00000000000E+00 0.  1.
     999901    1    3    3    0    0 -0.25928175251E-01  0.84763205459E-01  0.10904390443E+00  0.89114961952E+00  0.88000000000E+00 0. -1.
        -11    1    4    4    0    0  0.35787332737E-01 -0.37804643019E-01 -0.64496058449E-01  0.82885022138E-01  0.51100000000E-03 0. -1.
         11    1    4    4    0    0 -0.44697135209E-02 -0.45819707175E-01 -0.31647421631E-01  0.55868097528E-01  0.51100000000E-03 0.  1.
</event>
<event>
 8    1  0.2846344E+004  0.1043930E+01  0.7957747E-01            NaN
         13   -1    0    0    0    0  0.00000000000E+00  0.00000000000E+00  0.74505805969E-08  0.10566000000E+00  0.10566000000E+00 0.  1.
     999900   -1    0    0    0    0 -0.00000000000E+00 -0.00000000000E+00 -0.74505805969E-08  0.93827000000E+00  0.93827000000E+00 0.  1.
     999902    2    1    2    0    0 -0.98309197284E-02 -0.94018558121E-03 -0.98370685968E-02  0.10299908878E+01  0.10298965628E+01 0.  0.
     999903    2    3    3    0    0  0.72666253354E-01 -0.82038183598E-01  0.73195295774E-01  0.13854428678E+00  0.42735466912E-01 0.  0.
         14    1    1    2    0    0  0.98309197284E-02  0.94018558121E-03  0.98370685968E-02  0.13939112246E-01  0.00000000000E+00 0.  1.
     999901    1    3    3    0    0 -0.82497173083E-01  0.81097998017E-01 -0.83032364371E-01  0.89144660097E+00  0.88000000000E+00 0.  1.
        -11    1    4    4    0    0  0.33554651898E-01 -0.33536567072E-01  0.57007728211E-01  0.74167096423E-01  0.51100000000E-03 0.  1.
         11    1    4    4    0    0  0.39111601456E-01 -0.48501616526E-01  0.16187567563E-01  0.64377190361E-01  0.51100000000E-03 0. -1.
</event>
<event>
 7    1  0.2846344E+004  0.1043930E+01  0.7957747E-01            NaN
         13   -1    0    0    0    0  0.00000000000E+00  0.00000000000E+00  0.74505805969E-08  0.10566000000E+00  0.10566000000E+00 0.  1.
     999900   -1    0    0    0    0 -0.00000000000E+00 -0.00000000000E+00 -0.74505805969E-08  0.93827000000E+00  0.93827000000E+00 0.  1.
     999903    2    1    2    0    0 -0.17431027627E-01 -0.89514434037E-02 -0.11537114233E+00  0.12256785186E+00  0.36447342358E-01 0.  0.
         14    1    1    2    0    0 -0.30247266647E-01 -0.74001506705E-03 -0.83236658911E-02  0.31380378834E-01  0.00000000000E+00 0. -1.
     999901    1    1    2    0    0  0.47678294274E-01  0.96914584707E-02  0.12369480822E+00  0.88998176930E+00  0.88000000000E+00 0. -1.
        -11    1    3    3    0    0 -0.27520863068E-01 -0.59750125375E-02 -0.10031001221E+00  0.10418953090E+00  0.51100000000E-03 0.  1.
         11    1    3    3    0    0  0.10089835441E-01 -0.29764308662E-02 -0.15061130119E-01  0.18378320962E-01  0.51100000000E-03 0. -1.
</event>
<event>
 8    1  0.2846344E+004  0.1043930E+01  0.7957747E-01            NaN
         13   -1    0    0    0    0  0.00000000000E+00  0.00000000000E+00  0.74505805969E-08  0.10566000000E+00  0.10566000000E+00 0.  1.
     999900   -1    0    0    0    0 -0.00000000000E+00 -0.00000000000E+00 -0.74505805969E-08  0.93827000000E+00  0.93827000000E+00 0.  1.
     999902    2    1    2    0    0 -0.73960204342E-02 -0.40529772863E-02 -0.11023459311E-01  0.10300503603E+01  0.10299568439E+01 0.  0.
     999903    2    3    3    0    0  0.11298455151E-01 -0.13041242766E+00  0.18991277172E-01  0.14032170586E+00  0.46845022667E-01 0.  0.
         14    1    1    2    0    0  0.73960204342E-02  0.40529772863E-02  0.11023459311E-01  0.13879639704E-01  0.00000000000E+00 0.  1.
     999901    1    3    3    0    0 -0.18694475585E-01  0.12635945038E+00 -0.30014736483E-01  0.88972865444E+00  0.88000000000E+00 0.  1.
        -11    1    4    4    0    0 -0.44792967271E-02 -0.11862801195E+00  0.11591439664E-01  0.11927821223E+00  0.51100000000E-03 0. -1.
         11    1    4    4    0    0  0.15777751878E-01 -0.11784415718E-01  0.73998375086E-02  0.21043493633E-01  0.51100000000E-03 0.  1.
</event>
<event>
 8    1  0.2846344E+004  0.1043930E+01  0.7957747E-01            NaN
         13   -1    0    0    0    0  0.00000000000E+00  0.00000000000E+00  0.74505805969E-08  0.10566000000E+00  0.10566000000E+00 0. -1.
     999900   -1    0    0    0    0 -0.00000000000E+00 -0.00000000000E+00 -0.74505805969E-08  0.93827000000E+00  0.93827000000E+00 0.  1.
     999902    2    1    2    0    0 -0.91616902900E-03  0.13484571055E-01  0.32976245761E-02  0.10300178704E+01  0.10299239127E+01 0.  0.
     999903    2    3    3    0    0 -0.77887146662E-01  0.97754292378E-01  0.47971966800E-01  0.14152379941E+00  0.45884277339E-01 0.  0.
         14    1    1    2    0    0  0.91616902900E-03 -0.13484571055E-01 -0.32976245761E-02  0.13912129602E-01  0.00000000000E+00 0.  1.
     999901    1    3    3    0    0  0.76970977633E-01 -0.84269721323E-01 -0.44674342224E-01  0.88849407099E+00  0.88000000000E+00 0.  1.
        -11    1    4    4    0    0 -0.73504976910E-02  0.35234426569E-01  0.26906804002E-01  0.44941426930E-01  0.51100000000E-03 0.  1.
         11    1    4    4    0    0 -0.70536648971E-01  0.62519865809E-01  0.21065162799E-01  0.96582372478E-01  0.51100000000E-03 0. -1.
</event>
<event>
 7    1  0.2846344E+004  0.1043930E+01  0.7957747E-01            NaN
         13   -1    0    0    0    0  0.00000000000E+00  0.00000000000E+00  0.74505805969E-08  0.10566000000E+00  0.10566000000E+00 0.  1.
     999900   -1    0    0    0    0 -0.00000000000E+00 -0.00000000000E+00 -0.74505805969E-08  0.93827000000E+00  0.93827000000E+00 0.  1.
     999903    2    1    2    0    0  0.60126859665E-01 -0.33718180664E-01 -0.27755840243E-01  0.86955533727E-01  0.45152222731E-01 0.  0.
         14    1    1    2    0    0  0.32824051791E-01  0.36751126347E-01 -0.48060105545E-01  0.68831950493E-01  0.00000000000E+00 0. -1.
     999901    1    1    2    0    0 -0.92950911456E-01 -0.30329456824E-02  0.75815945788E-01  0.88814251578E+00  0.88000000000E+00 0.  1.
        -11    1    3    3    0    0  0.25964770258E-01 -0.95875651871E-02 -0.34874213577E-01  0.44525976624E-01  0.51100000000E-03 0.  1.
         11    1    3    3    0    0  0.34162089407E-01 -0.24130615477E-01  0.71183733334E-02  0.42429557102E-01  0.51100000000E-03 0. -1.
</event>
<event>
 8    1  0.2846344E+004  0.1043930E+01  0.7957747E-01            NaN
         13   -1    0    0    0    0  0.00000000000E+00  0.00000000000E+00  0.74505805969E-08  0.10566000000E+00  0.10566000000E+00 0.  1.
     999900   -1    0    0    0    0 -0.00000000000E+00 -0.00000000000E+00 -0.74505805969E-08  0.93827000000E+00  0.93827000000E+00 0.  1.
     999902    2    1    2    0    0 -0.89689281462E-02  0.10405283595E-01 -0.32039145103E-02  0.10298240911E+01  0.10297274794E+01 0.  0.
     999903    2    3    3    0    0 -0.85535426461E-01 -0.13059702723E-01 -0.10038300015E+00  0.14086019476E+00  0.47728217369E-01 0.  0.
         14    1    1    2    0    0  0.89689281462E-02 -0.10405283595E-01  0.32039145103E-02  0.14105908938E-01  0.00000000000E+00 0. -1.
     999901    1    3    3    0    0  0.76566498315E-01  0.23464986319E-01  0.97179085638E-01  0.88896389630E+00  0.88000000000E+00 0. -1.
        -11    1    4    4    0    0 -0.27099036254E-02  0.96014053550E-02 -0.23755910798E-01  0.25770816466E-01  0.51100000000E-03 0. -1.
         11    1    4    4    0    0 -0.82825522835E-01 -0.22661108078E-01 -0.76627089350E-01  0.11508937829E+00  0.51100000000E-03 0.  1.
</event>
<event>
 8    1  0.2846344E+004  0.1043930E+01  0.7957747E-01            NaN
         13   -1    0    0    0    0  0.00000000000E+00  0.00000000000E+00  0.74505805969E-08  0.10566000000E+00  0.10566000000E+00 0. -1.
     999900   -1    0    0    0    0 -0.00000000000E+00 -0.00000000000E+00 -0.74505805969E-08  0.93827000000E+00  0.93827000000E+00 0. -1.
     999902    2    1    2    0    0 -0.87297327253E-03  0.45456001148E-02 -0.14876974382E-01  0.10283495979E+01  0.10282315627E+01 0.  0.
     999903    2    3    3    0    0 -0.11488541020E+00 -0.34818043555E-01 -0.54179287460E-01  0.13925286299E+00  0.45221798138E-01 0.  0.
         14    1    1    2    0    0  0.87297327253E-03 -0.45456001148E-02  0.14876974382E-01  0.15580402097E-01  0.00000000000E+00 0. -1.
     999901    1    3    3    0    0  0.11401243693E+00  0.39363643670E-01  0.39302313079E-01  0.88909673491E+00  0.88000000000E+00 0. -1.
        -11    1    4    4    0    0 -0.49671411856E-01 -0.26597534286E-01 -0.38730470709E-02  0.56479550286E-01  0.51100000000E-03 0. -1.
         11    1    4    4    0    0 -0.65213998348E-01 -0.82205092691E-02 -0.50306240389E-01  0.82773312706E-01  0.51100000000E-03 0.  1.
</event>
<event>
 8    1  0.2846344E+004  0.1043930E+01  0.7957747E-01            NaN
         13   -1    0    0    0    0  0.00000000000E+00  0.00000000000E+00  0.74505805969E-08  0.10566000000E+00  0.10566000000E+00 0.  1.
     999900   -1    0    0    0    0 -0.00000000000E+00 -0.00000000000E+00 -0.74505805969E-08  0.93827000000E+00  0.93827000000E+00 0.  1.
     999902    2    1    2    0    0 -0.88361292241E-03 -0.27840904730E-02  0.13510297353E-01  0.10301075521E+01  0.10300148100E+01 0.  0.
     999903    2    3    3    0    0  0.13767217360E-01 -0.25491225335E-01 -0.12629774051E+00  0.13866122827E+00  0.49360694129E-01 0.  0.
         14    1    1    2    0    0  0.88361292241E-03  0.27840904730E-02 -0.13510297353E-01  0.13822447906E-01  0.00000000000E+00 0. -1.
     999901    1    3    3    0    0 -0.14650830282E-01  0.22707134862E-01  0.13980803786E+00  0.89144632382E+00  0.88000000000E+00 0. -1.
        -11    1    4    4    0    0 -0.86356049037E-02  0.14699134635E-02 -0.80543616009E-01  0.81020179699E-01  0.51100000000E-03 0. -1.
         11    1    4    4    0    0  0.22402822264E-01 -0.26961138799E-01 -0.45754124502E-01  0.57641048574E-01  0.51100000000E-03 0.  1.
</event>
<event>
 8    1  0.2846344E+004  0.1043930E+01  0.7957747E-01            NaN
         13   -1    0    0    0    0  0.00000000000E+00  0.00000000000E+00  0.74505805969E-08  0.10566000000E+00  0.10566000000E+00 0. -1.
     999900   -1    0    0    0    0 -0.00000000000E+00 -0.00000000000E+00 -0.74505805969E-08  0.93827000000E+00  0.93827000000E+00 0.  1.
     999902    2    1    2    0    0 -0.12614590512E-01  0.50201550198E-02  0.30159914630E-02  0.10300222304E+01  0.10299283320E+01 0.  0.
     999903    2    3    3    0    0  0.15975498679E-01  0.14084112148E-01 -0.13013756924E+00  0.13950023785E+00  0.45507698911E-01 0.  0.
         14    1    1    2    0    0  0.12614590512E-01 -0.50201550198E-02 -0.30159914630E-02  0.13907769581E-01  0.00000000000E+00 0. -1.
     999901    1    3    3    0    0 -0.28590089191E-01 -0.90639571279E-02  0.13315356070E+00  0.89052199257E+00  0.88000000000E+00 0. -1.
        -11    1    4    4    0    0 -0.23867019039E-02  0.23644520902E-01 -0.10096230429E+00  0.10372274449E+00  0.51100000000E-03 0. -1.
         11    1    4    4    0    0  0.18362200583E-01 -0.95604087546E-02 -0.29175264945E-01  0.35777493364E-01  0.51100000000E-03 0.  1.
</event>
<event>
 8    1  0.2846344E+004  0.1043930E+01  0.7957747E-01            NaN
         13   -1    0    0    0    0  0.00000000000E+00  0.00000000000E+00  0.74505805969E-08  0.10566000000E+00  0.10566000000E+00 0.  1.
     999900   -1    0    0    0    0 -0.00000000000E+00 -0.00000000000E+00 -0.74505805969E-08  0.93827000000E+00  0.93827000000E+00 0.  1.
     999902    2    1    2    0    0 -0.93396982449E-02  0.14518384315E-02  0.10171459047E-01  0.10300448865E+01  0.10299512958E+01 0.  0.
     999903    2    3    3    0    0  0.13479274440E-01  0.10729136293E+00 -0.74649745383E-01  0.13936124614E+00  0.46431078402E-01 0.  0.
         14    1    1    2    0    0  0.93396982449E-02 -0.14518384315E-02 -0.10171459047E-01  0.13885113513E-01  0.00000000000E+00 0. -1.
     999901    1    3    3    0    0 -0.22818972685E-01 -0.10583952450E+00  0.84821204430E-01  0.89068364035E+00  0.88000000000E+00 0.  1.
        -11    1    4    4    0    0  0.18638751176E-01  0.15244889647E-01 -0.72276287751E-02  0.25145763947E-01  0.51100000000E-03 0. -1.
         11    1    4    4    0    0 -0.51594767364E-02  0.92046473281E-01 -0.67422116608E-01  0.11421548219E+00  0.51100000000E-03 0.  1.
</event>
<event>
 8    1  0.2846344E+004  0.1043930E+01  0.7957747E-01            NaN
         13   -1    0    0    0    0  0.00000000000E+00  0.00000000000E+00  0.74505805969E-08  0.10566000000E+00  0.10566000000E+00 0. -1.
     999900   -1    0    0    0    0 -0.00000000000E+00 -0.00000000000E+00 -0.74505805969E-08  0.93827000000E+00  0.93827000000E+00 0. -1.
     999902    2    1    2    0    0 -0.42692334041E-02  0.17173616324E-01 -0.24548767547E-02  0.10260642263E+01  0.10259086755E+01 0.  0.
     999903    2    3    3    0    0  0.63257613691E-01 -0.10912520473E+00  0.17025248030E-01  0.13427347584E+00  0.42774656592E-01 0.  0.
         14    1    1    2    0    0  0.42692334041E-02 -0.17173616324E-01  0.24548767547E-02  0.17865773741E-01  0.00000000000E+00 0. -1.
     999901    1    3    3    0    0 -0.67526847095E-01  0.12629882105E+00 -0.19480124785E-01  0.89179075042E+00  0.88000000000E+00 0.  1.
        -11    1    4    4    0    0  0.37519130249E-01 -0.26012157336E-01  0.22527408939E-03  0.45657741220E-01  0.51100000000E-03 0.  1.
         11    1    4    4    0    0  0.25738483442E-01 -0.83113047389E-01  0.16799973941E-01  0.88615734616E-01  0.51100000000E-03 0. -1.
</event>
<event>
 8    1  0.2846344E+004  0.1043930E+01  0.7957747E-01            NaN
         13   -1    0    0    0    0  0.00000000000E+00  0.00000000000E+00  0.74505805969E-08  0.10566000000E+00  0.10566000000E+00 0. -1.
     999900   -1    0    0    0    0 -0.00000000000E+00 -0.00000000000E+00 -0.74505805969E-08  0.93827000000E+00  0.93827000000E+00 0.  1.
     999902    2    1    2    0    0 -0.70251650679E-02 -0.11474611180E-01 -0.49742920398E-02  0.10295855506E+01  0.10294856205E+01 0.  0.
     999903    2    3    3    0    0 -0.97502282444E-01  0.83280070882E-01  0.29935982324E-01  0.13920176497E+00  0.45151999345E-01 0.  0.
         14    1    1    2    0    0  0.70251650679E-02  0.11474611180E-01  0.49742920398E-02  0.14344449354E-01  0.00000000000E+00 0. -1.
     999901    1    3    3    0    0  0.90477117376E-01 -0.94754682062E-01 -0.34910274364E-01  0.89038378568E+00  0.88000000000E+00 0. -1.
        -11    1    4    4    0    0 -0.70683574060E-01  0.33870589798E-01  0.27009984159E-01  0.82904673333E-01  0.51100000000E-03 0. -1.
         11    1    4    4    0    0 -0.26818708384E-01  0.49409481084E-01  0.29259981645E-02  0.56297091636E-01  0.51100000000E-03 0.  1.
</event>
<event>
 8    1  0.2846344E+004  0.1043930E+01  0.7957747E-01            NaN
         13   -1    0    0    0    0  0.00000000000E+00  0.00000000000E+00  0.74505805969E-08  0.10566000000E+00  0.10566000000E+00 0.  1.
     999900   -1    0    0    0    0 -0.00000000000E+00 -0.00000000000E+00 -0.74505805969E-08  0.93827000000E+00  0.93827000000E+00 0. -1.
     999902    2    1    2    0    0  0.98742178940E-02 -0.63932129209E-02  0.76398390913E-02  0.10299035788E+01  0.10298080603E+01 0.  0.
     999903    2    3    3    0    0  0.12363642425E+00  0.49979177850E-01  0.63555136258E-02  0.14079091128E+00  0.44696806663E-01 0.  0.
         14    1    1    2    0    0 -0.98742178940E-02  0.63932129209E-02 -0.76398390913E-02  0.14026421205E-01  0.00000000000E+00 0. -1.
     999901    1    3    3    0    0 -0.11376220636E+00 -0.56372390771E-01  0.12843254655E-02  0.88911266751E+00  0.88000000000E+00 0.  1.
        -11    1    4    4    0    0  0.10173336416E+00  0.52005710191E-01  0.18366937503E-01  0.11572327679E+00  0.51100000000E-03 0. -1.
         11    1    4    4    0    0  0.21903060090E-01 -0.20265323407E-02 -0.12011423877E-01  0.25067634495E-01  0.51100000000E-03 0.  1.
</event>
<event>
 8    1  0.2846344E+004  0.1043930E+01  0.7957747E-01            NaN
         13   -1    0    0    0    0  0.00000000000E+00  0.00000000000E+00  0.74505805969E-08  0.10566000000E+00  0.10566000000E+00 0. -1.
     999900   -1    0    0    0    0 -0.00000000000E+00 -0.00000000000E+00 -0.74505805969E-08  0.93827000000E+00  0.93827000000E+00 0. -1.
     999902    2    1    2    0    0 -0.80718190312E-02 -0.12542013776E-01 -0.67329901288E-05  0.10290150271E+01  0.10289069295E+01 0.  0.
     999903    2    3    3    0    0  0.47493842148E-01 -0.12006957730E+00 -0.32016137524E-01  0.14015377716E+00  0.44109860059E-01 0.  0.
         14    1    1    2    0    0  0.80718190312E-02  0.12542013776E-01  0.67329901288E-05  0.14914972925E-01  0.00000000000E+00 0.  1.
     999901    1    3    3    0    0 -0.55565661179E-01  0.10752756353E+00  0.32009404534E-01  0.88886124991E+00  0.88000000000E+00 0.  1.
        -11    1    4    4    0    0  0.50969730097E-01 -0.95831118637E-01 -0.37890760639E-01  0.11496733253E+00  0.51100000000E-03 0.  1.
         11    1    4    4    0    0 -0.34758879488E-02 -0.24238458668E-01  0.58746231145E-02  0.25186444635E-01  0.51100000000E-03 0. -1.
</event>
<event>
 8    1  0.2846344E+004  0.1043930E+01  0.7957747E-01            NaN
         13   -1    0    0    0    0  0.00000000000E+00  0.00000000000E+00  0.74505805969E-08  0.10566000000E+00  0.10566000000E+00 0. -1.
     999900   -1    0    0    0    0 -0.00000000000E+00 -0.00000000000E+00 -0.74505805969E-08  0.93827000000E+00  0.93827000000E+00 0.  1.
     999902    2    1    2    0    0  0.46895196222E-03  0.12120698369E-01 -0.24071926793E-02  0.10315636820E+01  0.10314895560E+01 0.  0.
     999903    2    3    3    0    0 -0.21038930238E-01 -0.34462453840E-01  0.12705557298E+00  0.14061296125E+00  0.44705580594E-01 0.  0.
         14    1    1    2    0    0 -0.46895196222E-03 -0.12120698369E-01  0.24071926793E-02  0.12366318024E-01  0.00000000000E+00 0. -1.
     999901    1    3    3    0    0  0.21507882201E-01  0.46583152209E-01 -0.12946276566E+00  0.89095072072E+00  0.88000000000E+00 0.  1.
        -11    1    4    4    0    0  0.14578829519E-02 -0.18330137104E-01  0.10076953677E+00  0.10243475978E+00  0.51100000000E-03 0. -1.
         11    1    4    4    0    0 -0.22496813190E-01 -0.16132316736E-01  0.26286036206E-01  0.38178201469E-01  0.51100000000E-03 0.  1.
</event>
<event>
 8    1  0.2846344E+004  0.1043930E+01  0.7957747E-01            NaN
         13   -1    0    0    0    0  0.00000000000E+00  0.00000000000E+00  0.74505805969E-08  0.10566000000E+00  0.10566000000E+00 0. -1.
     999900   -1    0    0    0    0 -0.00000000000E+00 -0.00000000000E+00 -0.74505805969E-08  0.93827000000E+00  0.93827000000E+00 0. -1.
     999902    2    1    2    0    0 -0.63379230589E-02  0.56838962872E-02  0.12141612703E-01  0.10291011530E+01  0.10289943092E+01 0.  0.
     999903    2    3    3    0    0 -0.60313372054E-01  0.11760192777E+00  0.11988434705E-01  0.14037227510E+00  0.45746440143E-01 0.  0.
         14    1    1    2    0    0  0.63379230589E-02 -0.56838962872E-02 -0.12141612703E-01  0.14828847047E-01  0.00000000000E+00 0.  1.
     999901    1    3    3    0    0  0.53975448995E-01 -0.11191803149E+00  0.15317799841E-03  0.88872887785E+00  0.88000000000E+00 0. -1.
        -11    1    4    4    0    0 -0.35251869973E-01  0.76364685980E-01 -0.14456256892E-01  0.85343447820E-01  0.51100000000E-03 0. -1.
         11    1    4    4    0    0 -0.25061502080E-01  0.41237241793E-01  0.26444691597E-01  0.55028827281E-01  0.51100000000E-03 0.  1.
</event>
<event>
 8    1  0.2846344E+004  0.1043930E+01  0.7957747E-01            NaN
         13   -1    0    0    0    0  0.00000000000E+00  0.00000000000E+00  0.74505805969E-08  0.10566000000E+00  0.10566000000E+00 0.  1.
     999900   -1    0    0    0    0 -0.00000000000E+00 -0.00000000000E+00 -0.74505805969E-08  0.93827000000E+00  0.93827000000E+00 0. -1.
     999902    2    1    2    0    0  0.53658531014E-02 -0.53482463358E-02 -0.12164240835E-01  0.10295994427E+01  0.10294997074E+01 0.  0.
     999903    2    3    3    0    0 -0.18832593936E-01 -0.11854744183E+00 -0.58943164476E-01  0.14078681315E+00  0.44028031494E-01 0.  0.
         14    1    1    2    0    0 -0.53658531014E-02  0.53482463358E-02  0.12164240835E-01  0.14330557333E-01  0.00000000000E+00 0.  1.
     999901    1    3    3    0    0  0.24198447037E-01  0.11319919550E+00  0.46778923641E-01  0.88881262952E+00  0.88000000000E+00 0.  1.
        -11    1    4    4    0    0 -0.14790562147E-01 -0.10993493976E+00 -0.37116908212E-01  0.11697169617E+00  0.51100000000E-03 0. -1.
         11    1    4    4    0    0 -0.40420317889E-02 -0.86125020716E-02 -0.21826256263E-01  0.23815116972E-01  0.51100000000E-03 0.  1.
</event>
<event>
 8    1  0.2846344E+004  0.1043930E+01  0.7957747E-01            NaN
         13   -1    0    0    0    0  0.00000000000E+00  0.00000000000E+00  0.74505805969E-08  0.10566000000E+00  0.10566000000E+00 0.  1.
     999900   -1    0    0    0    0 -0.00000000000E+00 -0.00000000000E+00 -0.74505805969E-08  0.93827000000E+00  0.93827000000E+00 0. -1.
     999902    2    1    2    0    0  0.13385773191E-01  0.19463850770E-02 -0.78176667402E-02  0.10283068360E+01  0.10281881471E+01 0.  0.
     999903    2    3    3    0    0  0.72790126030E-01  0.89775148069E-01  0.62984183595E-01  0.13911862719E+00  0.45044482358E-01 0.  0.
         14    1    1    2    0    0 -0.13385773191E-01 -0.19463850770E-02  0.78176667402E-02  0.15623163958E-01  0.00000000000E+00 0.  1.
     999901    1    3    3    0    0 -0.59404352839E-01 -0.87828762992E-01 -0.70801850335E-01  0.88918820885E+00  0.88000000000E+00 0. -1.
        -11    1    4    4    0    0  0.32186989556E-01  0.87613282590E-02  0.15019006177E-01  0.36586812339E-01  0.51100000000E-03 0. -1.
         11    1    4    4    0    0  0.40603136473E-01  0.81013819810E-01  0.47965177418E-01  0.10253181485E+00  0.51100000000E-03 0.  1.
</event>
<event>
 8    1  0.2846344E+004  0.1043930E+01  0.7957747E-01            NaN
         13   -1    0    0    0    0  0.00000000000E+00  0.00000000000E+00  0.74505805969E-08  0.10566000000E+00  0.10566000000E+00 0. -1.
     999900   -1    0    0    0    0 -0.00000000000E+00 -0.00000000000E+00 -0.74505805969E-08  0.93827000000E+00  0.93827000000E+00 0.  1.
     999902    2    1    2    0    0 -0.16325340474E-02  0.73370803648E-02  0.11956557787E-01  0.10298070687E+01  0.10297102221E+01 0.  0.
     999903    2    3    3    0    0  0.60719875449E-01  0.11227085870E+00 -0.36713944925E-01  0.14004994525E+00  0.44434495898E-01 0.  0.
         14    1    1    2    0    0  0.16325340474E-02 -0.73370803648E-02 -0.11956557787E-01  0.14122931346E-01  0.00000000000E+00 0.  1.
     999901    1    3    3    0    0 -0.62352409496E-01 -0.10493377834E+00  0.48670502712E-01  0.88975712340E+00  0.88000000000E+00 0. -1.
        -11    1    4    4    0    0  0.11624092180E-01  0.59325450051E-01 -0.30117143469E-01  0.67542075734E-01  0.51100000000E-03 0.  1.
         11    1    4    4    0    0  0.49095783268E-01  0.52945408651E-01 -0.65968014565E-02  0.72507869520E-01  0.51100000000E-03 0. -1.
</event>
<event>
 8    1  0.2846344E+004  0.1043930E+01  0.7957747E-01            NaN
         13   -1    0    0    0    0  0.00000000000E+00  0.00000000000E+00  0.74505805969E-08  0.10566000000E+00  0.10566000000E+00 0.  1.
     999900   -1    0    0    0    0 -0.00000000000E+00 -0.00000000000E+00 -0.74505805969E-08  0.93827000000E+00  0.93827000000E+00 0.  1.
     999902    2    1    2    0    0 -0.34716654465E-02 -0.12127744984E-01 -0.76991873327E-02  0.10291512265E+01  0.10290451083E+01 0.  0.
     999903    2    3    3    0    0  0.11908233887E+00  0.35123289348E-01  0.40456135338E-01  0.13810067841E+00  0.44953860865E-01 0.  0.
         14    1    1    2    0    0  0.34716654465E-02  0.12127744984E-01  0.76991873327E-02  0.14778773459E-01  0.00000000000E+00 0.  1.
     999901    1    3    3    0    0 -0.12255400431E+00 -0.47251034332E-01 -0.48155322670E-01  0.89105054813E+00  0.88000000000E+00 0. -1.
        -11    1    4    4    0    0  0.24110375005E-01  0.27093642963E-01  0.60741581299E-02  0.36776788738E-01  0.51100000000E-03 0. -1.
         11    1    4    4    0    0  0.94971963863E-01  0.80296463847E-02  0.34381977208E-01  0.10132388967E+00  0.51100000000E-03 0.  1.
</event>
<event>
 8    1  0.2846344E+004  0.1043930E+01  0.7957747E-01            NaN
         13   -1    0    0    0    0  0.00000000000E+00  0.00000000000E+00  0.74505805969E-08  0.10566000000E+00  0.10566000000E+00 0.  1.
     999900   -1    0    0    0    0 -0.00000000000E+00 -0.00000000000E+00 -0.74505805969E-08  0.93827000000E+00  0.93827000000E+00 0. -1.
     999902    2    1    2    0    0  0.10241373598E-01 -0.50440496083E-02 -0.72835277445E-02  0.10303882887E+01  0.10302992999E+01 0.  0.
     999903    2    3    3    0    0 -0.49304439710E-01  0.17994632792E-01 -0.12200827108E+00  0.14064773574E+00  0.46271295362E-01 0.  0.
         14    1    1    2    0    0 -0.10241373598E-01  0.50440496083E-02  0.72835277445E-02  0.13541711341E-01  0.00000000000E+00 0.  1.
     999901    1    3    3    0    0  0.59545813308E-01 -0.23038682401E-01  0.11472474333E+00  0.88974055292E+00  0.88000000000E+00 0.  1.
        -11    1    4    4    0    0 -0.12739043580E-01 -0.13969511462E-01 -0.52899325702E-01  0.56178556964E-01  0.51100000000E-03 0.  1.
         11    1    4    4    0    0 -0.36565396130E-01  0.31964144254E-01 -0.69108945374E-01  0.84469178780E-01  0.51100000000E-03 0. -1.
</event>
<event>
 8    1  0.2846344E+004  0.1043930E+01  0.7957747E-01            NaN
         13   -1    0    0    0    0  0.00000000000E+00  0.00000000000E+00  0.74505805969E-08  0.10566000000E+00  0.10566000000E+00 0.  1.
     999900   -1    0    0    0    0 -0.00000000000E+00 -0.00000000000E+00 -0.74505805969E-08  0.93827000000E+00  0.93827000000E+00 0. -1.
     999902    2    1    2    0    0 -0.13316123885E-01 -0.20913046227E-02 -0.76676052653E-03  0.10304288655E+01  0.10303404128E+01 0.  0.
     999903    2    3    3    0    0  0.11501797256E+00 -0.64132901104E-01 -0.94162029635E-03  0.13895882645E+00  0.44345301687E-01 0.  0.
         14    1    1    2    0    0  0.13316123885E-01  0.20913046227E-02  0.76676052653E-03  0.13501134473E-01  0.00000000000E+00 0.  1.
     999901    1    3    3    0    0 -0.12833409645E+00  0.62041596482E-01  0.17485976982E-03  0.89147003908E+00  0.88000000000E+00 0. -1.
        -11    1    4    4    0    0  0.18595166114E-01 -0.10096103137E-01 -0.17152729335E-01  0.27243141265E-01  0.51100000000E-03 0.  1.
         11    1    4    4    0    0  0.96422806448E-01 -0.54036797968E-01  0.16211109038E-01  0.11171568518E+00  0.51100000000E-03 0. -1.
</event>
<event>
 7    1  0.2846344E+004  0.1043930E+01  0.7957747E-01            NaN
         13   -1    0    0    0    0  0.00000000000E+00  0.00000000000E+00  0.74505805969E-08  0.10566000000E+00  0.10566000000E+00 0.  1.
     999900   -1    0    0    0    0 -0.00000000000E+00 -0.00000000000E+00 -0.74505805969E-08  0.93827000000E+00  0.93827000000E+00 0.  1.
     999903    2    1    2    0    0  0.10738880503E-01  0.79830411660E-01  0.32432875276E-01  0.97775871799E-01  0.44944538347E-01 0.  0.
         14    1    1    2    0    0 -0.77921784877E-02  0.69842371524E-02  0.56459099610E-01  0.57420619493E-01  0.00000000000E+00 0.  1.
     999901    1    1    2    0    0 -0.29467020152E-02 -0.86814648812E-01 -0.88891974886E-01  0.88873350871E+00  0.88000000000E+00 0.  1.
        -11    1    3    3    0    0  0.96268731195E-02  0.39482765705E-01  0.39638258052E-01  0.56771631086E-01  0.51100000000E-03 0.  1.
         11    1    3    3    0    0  0.11120073834E-02  0.40347645955E-01 -0.72053827761E-02  0.41004240713E-01  0.51100000000E-03 0. -1.
</event>
<event>
 8    1  0.2846344E+004  0.1043930E+01  0.7957747E-01            NaN
         13   -1    0    0    0    0  0.00000000000E+00  0.00000000000E+00  0.74505805969E-08  0.10566000000E+00  0.10566000000E+00 0. -1.
     999900   -1    0    0    0    0 -0.00000000000E+00 -0.00000000000E+00 -0.74505805969E-08  0.93827000000E+00  0.93827000000E+00 0. -1.
     999902    2    1    2    0    0 -0.82114470042E-02  0.13591254929E-03 -0.11402537504E-01  0.10298778046E+01  0.10297819324E+01 0.  0.
     999903    2    3    3    0    0  0.11344016215E+00 -0.53987641194E-01  0.38055093630E-01  0.13848870305E+00  0.44131563883E-01 0.  0.
         14    1    1    2    0    0  0.82114470042E-02 -0.13591254929E-03  0.11402537504E-01  0.14052195403E-01  0.00000000000E+00 0. -1.
     999901    1    3    3    0    0 -0.12165160915E+00  0.54123553743E-01 -0.49457631133E-01  0.89138910155E+00  0.88000000000E+00 0. -1.
        -11    1    4    4    0    0  0.10277846931E+00 -0.36746728657E-01  0.43488542843E-01  0.11749574588E+00  0.51100000000E-03 0.  1.
         11    1    4    4    0    0  0.10661692842E-01 -0.17240912536E-01 -0.54334492131E-02  0.20992957169E-01  0.51100000000E-03 0. -1.
</event>
<event>
 8    1  0.2846344E+004  0.1043930E+01  0.7957747E-01            NaN
         13   -1    0    0    0    0  0.00000000000E+00  0.00000000000E+00  0.74505805969E-08  0.10566000000E+00  0.10566000000E+00 0.  1.
     999900   -1    0    0    0    0 -0.00000000000E+00 -0.00000000000E+00 -0.74505805969E-08  0.93827000000E+00  0.93827000000E+00 0. -1.
     999902    2    1    2    0    0 -0.82036857622E-02 -0.81358459327E-02 -0.78783497556E-02  0.10299456929E+01  0.10298507511E+01 0.  0.
     999903    2    3    3    0    0 -0.31592526444E-01 -0.50947451611E-02 -0.12997774300E+00  0.14120245218E+00  0.44943015830E-01 0.  0.
         14    1    1    2    0    0  0.82036857622E-02  0.81358459327E-02  0.78783497556E-02  0.13984307062E-01  0.00000000000E+00 0. -1.
     999901    1    3    3    0    0  0.23388840682E-01 -0.30411007716E-02  0.12209939324E+00  0.88874324076E+00  0.88000000000E+00 0.  1.
        -11    1    4    4    0    0 -0.32283470515E-01 -0.19508985260E-01 -0.70074623129E-01  0.79583521548E-01  0.51100000000E-03 0. -1.
         11    1    4    4    0    0  0.69094407069E-03  0.14414240099E-01 -0.59903119868E-01  0.61618930633E-01  0.51100000000E-03 0.  1.
</event>
<event>
 8    1  0.2846344E+004  0.1043930E+01  0.7957747E-01            NaN
         13   -1    0    0    0    0  0.00000000000E+00  0.00000000000E+00  0.74505805969E-08  0.10566000000E+00  0.10566000000E+00 0.  1.
     999900   -1    0    0    0    0 -0.00000000000E+00 -0.00000000000E+00 -0.74505805969E-08  0.93827000000E+00  0.93827000000E+00 0. -1.
     999902    2    1    2    0    0  0.69977281892E-02  0.80019916855E-02  0.90577147551E-02  0.10299642466E+01  0.10298695583E+01 0.  0.
     999903    2    3    3    0    0 -0.11939028631E+00  0.48916688331E-01 -0.27535631272E-01  0.13924149763E+00  0.44532020033E-01 0.  0.
         14    1    1    2    0    0 -0.69977281892E-02 -0.80019916855E-02 -0.90577147551E-02  0.13965753375E-01  0.00000000000E+00 0.  1.
     999901    1    3    3    0    0  0.12638801450E+00 -0.40914696645E-01  0.36593346027E-01  0.89072274900E+00  0.88000000000E+00 0.  1.
        -11    1    4    4    0    0 -0.40064020010E-01  0.12002929462E-01  0.11580240316E-01  0.43399989652E-01  0.51100000000E-03 0. -1.
         11    1    4    4    0    0 -0.79326266304E-01  0.36913758868E-01 -0.39115871589E-01  0.95841507973E-01  0.51100000000E-03 0.  1.
</event>
<event>
 8    1  0.2846344E+004  0.1043930E+01  0.7957747E-01            NaN
         13   -1    0    0    0    0  0.00000000000E+00  0.00000000000E+00  0.74505805969E-08  0.10566000000E+00  0.10566000000E+00 0.  1.
     999900   -1    0    0    0    0 -0.00000000000E+00 -0.00000000000E+00 -0.74505805969E-08  0.93827000000E+00  0.93827000000E+00 0.  1.
     999902    2    1    2    0    0  0.20303264088E-02  0.10784888585E-01 -0.83094785066E-03  0.10329242505E+01  0.10328656160E+01 0.  0.
     999903    2    3    3    0    0 -0.10714626690E+00 -0.80583092288E-01  0.81353327404E-03  0.14148140840E+00  0.45192585832E-01 0.  0.
         14    1    1    2    0    0 -0.20303264088E-02 -0.10784888585E-01  0.83094785066E-03  0.11005749473E-01  0.00000000000E+00 0. -1.
     999901    1    3    3    0    0  0.10917659331E+00  0.91367980873E-01 -0.16444811247E-02  0.89144284212E+00  0.88000000000E+00 0. -1.
        -11    1    4    4    0    0 -0.20435320555E-01 -0.19900121808E-01 -0.18354099570E-01  0.33922724923E-01  0.51100000000E-03 0. -1.
         11    1    4    4    0    0 -0.86710946345E-01 -0.60682970480E-01  0.19167632844E-01  0.10755868348E+00  0.51100000000E-03 0.  1.
</event>
<event>
 8    1  0.2846344E+004  0.1043930E+01  0.7957747E-01            NaN
         13   -1    0    0    0    0  0.00000000000E+00  0.00000000000E+00  0.74505805969E-08  0.10566000000E+00  0.10566000000E+00 0. -1.
     999900   -1    0    0    0    0 -0.00000000000E+00 -0.00000000000E+00 -0.74505805969E-08  0.93827000000E+00  0.93827000000E+00 0. -1.
     999902    2    1    2    0    0  0.23042883717E-02  0.86249476719E-02 -0.53454792054E-02  0.10335245392E+01  0.10334721571E+01 0.  0.
     999903    2    3    3    0    0 -0.36911495640E-02  0.13693030853E+00 -0.61252249213E-02  0.14419961603E+00  0.44637169531E-01 0.  0.
         14    1    1    2    0    0 -0.23042883717E-02 -0.86249476719E-02  0.53454792054E-02  0.10405460835E-01  0.00000000000E+00 0. -1.
     999901    1    3    3    0    0  0.59954379357E-02 -0.12830536086E+00  0.77974571594E-03  0.88932492313E+00  0.88000000000E+00 0.  1.
        -11    1    4    4    0    0 -0.41849624134E-02  0.64952515799E-01 -0.25097153052E-01  0.69760099135E-01  0.51100000000E-03 0.  1.
         11    1    4    4    0    0  0.49381284943E-03  0.71977792734E-01  0.18971928131E-01  0.74439516898E-01  0.51100000000E-03 0. -1.
</event>
<event>
 7    1  0.2846344E+004  0.1043930E+01  0.7957747E-01            NaN
         13   -1    0    0    0    0  0.00000000000E+00  0.00000000000E+00  0.74505805969E-08  0.10566000000E+00  0.10566000000E+00 0.  1.
     999900   -1    0    0    0    0 -0.00000000000E+00 -0.00000000000E+00 -0.74505805969E-08  0.93827000000E+00  0.93827000000E+00 0. -1.
     999903    2    1    2    0    0  0.45801237125E-01 -0.11193943309E+00 -0.69307547829E-02  0.12922187327E+00  0.44967401162E-01 0.  0.
         14    1    1    2    0    0  0.35842274236E-02  0.23487438258E-01 -0.15922903842E-01  0.28601491375E-01  0.00000000000E+00 0. -1.
     999901    1    1    2    0    0 -0.49385464549E-01  0.88451994835E-01  0.22853658625E-01  0.88610663535E+00  0.88000000000E+00 0.  1.
        -11    1    3    3    0    0  0.16915640681E-01 -0.91859552034E-01 -0.22579427519E-03  0.93405718795E-01  0.51100000000E-03 0. -1.
         11    1    3    3    0    0  0.28885596444E-01 -0.20079881059E-01 -0.67049605077E-02  0.35816154479E-01  0.51100000000E-03 0.  1.
</event>
<event>
 8    1  0.2846344E+004  0.1043930E+01  0.7957747E-01            NaN
         13   -1    0    0    0    0  0.00000000000E+00  0.00000000000E+00  0.74505805969E-08  0.10566000000E+00  0.10566000000E+00 0.  1.
     999900   -1    0    0    0    0 -0.00000000000E+00 -0.00000000000E+00 -0.74505805969E-08  0.93827000000E+00  0.93827000000E+00 0.  1.
     999902    2    1    2    0    0 -0.83726739717E-02 -0.30082064229E-02 -0.12039557526E-01  0.10289599659E+01  0.10288510628E+01 0.  0.
     999903    2    3    3    0    0  0.81594361873E-01  0.96285965050E-01  0.32047835406E-01  0.13772649580E+00  0.44865319965E-01 0.  0.
         14    1    1    2    0    0  0.83726739717E-02  0.30082064229E-02  0.12039557526E-01  0.14970034093E-01  0.00000000000E+00 0.  1.
     999901    1    3    3    0    0 -0.89967035845E-01 -0.99294171473E-01 -0.44087392932E-01  0.89123347011E+00  0.88000000000E+00 0. -1.
        -11    1    4    4    0    0  0.63504305540E-01  0.75877013488E-01  0.43571688899E-01  0.10811508309E+00  0.51100000000E-03 0.  1.
         11    1    4    4    0    0  0.18090056333E-01  0.20408951561E-01 -0.11523853493E-01  0.29611412704E-01  0.51100000000E-03 0. -1.
</event>
<event>
 8    1  0.2846344E+004  0.1043930E+01  0.7957747E-01            NaN
         13   -1    0    0    0    0  0.00000000000E+00  0.00000000000E+00  0.74505805969E-08  0.10566000000E+00  0.10566000000E+00 0. -1.
     999900   -1    0    0    0    0 -0.00000000000E+00 -0.00000000000E+00 -0.74505805969E-08  0.93827000000E+00  0.93827000000E+00 0. -1.
     999902    2    1    2    0    0 -0.37181400434E-02 -0.12922663902E-01 -0.19652621159E-02  0.10303402221E+01  0.10302505963E+01 0.  0.
     999903    2    3    3    0    0  0.10826269339E+00 -0.68374589578E-01 -0.32048018554E-01  0.14100361804E+00  0.49588804453E-01 0.  0.
         14    1    1    2    0    0  0.37181400434E-02  0.12922663902E-01  0.19652621159E-02  0.13589777883E-01  0.00000000000E+00 0.  1.
     999901    1    3    3    0    0 -0.11198083343E+00  0.55451925676E-01  0.30082756438E-01  0.88933660408E+00  0.88000000000E+00 0.  1.
        -11    1    4    4    0    0  0.83567589181E-01 -0.72164638775E-01 -0.16683463876E-01  0.11166859961E+00  0.51100000000E-03 0.  1.
         11    1    4    4    0    0  0.24695104209E-01  0.37900491968E-02 -0.15364554678E-01  0.29335018429E-01  0.51100000000E-03 0. -1.
</event>
<event>
 8    1  0.2846344E+004  0.1043930E+01  0.7957747E-01            NaN
         13   -1    0    0    0    0  0.00000000000E+00  0.00000000000E+00  0.74505805969E-08  0.10566000000E+00  0.10566000000E+00 0.  1.
     999900   -1    0    0    0    0 -0.00000000000E+00 -0.00000000000E+00 -0.74505805969E-08  0.93827000000E+00  0.93827000000E+00 0. -1.
     999902    2    1    2    0    0  0.22203630772E-02  0.52689205619E-02  0.11536195591E-01  0.10310546225E+01  0.10309742282E+01 0.  0.
     999903    2    3    3    0    0  0.36537697200E-01 -0.63086553135E-03 -0.12691540127E+00  0.13954952913E+00  0.45068289218E-01 0.  0.
         14    1    1    2    0    0 -0.22203630772E-02 -0.52689205619E-02 -0.11536195591E-01  0.12875377463E-01  0.00000000000E+00 0. -1.
     999901    1    3    3    0    0 -0.34317334123E-01  0.58997860933E-02  0.13845159686E+00  0.89150509341E+00  0.88000000000E+00 0.  1.
        -11    1    4    4    0    0  0.24762297079E-01  0.11592777456E-01 -0.27820606092E-01  0.39010397205E-01  0.51100000000E-03 0.  1.
         11    1    4    4    0    0  0.11775400121E-01 -0.12223642987E-01 -0.99094795178E-01  0.10053913193E+00  0.51100000000E-03 0. -1.
</event>
<event>
 8    1  0.2846344E+004  0.1043930E+01  0.7957747E-01            NaN
         13   -1    0    0    0    0  0.00000000000E+00  0.00000000000E+00  0.74505805969E-08  0.10566000000E+00  0.10566000000E+00 0. -1.
     999900   -1    0    0    0    0 -0.00000000000E+00 -0.00000000000E+00 -0.74505805969E-08  0.93827000000E+00  0.93827000000E+00 0. -1.
     999902    2    1    2    0    0  0.62173168367E-02 -0.83211301655E-02 -0.43988349751E-02  0.10326496638E+01  0.10325880506E+01 0.  0.
     999903    2    3    3    0    0  0.10515169619E+00 -0.63965393792E-01  0.57639554716E-01  0.14319305592E+00  0.45094147961E-01 0.  0.
         14    1    1    2    0    0 -0.62173168367E-02  0.83211301655E-02  0.43988349751E-02  0.11280336210E-01  0.00000000000E+00 0. -1.
     999901    1    3    3    0    0 -0.98934379354E-01  0.55644263627E-01 -0.62038389691E-01  0.88945660787E+00  0.88000000000E+00 0.  1.
        -11    1    4    4    0    0  0.68893981704E-01 -0.61885072478E-01  0.52655599019E-01  0.10653176118E+00  0.51100000000E-03 0.  1.
         11    1    4    4    0    0  0.36257714486E-01 -0.20803213140E-02  0.49839556967E-02  0.36661294739E-01  0.51100000000E-03 0. -1.
</event>
<event>
 8    1  0.2846344E+004  0.1043930E+01  0.7957747E-01            NaN
         13   -1    0    0    0    0  0.00000000000E+00  0.00000000000E+00  0.74505805969E-08  0.10566000000E+00  0.10566000000E+00 0.  1.
     999900   -1    0    0    0    0 -0.00000000000E+00 -0.00000000000E+00 -0.74505805969E-08  0.93827000000E+00  0.93827000000E+00 0. -1.
     999902    2    1    2    0    0  0.20070947192E-02  0.41133599289E-02  0.13185473656E-01  0.10299727483E+01  0.10298781760E+01 0.  0.
     999903    2    3    3    0    0 -0.16364512207E-01 -0.12205838066E+00 -0.45300477035E-01  0.13886252478E+00  0.45438111953E-01 0.  0.
         14    1    1    2    0    0 -0.20070947192E-02 -0.41133599289E-02 -0.13185473656E-01  0.13957251687E-01  0.00000000000E+00 0. -1.
     999901    1    3    3    0    0  0.18371606926E-01  0.12617174059E+00  0.58485950691E-01  0.89111022354E+00  0.88000000000E+00 0.  1.
        -11    1    4    4    0    0  0.81449684535E-02 -0.70016331831E-01 -0.40107182682E-01  0.81101630426E-01  0.51100000000E-03 0. -1.
         11    1    4    4    0    0 -0.24509480661E-01 -0.52042048831E-01 -0.51932943533E-02  0.57760894349E-01  0.51100000000E-03 0.  1.
</event>
<event>
 8    1  0.2846344E+004  0.1043930E+01  0.7957747E-01            NaN
         13   -1    0    0    0    0  0.00000000000E+00  0.00000000000E+00  0.74505805969E-08  0.10566000000E+00  0.10566000000E+00 0.  1.
     999900   -1    0    0    0    0 -0.00000000000E+00 -0.00000000000E+00 -0.74505805969E-08  0.93827000000E+00  0.93827000000E+00 0.  1.
     999902    2    1    2    0    0  0.35201101827E-02 -0.39567538838E-02  0.12456447348E-01  0.10303944853E+01  0.10303055786E+01 0.  0.
     999903    2    3    3    0    0 -0.11241306807E-01  0.24975439088E-01  0.13158262968E+00  0.14177419603E+00  0.45119781591E-01 0.  0.
         14    1    1    2    0    0 -0.35201101827E-02  0.39567538838E-02 -0.12456447348E-01  0.13535514675E-01  0.00000000000E+00 0. -1.
     999901    1    3    3    0    0  0.14761416990E-01 -0.28932192972E-01 -0.11912618233E+00  0.88862028929E+00  0.88000000000E+00 0.  1.
        -11    1    4    4    0    0  0.14383590300E-01 -0.13938906619E-02  0.54245235860E-01  0.56139445451E-01  0.51100000000E-03 0.  1.
         11    1    4    4    0    0 -0.25624897107E-01  0.26369329750E-01  0.77337393821E-01  0.85634750582E-01  0.51100000000E-03 0. -1.
</event>
<event>
 8    1  0.2846344E+004  0.1043930E+01  0.7957747E-01            NaN
         13   -1    0    0    0    0  0.00000000000E+00  0.00000000000E+00  0.74505805969E-08  0.10566000000E+00  0.10566000000E+00 0. -1.
     999900   -1    0    0    0    0 -0.00000000000E+00 -0.00000000000E+00 -0.74505805969E-08  0.93827000000E+00  0.93827000000E+00 0. -1.
     999902    2    1    2    0    0 -0.28006316235E-02  0.10430653698E-01 -0.80286591482E-02  0.10304726064E+01  0.10303847297E+01 0.  0.
     999903    2    3    3    0    0 -0.77294741035E-01  0.98228490800E-01  0.47522763120E-01  0.14123484685E+00  0.45448383409E-01 0.  0.
         14    1    1    2    0    0  0.28006316235E-02 -0.10430653698E-01  0.80286591482E-02  0.13457393573E-01  0.00000000000E+00 0. -1.
     999901    1    3    3    0    0  0.74494109411E-01 -0.87797837102E-01 -0.55551422268E-01  0.88923775957E+00  0.88000000000E+00 0.  1.
        -11    1    4    4    0    0 -0.78685528323E-01  0.73138679797E-01  0.33921220441E-01  0.11265695348E+00  0.51100000000E-03 0.  1.
         11    1    4    4    0    0  0.13907872880E-02  0.25089811004E-01  0.13601542679E-01  0.28577893374E-01  0.51100000000E-03 0. -1.
</event>
<event>
 8    1  0.2846344E+004  0.1043930E+01  0.7957747E-01            NaN
         13   -1    0    0    0    0  0.00000000000E+00  0.00000000000E+00  0.74505805969E-08  0.10566000000E+00  0.10566000000E+00 0.  1.
     999900   -1    0    0    0    0 -0.00000000000E+00 -0.00000000000E+00 -0.74505805969E-08  0.93827000000E+00  0.93827000000E+00 0.  1.
     999902    2    1    2    0    0 -0.78734471083E-02  0.11633650907E-01 -0.25511437984E-02  0.10296526985E+01  0.10295537083E+01 0.  0.
     999903    2    3    3    0    0 -0.12341358694E+00  0.26579972679E-01 -0.44201957563E-01  0.14099769981E+00  0.44599662687E-01 0.  0.
         14    1    1    2    0    0  0.78734471083E-02 -0.11633650907E-01  0.25511437984E-02  0.14277301477E-01  0.00000000000E+00 0. -1.
     999901    1    3    3    0    0  0.11554013983E+00 -0.14946321772E-01  0.41650813764E-01  0.88865499871E+00  0.88000000000E+00 0.  1.
        -11    1    4    4    0    0 -0.41959035284E-01  0.22789640625E-02  0.57310402660E-02  0.42412972811E-01  0.51100000000E-03 0.  1.
         11    1    4    4    0    0 -0.81454551653E-01  0.24301008616E-01 -0.49932997829E-01  0.98584727002E-01  0.51100000000E-03 0. -1.
</event>
<event>
 7    1  0.2846344E+004  0.1043930E+01  0.7957747E-01            NaN
         13   -1    0    0    0    0  0.00000000000E+00  0.00000000000E+00  0.74505805969E-08  0.10566000000E+00  0.10566000000E+00 0. -1.
     999900   -1    0    0    0    0 -0.00000000000E+00 -0.00000000000E+00 -0.74505805969E-08  0.93827000000E+00  0.93827000000E+00 0.  1.
     999902    2    1    2    0    0 -0.13542141289E-01 -0.11385849610E-02  0.14432258531E-03  0.10303393122E+01  0.10302496743E+01 0.  0.
         14    1    1    2    0    0  0.13542141289E-01  0.11385849610E-02 -0.14432258531E-03  0.13590687819E-01  0.00000000000E+00 0.  1.
     999901    1    3    3    0    0  0.38114260018E-01 -0.10884370403E-01  0.11557295236E+00  0.88844148578E+00  0.88000000000E+00 0. -1.
        -11    1    3    3    0    0 -0.65427423457E-01 -0.31464642653E-03 -0.89781368018E-01  0.11109366277E+00  0.51100000000E-03 0. -1.
         11    1    3    3    0    0  0.13771022150E-01  0.10060431869E-01 -0.25647261760E-01  0.30804163635E-01  0.51100000000E-03 0.  1.
</event>
<event>
 8    1  0.2846344E+004  0.1043930E+01  0.7957747E-01            NaN
         13   -1    0    0    0    0  0.00000000000E+00  0.00000000000E+00  0.74505805969E-08  0.10566000000E+00  0.10566000000E+00 0.  1.
     999900   -1    0    0    0    0 -0.00000000000E+00 -0.00000000000E+00 -0.74505805969E-08  0.93827000000E+00  0.93827000000E+00 0. -1.
     999902    2    1    2    0    0  0.11405479574E-01 -0.28647730721E-02  0.60654080322E-02  0.10306981799E+01  0.10306132431E+01 0.  0.
     999903    2    3    3    0    0  0.39692516278E-01 -0.71694569172E-01  0.10679876618E+00  0.14183097567E+00  0.44659177176E-01 0.  0.
         14    1    1    2    0    0 -0.11405479574E-01  0.28647730721E-02 -0.60654080322E-02  0.13231820119E-01  0.00000000000E+00 0. -1.
     999901    1    3    3    0    0 -0.28287036705E-01  0.68829796100E-01 -0.10073335814E+00  0.88886720421E+00  0.88000000000E+00 0. -1.
        -11    1    4    4    0    0  0.18075609783E-01 -0.68595961596E-01  0.74821689503E-01  0.10310518880E+00  0.51100000000E-03 0. -1.
         11    1    4    4    0    0  0.21616906495E-01 -0.30986075764E-02  0.31977076672E-01  0.38725786872E-01  0.51100000000E-03 0.  1.
</event>
<event>
 8    1  0.2846344E+004  0.1043930E+01  0.7957747E-01            NaN
         13   -1    0    0    0    0  0.00000000000E+00  0.00000000000E+00  0.74505805969E-08  0.10566000000E+00  0.10566000000E+00 0.  1.
     999900   -1    0    0    0    0 -0.00000000000E+00 -0.00000000000E+00 -0.74505805969E-08  0.93827000000E+00  0.93827000000E+00 0. -1.
     999902    2    1    2    0    0 -0.47181422973E-02  0.34758302293E-02  0.11990540761E-01  0.10305840145E+01  0.10304975961E+01 0.  0.
     999903    2    3    3    0    0 -0.59154416593E-01  0.11212552784E+00  0.47770456828E-01  0.14151243851E+00  0.40894678288E-01 0.  0.
         14    1    1    2    0    0  0.47181422973E-02 -0.34758302293E-02 -0.11990540761E-01  0.13345985549E-01  0.00000000000E+00 0. -1.
     999901    1    3    3    0    0  0.54436274295E-01 -0.10864969761E+00 -0.35779916067E-01  0.88907157594E+00  0.88000000000E+00 0.  1.
        -11    1    4    4    0    0 -0.16543775178E-01  0.33926143414E-01 -0.48704697477E-02  0.38061296624E-01  0.51100000000E-03 0. -1.
         11    1    4    4    0    0 -0.42610641415E-01  0.78199384425E-01  0.52640926575E-01  0.10345114189E+00  0.51100000000E-03 0.  1.
</event>
<event>
 8    1  0.2846344E+004  0.1043930E+01  0.7957747E-01            NaN
         13   -1    0    0    0    0  0.00000000000E+00  0.00000000000E+00  0.74505805969E-08  0.10566000000E+00  0.10566000000E+00 0.  1.
     999900   -1    0    0    0    0 -0.00000000000E+00 -0.00000000000E+00 -0.74505805969E-08  0.93827000000E+00  0.93827000000E+00 0.  1.
     999902    2    1    2    0    0  0.26220024572E-03 -0.14202690676E-01  0.56519852829E-03  0.10297136495E+01  0.10296155085E+01 0.  0.
     999903    2    3    3    0    0  0.84964536189E-01 -0.31980249108E-01  0.96978357971E-01  0.14022726705E+00  0.44912979935E-01 0.  0.
         14    1    1    2    0    0 -0.26220024572E-03  0.14202690676E-01 -0.56519852829E-03  0.14216350474E-01  0.00000000000E+00 0.  1.
     999901    1    3    3    0    0 -0.84702335944E-01  0.17777558431E-01 -0.96413159442E-01  0.88948638248E+00  0.88000000000E+00 0.  1.
        -11    1    4    4    0    0  0.13260068570E-01  0.11302477591E-01  0.14430807382E-01  0.22629289447E-01  0.51100000000E-03 0. -1.
         11    1    4    4    0    0  0.71704467619E-01 -0.43282726698E-01  0.82547550589E-01  0.11759797760E+00  0.51100000000E-03 0.  1.
</event>
<event>
 8    1  0.2846344E+004  0.1043930E+01  0.7957747E-01            NaN
         13   -1    0    0    0    0  0.00000000000E+00  0.00000000000E+00  0.74505805969E-08  0.10566000000E+00  0.10566000000E+00 0. -1.
     999900   -1    0    0    0    0 -0.00000000000E+00 -0.00000000000E+00 -0.74505805969E-08  0.93827000000E+00  0.93827000000E+00 0. -1.
     999902    2    1    2    0    0  0.10889951618E-01 -0.11835050304E-01  0.76150627281E-03  0.10278290884E+01  0.10277029705E+01 0.  0.
     999903    2    3    3    0    0 -0.10670977506E+00  0.68305927337E-01 -0.21393257396E-01  0.13612111741E+00  0.44928958819E-01 0.  0.
         14    1    1    2    0    0 -0.10889951618E-01  0.11835050304E-01 -0.76150627281E-03  0.16100911581E-01  0.00000000000E+00 0. -1.
     999901    1    3    3    0    0  0.11759972667E+00 -0.80140977640E-01  0.22154763669E-01  0.89170797101E+00  0.88000000000E+00 0.  1.
        -11    1    4    4    0    0 -0.73991425444E-01  0.63737265505E-01 -0.29657111992E-01  0.10206358541E+00  0.51100000000E-03 0.  1.
         11    1    4    4    0    0 -0.32718349613E-01  0.45686618317E-02  0.82638545953E-02  0.34057532002E-01  0.51100000000E-03 0. -1.
</event>
<event>
 7    1  0.2846344E+004  0.1043930E+01  0.7957747E-01            NaN
         13   -1    0    0    0    0  0.00000000000E+00  0.00000000000E+00  0.74505805969E-08  0.10566000000E+00  0.10566000000E+00 0.  1.
     999900   -1    0    0    0    0 -0.00000000000E+00 -0.00000000000E+00 -0.74505805969E-08  0.93827000000E+00  0.93827000000E+00 0.  1.
     999903    2    1    2    0    0 -0.62867814953E-01 -0.12396865032E-01 -0.15131274119E-01  0.80097902027E-01  0.45614405982E-01 0.  0.
         14    1    1    2    0    0  0.11466914274E-01 -0.75728798413E-01  0.14420858591E-01  0.77937809788E-01  0.00000000000E+00 0.  1.
     999901    1    1    2    0    0  0.51400900679E-01  0.88125663445E-01  0.71041552771E-03  0.88589428818E+00  0.88000000000E+00 0.  1.
        -11    1    3    3    0    0 -0.37302458122E-01  0.15862951066E-01 -0.82932771648E-02  0.41378087989E-01  0.51100000000E-03 0.  1.
         11    1    3    3    0    0 -0.25565356831E-01 -0.28259816098E-01 -0.68379969541E-02  0.38719814038E-01  0.51100000000E-03 0. -1.
</event>
<event>
 7    1  0.2846344E+004  0.1043930E+01  0.7957747E-01            NaN
         13   -1    0    0    0    0  0.00000000000E+00  0.00000000000E+00  0.74505805969E-08  0.10566000000E+00  0.10566000000E+00 0. -1.
     999900   -1    0    0    0    0 -0.00000000000E+00 -0.00000000000E+00 -0.74505805969E-08  0.93827000000E+00  0.93827000000E+00 0. -1.
     999902    2    1    2    0    0 -0.60021072810E-02 -0.55840487797E-02 -0.82254806733E-02  0.10323168426E+01  0.10322515188E+01 0.  0.
         14    1    1    2    0    0  0.60021072810E-02  0.55840487797E-02  0.82254806733E-02  0.11613157404E-01  0.00000000000E+00 0. -1.
     999901    1    3    3    0    0  0.38226731131E-01 -0.20764331608E-01  0.10963475080E+00  0.88786948310E+00  0.88000000000E+00 0.  1.
        -11    1    3    3    0    0 -0.19375558748E-01  0.26803036583E-01 -0.11146683657E+00  0.11627094144E+00  0.51100000000E-03 0.  1.
         11    1    3    3    0    0 -0.24853279664E-01 -0.11622753755E-01 -0.63933949017E-02  0.28176418052E-01  0.51100000000E-03 0. -1.
</event>
<event>
 8    1  0.2846344E+004  0.1043930E+01  0.7957747E-01            NaN
         13   -1    0    0    0    0  0.00000000000E+00  0.00000000000E+00  0.74505805969E-08  0.10566000000E+00  0.10566000000E+00 0.  1.
     999900   -1    0    0    0    0 -0.00000000000E+00 -0.00000000000E+00 -0.74505805969E-08  0.93827000000E+00  0.93827000000E+00 0. -1.
     999902    2    1    2    0    0 -0.42674955767E-02  0.10015095044E-01  0.66466217647E-02  0.10311749528E+01  0.10310960635E+01 0.  0.
     999903    2    3    3    0    0  0.31897407020E-01  0.12422522134E+00 -0.42540689411E-01  0.14169687851E+00  0.42649090638E-01 0.  0.
         14    1    1    2    0    0  0.42674955767E-02 -0.10015095044E-01 -0.66466217647E-02  0.12755047163E-01  0.00000000000E+00 0. -1.
     999901    1    3    3    0    0 -0.36164902597E-01 -0.11421012630E+00  0.49187311176E-01  0.88947807433E+00  0.88000000000E+00 0.  1.
        -11    1    4    4    0    0 -0.56516608427E-02  0.59685267963E-01 -0.12698463294E-01  0.61284456211E-01  0.51100000000E-03 0. -1.
         11    1    4    4    0    0  0.37549067863E-01  0.64539953378E-01 -0.29842226117E-01  0.80412422299E-01  0.51100000000E-03 0.  1.
</event>
<event>
 7    1  0.2846344E+004  0.1043930E+01  0.7957747E-01            NaN
         13   -1    0    0    0    0  0.00000000000E+00  0.00000000000E+00  0.74505805969E-08  0.10566000000E+00  0.10566000000E+00 0. -1.
     999900   -1    0    0    0    0 -0.00000000000E+00 -0.00000000000E+00 -0.74505805969E-08  0.93827000000E+00  0.93827000000E+00 0.  1.
     999903    2    1    2    0    0  0.38499626032E-01 -0.43722303205E-01  0.70005885047E-01  0.10130782483E+00  0.44368800169E-01 0.  0.
         14    1    1    2    0    0 -0.33964899980E-01 -0.29965555189E-01  0.29330399381E-01  0.53961294057E-01  0.00000000000E+00 0. -1.
     999901    1    1    2    0    0 -0.45347260511E-02  0.73687858395E-01 -0.99336284428E-01  0.88866088111E+00  0.88000000000E+00 0.  1.
        -11    1    3    3    0    0  0.83008995899E-02 -0.40023018939E-01  0.28455265384E-01  0.49806728743E-01  0.51100000000E-03 0. -1.
         11    1    3    3    0    0  0.30198726442E-01 -0.36992842659E-02  0.41550619664E-01  0.51501096087E-01  0.51100000000E-03 0.  1.
</event>
<event>
 8    1  0.2846344E+004  0.1043930E+01  0.7957747E-01            NaN
         13   -1    0    0    0    0  0.00000000000E+00  0.00000000000E+00  0.74505805969E-08  0.10566000000E+00  0.10566000000E+00 0.  1.
     999900   -1    0    0    0    0 -0.00000000000E+00 -0.00000000000E+00 -0.74505805969E-08  0.93827000000E+00  0.93827000000E+00 0. -1.
     999902    2    1    2    0    0 -0.69114363146E-02  0.89368795888E-02  0.77059774649E-02  0.10302545528E+01  0.10301637858E+01 0.  0.
     999903    2    3    3    0    0 -0.93761839959E-01 -0.93094446580E-01 -0.11479039780E-01  0.13990549254E+00  0.44541215436E-01 0.  0.
         14    1    1    2    0    0  0.69114363146E-02 -0.89368795888E-02 -0.77059774649E-02  0.13675447247E-01  0.00000000000E+00 0. -1.
     999901    1    3    3    0    0  0.86850403644E-01  0.10203132617E+00  0.19185017245E-01  0.89034906021E+00  0.88000000000E+00 0.  1.
        -11    1    4    4    0    0 -0.76621387611E-01 -0.55448498110E-01 -0.22240567746E-01  0.97161087668E-01  0.51100000000E-03 0.  1.
         11    1    4    4    0    0 -0.17140452348E-01 -0.37645948469E-01  0.10761527966E-01  0.42744404874E-01  0.51100000000E-03 0. -1.
</event>
<event>
 8    1  0.2846344E+004  0.1043930E+01  0.7957747E-01            NaN
         13   -1    0    0    0    0  0.00000000000E+00  0.00000000000E+00  0.74505805969E-08  0.10566000000E+00  0.10566000000E+00 0. -1.
     999900   -1    0    0    0    0 -0.00000000000E+00 -0.00000000000E+00 -0.74505805969E-08  0.93827000000E+00  0.93827000000E+00 0. -1.
     999902    2    1    2    0    0  0.60665640683E-02  0.86154391526E-02 -0.12860072477E-01  0.10273044036E+01  0.10271698629E+01 0.  0.
     999903    2    3    3    0    0  0.12010130910E+00 -0.13785484625E-01 -0.51676645911E-01  0.13881554558E+00  0.44552395325E-01 0.  0.
         14    1    1    2    0    0 -0.60665640683E-02 -0.86154391526E-02  0.12860072477E-01  0.16625596396E-01  0.00000000000E+00 0. -1.
     999901    1    3    3    0    0 -0.11403474503E+00  0.22400923778E-01  0.38816573434E-01  0.88848885802E+00  0.88000000000E+00 0.  1.
        -11    1    4    4    0    0  0.70026128789E-01 -0.62961435620E-02 -0.53182235539E-01  0.88158445057E-01  0.51100000000E-03 0. -1.
         11    1    4    4    0    0  0.50075180307E-01 -0.74893410632E-02  0.15055896276E-02  0.50657100523E-01  0.51100000000E-03 0.  1.
</event>
<event>
 8    1  0.2846344E+004  0.1043930E+01  0.7957747E-01            NaN
         13   -1    0    0    0    0  0.00000000000E+00  0.00000000000E+00  0.74505805969E-08  0.10566000000E+00  0.10566000000E+00 0. -1.
     999900   -1    0    0    0    0 -0.00000000000E+00 -0.00000000000E+00 -0.74505805969E-08  0.93827000000E+00  0.93827000000E+00 0. -1.
     999902    2    1    2    0    0  0.11852265847E-02 -0.10037537398E-01 -0.11255926766E-01  0.10288021182E+01  0.10286908893E+01 0.  0.
     999903    2    3    3    0    0  0.40894405598E-01  0.11601394002E+00 -0.45210267827E-01  0.13828614919E+00  0.44130534250E-01 0.  0.
         14    1    1    2    0    0 -0.11852265847E-02  0.10037537398E-01  0.11255926766E-01  0.15127881757E-01  0.00000000000E+00 0. -1.
     999901    1    3    3    0    0 -0.39709179013E-01 -0.12605147742E+00  0.33954341061E-01  0.89051596905E+00  0.88000000000E+00 0.  1.
        -11    1    4    4    0    0  0.93857949198E-02  0.55368027183E-01 -0.41520331026E-01  0.69842040276E-01  0.51100000000E-03 0. -1.
         11    1    4    4    0    0  0.31508610678E-01  0.60645912838E-01 -0.36899368010E-02  0.68444108917E-01  0.51100000000E-03 0.  1.
</event>
<event>
 8    1  0.2846344E+004  0.1043930E+01  0.7957747E-01            NaN
         13   -1    0    0    0    0  0.00000000000E+00  0.00000000000E+00  0.74505805969E-08  0.10566000000E+00  0.10566000000E+00 0. -1.
     999900   -1    0    0    0    0 -0.00000000000E+00 -0.00000000000E+00 -0.74505805969E-08  0.93827000000E+00  0.93827000000E+00 0.  1.
     999902    2    1    2    0    0 -0.71819979662E-02  0.46602987601E-02 -0.10442203860E-01  0.10304267004E+01  0.10303382191E+01 0.  0.
     999903    2    3    3    0    0  0.89803741878E-01  0.63001101536E-02  0.95482107966E-01  0.13878277898E+00  0.45159975175E-01 0.  0.
         14    1    1    2    0    0  0.71819979662E-02 -0.46602987601E-02  0.10442203860E-01  0.13503299626E-01  0.00000000000E+00 0.  1.
     999901    1    3    3    0    0 -0.96985739844E-01 -0.16398113935E-02 -0.10592431183E+00  0.89164392139E+00  0.88000000000E+00 0.  1.
        -11    1    4    4    0    0  0.86680982387E-01  0.10971647938E-01  0.67971159975E-01  0.11069918462E+00  0.51100000000E-03 0. -1.
         11    1    4    4    0    0  0.31227594916E-02 -0.46715377848E-02  0.27510947992E-01  0.28083594366E-01  0.51100000000E-03 0.  1.
</event>
<event>
 8    1  0.2846344E+004  0.1043930E+01  0.7957747E-01            NaN
         13   -1    0    0    0    0  0.00000000000E+00  0.00000000000E+00  0.74505805969E-08  0.10566000000E+00  0.10566000000E+00 0.  1.
     999900   -1    0    0    0    0 -0.00000000000E+00 -0.00000000000E+00 -0.74505805969E-08  0.93827000000E+00  0.93827000000E+00 0.  1.
     999902    2    1    2    0    0 -0.10774985770E-01  0.43609761051E-02  0.12734506562E-02  0.10322364074E+01  0.10321701704E+01 0.  0.
     999903    2    3    3    0    0  0.78896676999E-01 -0.14080564773E-01 -0.10669644272E+00  0.14092355807E+00  0.45303094643E-01 0.  0.
         14    1    1    2    0    0  0.10774985770E-01 -0.43609761051E-02 -0.12734506562E-02  0.11693592583E-01  0.00000000000E+00 0. -1.
     999901    1    3    3    0    0 -0.89671662769E-01  0.18441540878E-01  0.10796989338E+00  0.89131284935E+00  0.88000000000E+00 0. -1.
        -11    1    4    4    0    0  0.25206796273E-01  0.50743183605E-02 -0.66134686629E-01  0.70959066945E-01  0.51100000000E-03 0.  1.
         11    1    4    4    0    0  0.53689880726E-01 -0.19154883134E-01 -0.40561756091E-01  0.69964491126E-01  0.51100000000E-03 0. -1.
</event>
<event>
 8    1  0.2846344E+004  0.1043930E+01  0.7957747E-01            NaN
         13   -1    0    0    0    0  0.00000000000E+00  0.00000000000E+00  0.74505805969E-08  0.10566000000E+00  0.10566000000E+00 0.  1.
     999900   -1    0    0    0    0 -0.00000000000E+00 -0.00000000000E+00 -0.74505805969E-08  0.93827000000E+00  0.93827000000E+00 0.  1.
     999902    2    1    2    0    0 -0.11825672588E-01  0.32480072175E-02  0.50517446091E-02  0.10306666593E+01  0.10305813148E+01 0.  0.
     999903    2    3    3    0    0  0.12244036619E+00  0.23957033438E-01  0.42966478427E-01  0.13943506202E+00  0.45060354289E-01 0.  0.
         14    1    1    2    0    0  0.11825672588E-01 -0.32480072175E-02 -0.50517446091E-02  0.13263340704E-01  0.00000000000E+00 0. -1.
     999901    1    3    3    0    0 -0.13426603878E+00 -0.20709026220E-01 -0.37914733818E-01  0.89123159727E+00  0.88000000000E+00 0. -1.
        -11    1    4    4    0    0  0.76995763563E-01 -0.32109395593E-02  0.38912449615E-01  0.86331324532E-01  0.51100000000E-03 0.  1.
         11    1    4    4    0    0  0.45444602629E-01  0.27167972997E-01  0.40540288126E-02  0.53103737490E-01  0.51100000000E-03 0. -1.
</event>
<event>
 8    1  0.2846344E+004  0.1043930E+01  0.7957747E-01            NaN
         13   -1    0    0    0    0  0.00000000000E+00  0.00000000000E+00  0.74505805969E-08  0.10566000000E+00  0.10566000000E+00 0.  1.
     999900   -1    0    0    0    0 -0.00000000000E+00 -0.00000000000E+00 -0.74505805969E-08  0.93827000000E+00  0.93827000000E+00 0.  1.
     999902    2    1    2    0    0 -0.33191042357E-02 -0.12276627962E-01 -0.39186445581E-02  0.10306225652E+01  0.10305366485E+01 0.  0.
     999903    2    3    3    0    0  0.97308239170E-01  0.76581918288E-01 -0.45782016787E-01  0.13945802063E+00  0.44931757559E-01 0.  0.
         14    1    1    2    0    0  0.33191042357E-02  0.12276627962E-01  0.39186445581E-02  0.13307434848E-01  0.00000000000E+00 0.  1.
     999901    1    3    3    0    0 -0.10062734341E+00 -0.88858546251E-01  0.41863372229E-01  0.89116454452E+00  0.88000000000E+00 0.  1.
        -11    1    4    4    0    0  0.52672980142E-01  0.49303062786E-01 -0.48726253068E-01  0.87061723485E-01  0.51100000000E-03 0. -1.
         11    1    4    4    0    0  0.44635259028E-01  0.27278855502E-01  0.29442362811E-02  0.52396297143E-01  0.51100000000E-03 0.  1.
</event>
<event>
 8    1  0.2846344E+004  0.1043930E+01  0.7957747E-01            NaN
         13   -1    0    0    0    0  0.00000000000E+00  0.00000000000E+00  0.74505805969E-08  0.10566000000E+00  0.10566000000E+00 0. -1.
     999900   -1    0    0    0    0 -0.00000000000E+00 -0.00000000000E+00 -0.74505805969E-08  0.93827000000E+00  0.93827000000E+00 0. -1.
     999902    2    1    2    0    0  0.17563595176E-02  0.14122134529E-01 -0.12156340271E-02  0.10296472395E+01  0.10295481730E+01 0.  0.
     999903    2    3    3    0    0  0.79836777758E-01  0.77390010987E-01  0.73624701345E-01  0.14077129103E+00  0.45086969818E-01 0.  0.
         14    1    1    2    0    0 -0.17563595176E-02 -0.14122134529E-01  0.12156340271E-02  0.14282760535E-01  0.00000000000E+00 0. -1.
     999901    1    3    3    0    0 -0.78080418241E-01 -0.63267876458E-01 -0.74840335372E-01  0.88887594843E+00  0.88000000000E+00 0. -1.
        -11    1    4    4    0    0  0.76466891621E-01  0.50466491803E-01  0.64852147414E-01  0.11225023142E+00  0.51100000000E-03 0.  1.
         11    1    4    4    0    0  0.33698861376E-02  0.26923519184E-01  0.87725539313E-02  0.28521059611E-01  0.51100000000E-03 0. -1.
</event>
<event>
 8    1  0.2846344E+004  0.1043930E+01  0.7957747E-01            NaN
         13   -1    0    0    0    0  0.00000000000E+00  0.00000000000E+00  0.74505805969E-08  0.10566000000E+00  0.10566000000E+00 0. -1.
     999900   -1    0    0    0    0 -0.00000000000E+00 -0.00000000000E+00 -0.74505805969E-08  0.93827000000E+00  0.93827000000E+00 0.  1.
     999902    2    1    2    0    0 -0.68479141976E-02  0.87577884097E-02  0.78311580758E-02  0.10303314772E+01  0.10302417352E+01 0.  0.
     999903    2    3    3    0    0  0.11279216158E+00  0.69381990892E-01 -0.61384794231E-02  0.14005950050E+00  0.45200114777E-01 0.  0.
         14    1    1    2    0    0  0.68479141976E-02 -0.87577884097E-02 -0.78311580758E-02  0.13598522842E-01  0.00000000000E+00 0. -1.
     999901    1    3    3    0    0 -0.11964007578E+00 -0.60624202482E-01  0.13969637499E-01  0.89027197666E+00  0.88000000000E+00 0. -1.
        -11    1    4    4    0    0  0.46220536084E-01  0.54947477615E-01 -0.29858340972E-02  0.71866122606E-01  0.51100000000E-03 0. -1.
         11    1    4    4    0    0  0.66571625494E-01  0.14434513277E-01 -0.31526453259E-02  0.68193377890E-01  0.51100000000E-03 0.  1.
</event>
<event>
 8    1  0.2846344E+004  0.1043930E+01  0.7957747E-01            NaN
         13   -1    0    0    0    0  0.00000000000E+00  0.00000000000E+00  0.74505805969E-08  0.10566000000E+00  0.10566000000E+00 0.  1.
     999900   -1    0    0    0    0 -0.00000000000E+00 -0.00000000000E+00 -0.74505805969E-08  0.93827000000E+00  0.93827000000E+00 0. -1.
     999902    2    1    2    0    0 -0.14404658375E-01 -0.32346640556E-02 -0.53130972543E-03  0.10291570678E+01  0.10290510341E+01 0.  0.
     999903    2    3    3    0    0  0.75197640781E-01  0.53364940750E-01 -0.92642908669E-01  0.13802484761E+00  0.44335628463E-01 0.  0.
         14    1    1    2    0    0  0.14404658375E-01  0.32346640556E-02  0.53130972543E-03  0.14772932156E-01  0.00000000000E+00 0.  1.
     999901    1    3    3    0    0 -0.89602299156E-01 -0.56599604805E-01  0.92111598943E-01  0.89113222023E+00  0.88000000000E+00 0.  1.
        -11    1    4    4    0    0  0.57534348059E-01  0.54972840107E-01 -0.55981995371E-01  0.97295731061E-01  0.51100000000E-03 0. -1.
         11    1    4    4    0    0  0.17663292722E-01 -0.16078993568E-02 -0.36660913298E-01  0.40729116550E-01  0.51100000000E-03 0.  1.
</event>
<event>
 8    1  0.2846344E+004  0.1043930E+01  0.7957747E-01            NaN
         13   -1    0    0    0    0  0.00000000000E+00  0.00000000000E+00  0.74505805969E-08  0.10566000000E+00  0.10566000000E+00 0. -1.
     999900   -1    0    0    0    0 -0.00000000000E+00 -0.00000000000E+00 -0.74505805969E-08  0.93827000000E+00  0.93827000000E+00 0.  1.
     999902    2    1    2    0    0 -0.69429848201E-02  0.82269646112E-02  0.81697567657E-02  0.10304158256E+01  0.10303272008E+01 0.  0.
     999903    2    3    3    0    0  0.46209332149E-01  0.37150412028E-01 -0.11949061751E+00  0.13914768086E+00  0.39605730957E-01 0.  0.
         14    1    1    2    0    0  0.69429848201E-02 -0.82269646112E-02 -0.81697567657E-02  0.13514174430E-01  0.00000000000E+00 0.  1.
     999901    1    3    3    0    0 -0.53152316969E-01 -0.28923447416E-01  0.12766037428E+00  0.89126814471E+00  0.88000000000E+00 0. -1.
        -11    1    4    4    0    0  0.26388790200E-01  0.41827970999E-01 -0.96455943571E-01  0.10839722126E+00  0.51100000000E-03 0. -1.
         11    1    4    4    0    0  0.19820541949E-01 -0.46775589718E-02 -0.23034673941E-01  0.30750459601E-01  0.51100000000E-03 0.  1.
</event>
<event>
 8    1  0.2846344E+004  0.1043930E+01  0.7957747E-01            NaN
         13   -1    0    0    0    0  0.00000000000E+00  0.00000000000E+00  0.74505805969E-08  0.10566000000E+00  0.10566000000E+00 0.  1.
     999900   -1    0    0    0    0 -0.00000000000E+00 -0.00000000000E+00 -0.74505805969E-08  0.93827000000E+00  0.93827000000E+00 0.  1.
     999902    2    1    2    0    0 -0.10639699066E-01  0.12145669814E-01  0.38388841626E-02  0.10273330869E+01  0.10271990138E+01 0.  0.
     999903    2    3    3    0    0  0.60602687094E-01 -0.97552184870E-01  0.54702331845E-01  0.13621233911E+00  0.48706691124E-01 0.  0.
         14    1    1    2    0    0  0.10639699066E-01 -0.12145669814E-01 -0.38388841626E-02  0.16596913058E-01  0.00000000000E+00 0.  1.
     999901    1    3    3    0    0 -0.71242386160E-01  0.10969785468E+00 -0.50863447683E-01  0.89112074783E+00  0.88000000000E+00 0.  1.
        -11    1    4    4    0    0  0.38571012814E-01 -0.62852744684E-01  0.59595600790E-01  0.94816070886E-01  0.51100000000E-03 0.  1.
         11    1    4    4    0    0  0.22031674280E-01 -0.34699440187E-01 -0.48932689444E-02  0.41396268223E-01  0.51100000000E-03 0. -1.
</event>
<event>
 8    1  0.2846344E+004  0.1043930E+01  0.7957747E-01            NaN
         13   -1    0    0    0    0  0.00000000000E+00  0.00000000000E+00  0.74505805969E-08  0.10566000000E+00  0.10566000000E+00 0. -1.
     999900   -1    0    0    0    0 -0.00000000000E+00 -0.00000000000E+00 -0.74505805969E-08  0.93827000000E+00  0.93827000000E+00 0. -1.
     999902    2    1    2    0    0  0.81571189498E-02 -0.14116193553E-01 -0.18990701407E-01  0.10189009719E+01  0.10185935098E+01 0.  0.
     999903    2    3    3    0    0 -0.21707760813E-01 -0.94728932035E-01  0.73755120677E-01  0.12986097716E+00  0.44488853878E-01 0.  0.
         14    1    1    2    0    0 -0.81571189498E-02  0.14116193553E-01  0.18990701407E-01  0.25029028145E-01  0.00000000000E+00 0.  1.
     999901    1    3    3    0    0  0.29864879763E-01  0.80612738482E-01 -0.92745822084E-01  0.88903999469E+00  0.88000000000E+00 0. -1.
        -11    1    4    4    0    0 -0.20579847992E-01 -0.43786592037E-01  0.12102065751E-01  0.49875012803E-01  0.51100000000E-03 0. -1.
         11    1    4    4    0    0 -0.11279128211E-02 -0.50942339998E-01  0.61653054926E-01  0.79985964359E-01  0.51100000000E-03 0.  1.
</event>
<event>
 8    1  0.2846344E+004  0.1043930E+01  0.7957747E-01            NaN
         13   -1    0    0    0    0  0.00000000000E+00  0.00000000000E+00  0.74505805969E-08  0.10566000000E+00  0.10566000000E+00 0.  1.
     999900   -1    0    0    0    0 -0.00000000000E+00 -0.00000000000E+00 -0.74505805969E-08  0.93827000000E+00  0.93827000000E+00 0.  1.
     999902    2    1    2    0    0 -0.36880877256E-02 -0.10441738648E-01  0.84580015491E-02  0.10299955216E+01  0.10299012598E+01 0.  0.
     999903    2    3    3    0    0  0.71206330550E-01 -0.10381426438E+00 -0.48418136333E-01  0.14007277358E+00  0.37793160396E-01 0.  0.
         14    1    1    2    0    0  0.36880877256E-02  0.10441738648E-01 -0.84580015491E-02  0.13934478364E-01  0.00000000000E+00 0. -1.
     999901    1    3    3    0    0 -0.74894418276E-01  0.93372525732E-01  0.56876137882E-01  0.88992274806E+00  0.88000000000E+00 0.  1.
        -11    1    4    4    0    0  0.55101398728E-01 -0.55318838496E-01 -0.16448913626E-01  0.79794523088E-01  0.51100000000E-03 0.  1.
         11    1    4    4    0    0  0.16104931822E-01 -0.48495425884E-01 -0.31969222707E-01  0.60278250490E-01  0.51100000000E-03 0. -1.
</event>
<event>
 8    1  0.2846344E+004  0.1043930E+01  0.7957747E-01            NaN
         13   -1    0    0    0    0  0.00000000000E+00  0.00000000000E+00  0.74505805969E-08  0.10566000000E+00  0.10566000000E+00 0.  1.
     999900   -1    0    0    0    0 -0.00000000000E+00 -0.00000000000E+00 -0.74505805969E-08  0.93827000000E+00  0.93827000000E+00 0.  1.
     999902    2    1    2    0    0 -0.64775537708E-02  0.29486073011E-02 -0.14321832400E-01  0.10279372557E+01  0.10278128398E+01 0.  0.
     999903    2    3    3    0    0  0.12810613818E+00 -0.21033980272E-01 -0.21394893314E-01  0.13735432139E+00  0.39431677358E-01 0.  0.
         14    1    1    2    0    0  0.64775537708E-02 -0.29486073011E-02  0.14321832400E-01  0.15992744329E-01  0.00000000000E+00 0.  1.
     999901    1    3    3    0    0 -0.13458369195E+00  0.23982587573E-01  0.70730609139E-02  0.89058293428E+00  0.88000000000E+00 0.  1.
        -11    1    4    4    0    0  0.64758660271E-01  0.57173463038E-03  0.59828409272E-02  0.65038961147E-01  0.51100000000E-03 0.  1.
         11    1    4    4    0    0  0.63347477907E-01 -0.21605714903E-01 -0.27377734242E-01  0.72315360241E-01  0.51100000000E-03 0. -1.
</event>
<event>
 8    1  0.2846344E+004  0.1043930E+01  0.7957747E-01            NaN
         13   -1    0    0    0    0  0.00000000000E+00  0.00000000000E+00  0.74505805969E-08  0.10566000000E+00  0.10566000000E+00 0. -1.
     999900   -1    0    0    0    0 -0.00000000000E+00 -0.00000000000E+00 -0.74505805969E-08  0.93827000000E+00  0.93827000000E+00 0.  1.
     999902    2    1    2    0    0  0.12728257739E-01  0.32779645698E-02 -0.33608684244E-02  0.10303635328E+01  0.10302742162E+01 0.  0.
     999903    2    3    3    0    0 -0.11825585360E+00 -0.43716567565E-01  0.43250535531E-01  0.13820998855E+00  0.36548692456E-01 0.  0.
         14    1    1    2    0    0 -0.12728257739E-01 -0.32779645698E-02  0.33608684244E-02  0.13566467239E-01  0.00000000000E+00 0. -1.
     999901    1    3    3    0    0  0.13098411134E+00  0.46994532135E-01 -0.46611403955E-01  0.89215354421E+00  0.88000000000E+00 0. -1.
        -11    1    4    4    0    0 -0.83996591898E-01 -0.23653449110E-01  0.45551501690E-01  0.98438374289E-01  0.51100000000E-03 0. -1.
         11    1    4    4    0    0 -0.34259261702E-01 -0.20063118455E-01 -0.23009661598E-02  0.39771614259E-01  0.51100000000E-03 0.  1.
</event>
<event>
 8    1  0.2846344E+004  0.1043930E+01  0.7957747E-01            NaN
         13   -1    0    0    0    0  0.00000000000E+00  0.00000000000E+00  0.74505805969E-08  0.10566000000E+00  0.10566000000E+00 0. -1.
     999900   -1    0    0    0    0 -0.00000000000E+00 -0.00000000000E+00 -0.74505805969E-08  0.93827000000E+00  0.93827000000E+00 0. -1.
     999902    2    1    2    0    0 -0.74011780856E-02 -0.24207062986E-02  0.12908027025E-01  0.10288550400E+01  0.10287445937E+01 0.  0.
     999903    2    3    3    0    0 -0.42257713050E-01  0.74699228729E-01  0.10247656787E+00  0.14026909264E+00  0.42523902734E-01 0.  0.
         14    1    1    2    0    0  0.74011780856E-02  0.24207062986E-02 -0.12908027025E-01  0.15074959958E-01  0.00000000000E+00 0.  1.
     999901    1    3    3    0    0  0.34856534965E-01 -0.77119935028E-01 -0.89568540842E-01  0.88858594740E+00  0.88000000000E+00 0. -1.
        -11    1    4    4    0    0 -0.32668539306E-01  0.58488792548E-01  0.10122345166E+00  0.12138624552E+00  0.51100000000E-03 0.  1.
         11    1    4    4    0    0 -0.95891737445E-02  0.16210436181E-01  0.12531162082E-02  0.18882847124E-01  0.51100000000E-03 0. -1.
</event>
<event>
 8    1  0.2846344E+004  0.1043930E+01  0.7957747E-01            NaN
         13   -1    0    0    0    0  0.00000000000E+00  0.00000000000E+00  0.74505805969E-08  0.10566000000E+00  0.10566000000E+00 0. -1.
     999900   -1    0    0    0    0 -0.00000000000E+00 -0.00000000000E+00 -0.74505805969E-08  0.93827000000E+00  0.93827000000E+00 0. -1.
     999902    2    1    2    0    0 -0.81615646340E-03 -0.12326523501E-01  0.48856620219E-02  0.10306454606E+01  0.10305598413E+01 0.  0.
     999903    2    3    3    0    0  0.88172744852E-01  0.96617270740E-01  0.16442250155E-01  0.13939839634E+00  0.45301604533E-01 0.  0.
         14    1    1    2    0    0  0.81615646340E-03  0.12326523501E-01 -0.48856620219E-02  0.13284539374E-01  0.00000000000E+00 0.  1.
     999901    1    3    3    0    0 -0.88988901316E-01 -0.10894379424E+00 -0.11556588133E-01  0.89124706428E+00  0.88000000000E+00 0.  1.
        -11    1    4    4    0    0  0.61836539385E-01  0.76415751411E-01  0.31108174261E-01  0.10310724656E+00  0.51100000000E-03 0.  1.
         11    1    4    4    0    0  0.26336205467E-01  0.20201519329E-01 -0.14665924106E-01  0.36291149782E-01  0.51100000000E-03 0. -1.
</event>
<event>
 8    1  0.2846344E+004  0.1043930E+01  0.7957747E-01            NaN
         13   -1    0    0    0    0  0.00000000000E+00  0.00000000000E+00  0.74505805969E-08  0.10566000000E+00  0.10566000000E+00 0.  1.
     999900   -1    0    0    0    0 -0.00000000000E+00 -0.00000000000E+00 -0.74505805969E-08  0.93827000000E+00  0.93827000000E+00 0. -1.
     999902    2    1    2    0    0 -0.13371196049E-01 -0.32234806538E-02  0.23859004597E-02  0.10299703355E+01  0.10298757303E+01 0.  0.
     999903    2    3    3    0    0  0.81948877243E-02 -0.48001115252E-01  0.12373792124E+00  0.14025327630E+00  0.44594227295E-01 0.  0.
         14    1    1    2    0    0  0.13371196049E-01  0.32234806538E-02 -0.23859004597E-02  0.13959664477E-01  0.00000000000E+00 0.  1.
     999901    1    3    3    0    0 -0.21566083773E-01  0.44777634598E-01 -0.12135202078E+00  0.88971705923E+00  0.88000000000E+00 0. -1.
        -11    1    4    4    0    0  0.18165926075E-01 -0.39230458874E-01  0.53583084766E-01  0.68850837814E-01  0.51100000000E-03 0. -1.
         11    1    4    4    0    0 -0.99710383511E-02 -0.87706563783E-02  0.70154836478E-01  0.71402438483E-01  0.51100000000E-03 0.  1.
</event>
<event>
 8    1  0.2846344E+004  0.1043930E+01  0.7957747E-01            NaN
         13   -1    0    0    0    0  0.00000000000E+00  0.00000000000E+00  0.74505805969E-08  0.10566000000E+00  0.10566000000E+00 0.  1.
     999900   -1    0    0    0    0 -0.00000000000E+00 -0.00000000000E+00 -0.74505805969E-08  0.93827000000E+00  0.93827000000E+00 0.  1.
     999902    2    1    2    0    0 -0.65007969482E-03  0.37401554175E-02 -0.12749820345E-01  0.10306270197E+01  0.10305411610E+01 0.  0.
     999903    2    3    3    0    0  0.42148967502E-02  0.20795374916E-01  0.12974947687E+00  0.13898774386E+00  0.45082737519E-01 0.  0.
         14    1    1    2    0    0  0.65007969482E-03 -0.37401554175E-02  0.12749820345E-01  0.13302980305E-01  0.00000000000E+00 0.  1.
     999901    1    3    3    0    0 -0.48649764450E-02 -0.17055219498E-01 -0.14249929722E+00  0.89163927584E+00  0.88000000000E+00 0.  1.
        -11    1    4    4    0    0 -0.17363240390E-01  0.13788523129E-01  0.94482087008E-01  0.97050148755E-01  0.51100000000E-03 0. -1.
         11    1    4    4    0    0  0.21578137140E-01  0.70068517865E-02  0.35267389862E-01  0.41937595103E-01  0.51100000000E-03 0.  1.
</event>
<event>
 8    1  0.2846344E+004  0.1043930E+01  0.7957747E-01            NaN
         13   -1    0    0    0    0  0.00000000000E+00  0.00000000000E+00  0.74505805969E-08  0.10566000000E+00  0.10566000000E+00 0.  1.
     999900   -1    0    0    0    0 -0.00000000000E+00 -0.00000000000E+00 -0.74505805969E-08  0.93827000000E+00  0.93827000000E+00 0. -1.
     999902    2    1    2    0    0  0.15316502485E-02  0.60189290007E-02  0.13978186888E-01  0.10286341454E+01  0.10285204140E+01 0.  0.
     999903    2    3    3    0    0 -0.35972440472E-01  0.11588400159E+00 -0.50156292233E-01  0.13869587654E+00  0.44696467649E-01 0.  0.
         14    1    1    2    0    0 -0.15316502485E-02 -0.60189290007E-02 -0.13978186888E-01  0.15295854585E-01  0.00000000000E+00 0. -1.
     999901    1    3    3    0    0  0.37504090721E-01 -0.10986507259E+00  0.64134479121E-01  0.88993826888E+00  0.88000000000E+00 0.  1.
        -11    1    4    4    0    0 -0.15424966917E-01  0.87345376107E-01 -0.16903246349E-01  0.90294657593E-01  0.51100000000E-03 0.  1.
         11    1    4    4    0    0 -0.20547473555E-01  0.28538625484E-01 -0.33253045883E-01  0.48401218947E-01  0.51100000000E-03 0. -1.
</event>
<event>
 8    1  0.2846344E+004  0.1043930E+01  0.7957747E-01            NaN
         13   -1    0    0    0    0  0.00000000000E+00  0.00000000000E+00  0.74505805969E-08  0.10566000000E+00  0.10566000000E+00 0. -1.
     999900   -1    0    0    0    0 -0.00000000000E+00 -0.00000000000E+00 -0.74505805969E-08  0.93827000000E+00  0.93827000000E+00 0. -1.
     999902    2    1    2    0    0  0.57792601574E-02  0.10105476091E-01 -0.44639421357E-02  0.10314621504E+01  0.10313867947E+01 0.  0.
     999903    2    3    3    0    0  0.52460396927E-01  0.12388097401E+00  0.16522023243E-01  0.14266273363E+00  0.44509429877E-01 0.  0.
         14    1    1    2    0    0 -0.57792601574E-02 -0.10105476091E-01  0.44639421357E-02  0.12467849630E-01  0.00000000000E+00 0. -1.
     999901    1    3    3    0    0 -0.46681136769E-01 -0.11377549792E+00 -0.20985965378E-01  0.88879941674E+00  0.88000000000E+00 0. -1.
        -11    1    4    4    0    0  0.43127249903E-01  0.53821301806E-01  0.20256209842E-01  0.71883707267E-01  0.51100000000E-03 0. -1.
         11    1    4    4    0    0  0.93331470240E-02  0.70059672201E-01 -0.37341865992E-02  0.70779026363E-01  0.51100000000E-03 0.  1.
</event>
<event>
 8    1  0.2846344E+004  0.1043930E+01  0.7957747E-01            NaN
         13   -1    0    0    0    0  0.00000000000E+00  0.00000000000E+00  0.74505805969E-08  0.10566000000E+00  0.10566000000E+00 0.  1.
     999900   -1    0    0    0    0 -0.00000000000E+00 -0.00000000000E+00 -0.74505805969E-08  0.93827000000E+00  0.93827000000E+00 0. -1.
     999902    2    1    2    0    0 -0.10013024214E-01  0.72847464735E-02 -0.32643380079E-02  0.10311243728E+01  0.10310448526E+01 0.  0.
     999903    2    3    3    0    0  0.10634765261E+00 -0.10908514421E-01  0.77301640703E-01  0.13963030173E+00  0.45741213389E-01 0.  0.
         14    1    1    2    0    0  0.10013024214E-01 -0.72847464735E-02  0.32643380079E-02  0.12805627190E-01  0.00000000000E+00 0. -1.
     999901    1    3    3    0    0 -0.11636067682E+00  0.18193260894E-01 -0.80565978711E-01  0.89149407108E+00  0.88000000000E+00 0. -1.
        -11    1    4    4    0    0  0.53615615922E-01 -0.94065015047E-02  0.66219813486E-01  0.85723050345E-01  0.51100000000E-03 0. -1.
         11    1    4    4    0    0  0.52732036688E-01 -0.15020129158E-02  0.11081827216E-01  0.53907251381E-01  0.51100000000E-03 0.  1.
</event>
<event>
 8    1  0.2846344E+004  0.1043930E+01  0.7957747E-01            NaN
         13   -1    0    0    0    0  0.00000000000E+00  0.00000000000E+00  0.74505805969E-08  0.10566000000E+00  0.10566000000E+00 0. -1.
     999900   -1    0    0    0    0 -0.00000000000E+00 -0.00000000000E+00 -0.74505805969E-08  0.93827000000E+00  0.93827000000E+00 0. -1.
     999902    2    1    2    0    0 -0.15139108665E-02 -0.11300187259E-01  0.10437505390E-01  0.10284727144E+01  0.10283565513E+01 0.  0.
     999903    2    3    3    0    0  0.12248659795E-01 -0.12674231184E+00 -0.35635966254E-01  0.13963130155E+00  0.44870201721E-01 0.  0.
         14    1    1    2    0    0  0.15139108665E-02  0.11300187259E-01 -0.10437505390E-01  0.15457285563E-01  0.00000000000E+00 0.  1.
     999901    1    3    3    0    0 -0.13762570661E-01  0.11544212458E+00  0.46073471644E-01  0.88884141289E+00  0.88000000000E+00 0.  1.
        -11    1    4    4    0    0  0.26883482878E-01 -0.57995076912E-01 -0.94367340971E-02  0.64617827796E-01  0.51100000000E-03 0.  1.
         11    1    4    4    0    0 -0.14634823084E-01 -0.68747234932E-01 -0.26199232157E-01  0.75013473750E-01  0.51100000000E-03 0. -1.
</event>
<event>
 8    1  0.2846344E+004  0.1043930E+01  0.7957747E-01            NaN
         13   -1    0    0    0    0  0.00000000000E+00  0.00000000000E+00  0.74505805969E-08  0.10566000000E+00  0.10566000000E+00 0. -1.
     999900   -1    0    0    0    0 -0.00000000000E+00 -0.00000000000E+00 -0.74505805969E-08  0.93827000000E+00  0.93827000000E+00 0. -1.
     999902    2    1    2    0    0 -0.10670581274E-01  0.62364695212E-03 -0.83506042890E-02  0.10303659729E+01  0.10302766887E+01 0.  0.
     999903    2    3    3    0    0  0.67274144295E-01 -0.49286413842E-01 -0.99734565577E-01  0.14080573162E+00  0.54076884217E-01 0.  0.
         14    1    1    2    0    0  0.10670581274E-01 -0.62364695212E-03  0.83506042890E-02  0.13564027140E-01  0.00000000000E+00 0. -1.
     999901    1    3    3    0    0 -0.77944725569E-01  0.49910060794E-01  0.91383961288E-01  0.88956024124E+00  0.88000000000E+00 0.  1.
        -11    1    4    4    0    0  0.25242412718E-01 -0.10819213242E-01 -0.72743545954E-01  0.77756796320E-01  0.51100000000E-03 0. -1.
         11    1    4    4    0    0  0.42031731577E-01 -0.38467200600E-01 -0.26991019623E-01  0.63048935302E-01  0.51100000000E-03 0.  1.
</event>
<event>
 8    1  0.2846344E+004  0.1043930E+01  0.7957747E-01            NaN
         13   -1    0    0    0    0  0.00000000000E+00  0.00000000000E+00  0.74505805969E-08  0.10566000000E+00  0.10566000000E+00 0. -1.
     999900   -1    0    0    0    0 -0.00000000000E+00 -0.00000000000E+00 -0.74505805969E-08  0.93827000000E+00  0.93827000000E+00 0.  1.
     999902    2    1    2    0    0 -0.62349343743E-02  0.33228513901E-02  0.14515271460E-01  0.10277866158E+01  0.10276598264E+01 0.  0.
     999903    2    3    3    0    0  0.48007326428E-01 -0.89803142997E-01 -0.78688877395E-01  0.13632619208E+00  0.44984256562E-01 0.  0.
         14    1    1    2    0    0  0.62349343743E-02 -0.33228513901E-02 -0.14515271460E-01  0.16143384204E-01  0.00000000000E+00 0.  1.
     999901    1    3    3    0    0 -0.54242260802E-01  0.93125994388E-01  0.93204148855E-01  0.89146042372E+00  0.88000000000E+00 0. -1.
        -11    1    4    4    0    0  0.16572213514E-02 -0.47640623016E-01 -0.43087762523E-01  0.64258787292E-01  0.51100000000E-03 0. -1.
         11    1    4    4    0    0  0.46350105077E-01 -0.42162519981E-01 -0.35601114872E-01  0.72067404788E-01  0.51100000000E-03 0.  1.
</event>
<event>
 8    1  0.2846344E+004  0.1043930E+01  0.7957747E-01            NaN
         13   -1    0    0    0    0  0.00000000000E+00  0.00000000000E+00  0.74505805969E-08  0.10566000000E+00  0.10566000000E+00 0.  1.
     999900   -1    0    0    0    0 -0.00000000000E+00 -0.00000000000E+00 -0.74505805969E-08  0.93827000000E+00  0.93827000000E+00 0.  1.
     999902    2    1    2    0    0 -0.55431572461E-02  0.10564417579E-01  0.12193903369E-01  0.10268705513E+01  0.10267288368E+01 0.  0.
     999903    2    3    3    0    0  0.84457023798E-01  0.80140569717E-01 -0.56831148945E-01  0.13686755613E+00  0.44129906504E-01 0.  0.
         14    1    1    2    0    0  0.55431572461E-02 -0.10564417579E-01 -0.12193903369E-01  0.17059448714E-01  0.00000000000E+00 0. -1.
     999901    1    3    3    0    0 -0.90000181044E-01 -0.69576152138E-01  0.69025052315E-01  0.89000299515E+00  0.88000000000E+00 0. -1.
        -11    1    4    4    0    0  0.95058436085E-02  0.34694595659E-01 -0.93174591278E-02  0.37163856047E-01  0.51100000000E-03 0. -1.
         11    1    4    4    0    0  0.74951180189E-01  0.45445974058E-01 -0.47513689817E-01  0.99703700086E-01  0.51100000000E-03 0.  1.
</event>
<event>
 8    1  0.2846344E+004  0.1043930E+01  0.7957747E-01            NaN
         13   -1    0    0    0    0  0.00000000000E+00  0.00000000000E+00  0.74505805969E-08  0.10566000000E+00  0.10566000000E+00 0.  1.
     999900   -1    0    0    0    0 -0.00000000000E+00 -0.00000000000E+00 -0.74505805969E-08  0.93827000000E+00  0.93827000000E+00 0. -1.
     999902    2    1    2    0    0 -0.13304033881E-01  0.25649034918E-02 -0.33115538733E-02  0.10299821530E+01  0.10298877089E+01 0.  0.
     999903    2    3    3    0    0  0.45169749420E-01  0.12076045813E+00 -0.29359586063E-01  0.13977550705E+00  0.45296937733E-01 0.  0.
         14    1    1    2    0    0  0.13304033881E-01 -0.25649034918E-02  0.33115538733E-02  0.13947847020E-01  0.00000000000E+00 0. -1.
     999901    1    3    3    0    0 -0.58473783301E-01 -0.11819555464E+00  0.26048032189E-01  0.89020664593E+00  0.88000000000E+00 0.  1.
        -11    1    4    4    0    0  0.37200718242E-01  0.52598163514E-01  0.16938337233E-02  0.64448354800E-01  0.51100000000E-03 0.  1.
         11    1    4    4    0    0  0.79690311775E-02  0.68162294616E-01 -0.31053419786E-01  0.75327152254E-01  0.51100000000E-03 0. -1.
</event>
<event>
 8    1  0.2846344E+004  0.1043930E+01  0.7957747E-01            NaN
         13   -1    0    0    0    0  0.00000000000E+00  0.00000000000E+00  0.74505805969E-08  0.10566000000E+00  0.10566000000E+00 0.  1.
     999900   -1    0    0    0    0 -0.00000000000E+00 -0.00000000000E+00 -0.74505805969E-08  0.93827000000E+00  0.93827000000E+00 0.  1.
     999902    2    1    2    0    0 -0.12838591208E-01 -0.68837965407E-02  0.86805583358E-03  0.10293365220E+01  0.10292330669E+01 0.  0.
     999903    2    3    3    0    0 -0.27572678581E-01  0.55621551812E-01 -0.11631402943E+00  0.13924908079E+00  0.44803386359E-01 0.  0.
         14    1    1    2    0    0  0.12838591208E-01  0.68837965407E-02 -0.86805583358E-03  0.14593477994E-01  0.00000000000E+00 0. -1.
     999901    1    3    3    0    0  0.14734087373E-01 -0.62505348352E-01  0.11718208526E+00  0.89008744122E+00  0.88000000000E+00 0. -1.
        -11    1    4    4    0    0  0.66826869718E-02  0.25617673207E-01 -0.21662667674E-01  0.34211924492E-01  0.51100000000E-03 0. -1.
         11    1    4    4    0    0 -0.34255365553E-01  0.30003878605E-01 -0.94651361754E-01  0.10503715630E+00  0.51100000000E-03 0.  1.
</event>
<event>
 8    1  0.2846344E+004  0.1043930E+01  0.7957747E-01            NaN
         13   -1    0    0    0    0  0.00000000000E+00  0.00000000000E+00  0.74505805969E-08  0.10566000000E+00  0.10566000000E+00 0.  1.
     999900   -1    0    0    0    0 -0.00000000000E+00 -0.00000000000E+00 -0.74505805969E-08  0.93827000000E+00  0.93827000000E+00 0.  1.
     999902    2    1    2    0    0  0.10694012202E-01 -0.65698696582E-02 -0.57404553001E-02  0.10301286265E+01  0.10300361689E+01 0.  0.
     999903    2    3    3    0    0 -0.42996732698E-01 -0.11816568683E+00  0.42769022556E-01  0.14013452989E+00  0.44683874176E-01 0.  0.
         14    1    1    2    0    0 -0.10694012202E-01  0.65698696582E-02  0.57404553001E-02  0.13801373532E-01  0.00000000000E+00 0.  1.
     999901    1    3    3    0    0  0.53690744900E-01  0.11159581717E+00 -0.48509477856E-01  0.88999409658E+00  0.88000000000E+00 0. -1.
        -11    1    4    4    0    0 -0.39435378657E-01 -0.61504540571E-01  0.78576124960E-02  0.73484425532E-01  0.51100000000E-03 0. -1.
         11    1    4    4    0    0 -0.35613540411E-02 -0.56661146258E-01  0.34911410060E-01  0.66650104360E-01  0.51100000000E-03 0.  1.
</event>
<event>
 8    1  0.2846344E+004  0.1043930E+01  0.7957747E-01            NaN
         13   -1    0    0    0    0  0.00000000000E+00  0.00000000000E+00  0.74505805969E-08  0.10566000000E+00  0.10566000000E+00 0. -1.
     999900   -1    0    0    0    0 -0.00000000000E+00 -0.00000000000E+00 -0.74505805969E-08  0.93827000000E+00  0.93827000000E+00 0. -1.
     999902    2    1    2    0    0  0.34760912912E-02  0.42486711304E-02  0.11767052124E-01  0.10309454733E+01  0.10308637015E+01 0.  0.
     999903    2    3    3    0    0  0.73242439532E-01  0.97244805633E-01  0.58395814298E-01  0.14207547956E+00  0.44208184675E-01 0.  0.
         14    1    1    2    0    0 -0.34760912912E-02 -0.42486711304E-02 -0.11767052124E-01  0.12984526665E-01  0.00000000000E+00 0.  1.
     999901    1    3    3    0    0 -0.69766348241E-01 -0.92996134503E-01 -0.46628762174E-01  0.88886999378E+00  0.88000000000E+00 0. -1.
        -11    1    4    4    0    0  0.35003990794E-01  0.71713433690E-01  0.20250217829E-01  0.82331211495E-01  0.51100000000E-03 0. -1.
         11    1    4    4    0    0  0.38238448737E-01  0.25531371944E-01  0.38145596468E-01  0.59744268061E-01  0.51100000000E-03 0.  1.
</event>
<event>
 8    1  0.2846344E+004  0.1043930E+01  0.7957747E-01            NaN
         13   -1    0    0    0    0  0.00000000000E+00  0.00000000000E+00  0.74505805969E-08  0.10566000000E+00  0.10566000000E+00 0. -1.
     999900   -1    0    0    0    0 -0.00000000000E+00 -0.00000000000E+00 -0.74505805969E-08  0.93827000000E+00  0.93827000000E+00 0. -1.
     999902    2    1    2    0    0  0.11991816939E-01  0.32448649382E-02  0.71390384947E-02  0.10296017519E+01  0.10295020490E+01 0.  0.
     999903    2    3    3    0    0 -0.75868877051E-01 -0.10325755062E+00  0.25769301637E-01  0.13864195892E+00  0.46252865872E-01 0.  0.
         14    1    1    2    0    0 -0.11991816939E-01 -0.32448649382E-02 -0.71390384947E-02  0.14328248064E-01  0.00000000000E+00 0.  1.
     999901    1    3    3    0    0  0.87860693989E-01  0.10650241556E+00 -0.18630263142E-01  0.89095979302E+00  0.88000000000E+00 0.  1.
        -11    1    4    4    0    0 -0.70129811757E-02 -0.40953547886E-01  0.18535710403E-01  0.45499545828E-01  0.51100000000E-03 0. -1.
         11    1    4    4    0    0 -0.68855895875E-01 -0.62304002732E-01  0.72335912344E-02  0.93142413091E-01  0.51100000000E-03 0.  1.
</event>
<event>
 8    1  0.2846344E+004  0.1043930E+01  0.7957747E-01            NaN
         13   -1    0    0    0    0  0.00000000000E+00  0.00000000000E+00  0.74505805969E-08  0.10566000000E+00  0.10566000000E+00 0.  1.
     999900   -1    0    0    0    0 -0.00000000000E+00 -0.00000000000E+00 -0.74505805969E-08  0.93827000000E+00  0.93827000000E+00 0. -1.
     999902    2    1    2    0    0 -0.12571141047E-01  0.34594643463E-02  0.66339866208E-02  0.10293008763E+01  0.10291969116E+01 0.  0.
     999903    2    3    3    0    0  0.10180255998E+00 -0.43602336164E-01  0.69289789464E-01  0.13844628316E+00  0.45840740166E-01 0.  0.
         14    1    1    2    0    0  0.12571141047E-01 -0.34594643463E-02 -0.66339866208E-02  0.14629123667E-01  0.00000000000E+00 0. -1.
     999901    1    3    3    0    0 -0.11437370103E+00  0.47061800510E-01 -0.62655802843E-01  0.89085459318E+00  0.88000000000E+00 0.  1.
        -11    1    4    4    0    0  0.40844298208E-01 -0.35406128831E-01  0.14240827158E-01  0.55900920691E-01  0.51100000000E-03 0. -1.
         11    1    4    4    0    0  0.60958261771E-01 -0.81962073322E-02  0.55048962306E-01  0.82545362466E-01  0.51100000000E-03 0.  1.
</event>
<event>
 8    1  0.2846344E+004  0.1043930E+01  0.7957747E-01            NaN
         13   -1    0    0    0    0  0.00000000000E+00  0.00000000000E+00  0.74505805969E-08  0.10566000000E+00  0.10566000000E+00 0. -1.
     999900   -1    0    0    0    0 -0.00000000000E+00 -0.00000000000E+00 -0.74505805969E-08  0.93827000000E+00  0.93827000000E+00 0.  1.
     999902    2    1    2    0    0  0.67910758316E-02  0.44620310372E-02 -0.11807576435E-01  0.10295965673E+01  0.10294967917E+01 0.  0.
     999903    2    3    3    0    0  0.12583251737E+00 -0.58335220576E-02 -0.43575898749E-01  0.14095373155E+00  0.45839318023E-01 0.  0.
         14    1    1    2    0    0 -0.67910758316E-02 -0.44620310372E-02  0.11807576435E-01  0.14333432708E-01  0.00000000000E+00 0. -1.
     999901    1    3    3    0    0 -0.11904144154E+00  0.10295553095E-01  0.31768322314E-01  0.88864283574E+00  0.88000000000E+00 0. -1.
        -11    1    4    4    0    0  0.31127092190E-01 -0.98907826758E-02 -0.31526727948E-01  0.45397347348E-01  0.51100000000E-03 0.  1.
         11    1    4    4    0    0  0.94705425184E-01  0.40572606183E-02 -0.12049170801E-01  0.95556384198E-01  0.51100000000E-03 0. -1.
</event>
<event>
 7    1  0.2846344E+004  0.1043930E+01  0.7957747E-01            NaN
         13   -1    0    0    0    0  0.00000000000E+00  0.00000000000E+00  0.74505805969E-08  0.10566000000E+00  0.10566000000E+00 0. -1.
     999900   -1    0    0    0    0 -0.00000000000E+00 -0.00000000000E+00 -0.74505805969E-08  0.93827000000E+00  0.93827000000E+00 0. -1.
     999903    2    1    2    0    0  0.62906733013E-02  0.70588054739E-01  0.52057967378E-01  0.99335097774E-01  0.46208047350E-01 0.  0.
         14    1    1    2    0    0  0.21892827703E-01 -0.15350187466E-01 -0.56383426462E-01  0.62402042752E-01  0.00000000000E+00 0.  1.
     999901    1    1    2    0    0 -0.28183501004E-01 -0.55237867273E-01  0.43254590836E-02  0.88219285947E+00  0.88000000000E+00 0.  1.
        -11    1    3    3    0    0  0.14408354822E-02 -0.45334280198E-02  0.14375773844E-01  0.15150972613E-01  0.51100000000E-03 0.  1.
         11    1    3    3    0    0  0.48498378191E-02  0.75121482758E-01  0.37682193534E-01  0.84184125162E-01  0.51100000000E-03 0. -1.
</event>
<event>
 8    1  0.2846344E+004  0.1043930E+01  0.7957747E-01            NaN
         13   -1    0    0    0    0  0.00000000000E+00  0.00000000000E+00  0.74505805969E-08  0.10566000000E+00  0.10566000000E+00 0.  1.
     999900   -1    0    0    0    0 -0.00000000000E+00 -0.00000000000E+00 -0.74505805969E-08  0.93827000000E+00  0.93827000000E+00 0. -1.
     999902    2    1    2    0    0  0.10222702192E-01 -0.67974777337E-02 -0.52530166122E-02  0.10305769656E+01  0.10304904553E+01 0.  0.
     999903    2    3    3    0    0  0.52362646538E-01 -0.11260244804E+00 -0.52136219293E-01  0.14200029400E+00  0.44997111874E-01 0.  0.
         14    1    1    2    0    0 -0.10222702192E-01  0.67974777337E-02  0.52530166122E-02  0.13353034380E-01  0.00000000000E+00 0.  1.
     999901    1    3    3    0    0 -0.42139944347E-01  0.10580497031E+00  0.46883202681E-01  0.88857667162E+00  0.88000000000E+00 0.  1.
        -11    1    4    4    0    0  0.43171899500E-01 -0.62349510208E-01 -0.50056264147E-01  0.90868944260E-01  0.51100000000E-03 0. -1.
         11    1    4    4    0    0  0.91907470387E-02 -0.50252937832E-01 -0.20799551461E-02  0.51131349741E-01  0.51100000000E-03 0.  1.
</event>
<event>
 8    1  0.2846344E+004  0.1043930E+01  0.7957747E-01            NaN
         13   -1    0    0    0    0  0.00000000000E+00  0.00000000000E+00  0.74505805969E-08  0.10566000000E+00  0.10566000000E+00 0. -1.
     999900   -1    0    0    0    0 -0.00000000000E+00 -0.00000000000E+00 -0.74505805969E-08  0.93827000000E+00  0.93827000000E+00 0. -1.
     999902    2    1    2    0    0 -0.13736300462E-01 -0.77014303706E-03  0.23492325015E-02  0.10299729959E+01  0.10298784269E+01 0.  0.
     999903    2    3    3    0    0 -0.12798375566E+00 -0.32794432231E-01  0.24711549659E-01  0.14172859857E+00  0.44955739001E-01 0.  0.
         14    1    1    2    0    0  0.13736300462E-01  0.77014303706E-03 -0.23492325015E-02  0.13957004120E-01  0.00000000000E+00 0. -1.
     999901    1    3    3    0    0  0.11424745520E+00  0.32024289194E-01 -0.22362317157E-01  0.88824439731E+00  0.88000000000E+00 0. -1.
        -11    1    4    4    0    0 -0.18303200710E-01 -0.74449101827E-02  0.21364816193E-01  0.29105847107E-01  0.51100000000E-03 0.  1.
         11    1    4    4    0    0 -0.10968055495E+00 -0.25349522048E-01  0.33467334659E-02  0.11262275147E+00  0.51100000000E-03 0. -1.
</event>
<event>
 8    1  0.2846344E+004  0.1043930E+01  0.7957747E-01            NaN
         13   -1    0    0    0    0  0.00000000000E+00  0.00000000000E+00  0.74505805969E-08  0.10566000000E+00  0.10566000000E+00 0. -1.
     999900   -1    0    0    0    0 -0.00000000000E+00 -0.00000000000E+00 -0.74505805969E-08  0.93827000000E+00  0.93827000000E+00 0. -1.
     999902    2    1    2    0    0  0.12309035433E-01  0.51405650842E-02  0.26160919883E-02  0.10303365567E+01  0.10302468823E+01 0.  0.
     999903    2    3    3    0    0  0.21287537851E-03  0.11251164653E+00  0.71693077015E-01  0.14104105124E+00  0.45757676106E-01 0.  0.
         14    1    1    2    0    0 -0.12309035433E-01 -0.51405650842E-02 -0.26160919883E-02  0.13593443272E-01  0.00000000000E+00 0.  1.
     999901    1    3    3    0    0  0.12096160055E-01 -0.10737108145E+00 -0.69076985027E-01  0.88929550549E+00  0.88000000000E+00 0.  1.
        -11    1    4    4    0    0 -0.38937808884E-02  0.79573370374E-01  0.72662868105E-01  0.10782966347E+00  0.51100000000E-03 0. -1.
         11    1    4    4    0    0  0.41066562669E-02  0.32938276156E-01 -0.96979108947E-03  0.33211387770E-01  0.51100000000E-03 0.  1.
</event>
<event>
 8    1  0.2846344E+004  0.1043930E+01  0.7957747E-01            NaN
         13   -1    0    0    0    0  0.00000000000E+00  0.00000000000E+00  0.74505805969E-08  0.10566000000E+00  0.10566000000E+00 0. -1.
     999900   -1    0    0    0    0 -0.00000000000E+00 -0.00000000000E+00 -0.74505805969E-08  0.93827000000E+00  0.93827000000E+00 0. -1.
     999902    2    1    2    0    0 -0.61920861788E-02 -0.10102888359E-01 -0.68446577379E-02  0.10302457162E+01  0.10301548311E+01 0.  0.
     999903    2    3    3    0    0  0.86528025898E-01 -0.75025826567E-01  0.71145752171E-01  0.13957489531E+00  0.36103454561E-01 0.  0.
         14    1    1    2    0    0  0.61920861788E-02  0.10102888359E-01  0.68446577379E-02  0.13684283832E-01  0.00000000000E+00 0. -1.
     999901    1    3    3    0    0 -0.92720112076E-01  0.64922938208E-01 -0.77990409909E-01  0.89067082086E+00  0.88000000000E+00 0.  1.
        -11    1    4    4    0    0  0.47856107339E-01 -0.18274116358E-01  0.26686303316E-01  0.57763052586E-01  0.51100000000E-03 0. -1.
         11    1    4    4    0    0  0.38671918558E-01 -0.56751710209E-01  0.44459448854E-01  0.81811842725E-01  0.51100000000E-03 0.  1.
</event>
<event>
 8    1  0.2846344E+004  0.1043930E+01  0.7957747E-01            NaN
         13   -1    0    0    0    0  0.00000000000E+00  0.00000000000E+00  0.74505805969E-08  0.10566000000E+00  0.10566000000E+00 0. -1.
     999900   -1    0    0    0    0 -0.00000000000E+00 -0.00000000000E+00 -0.74505805969E-08  0.93827000000E+00  0.93827000000E+00 0. -1.
     999902    2    1    2    0    0  0.13350751287E-01  0.91120055764E-02 -0.44878540626E-02  0.10271546598E+01  0.10270176644E+01 0.  0.
     999903    2    3    3    0    0 -0.55310388111E-01  0.11721286134E+00  0.12213275984E-01  0.13772839817E+00  0.44965027031E-01 0.  0.
         14    1    1    2    0    0 -0.13350751287E-01 -0.91120055764E-02  0.44878540626E-02  0.16775340224E-01  0.00000000000E+00 0. -1.
     999901    1    3    3    0    0  0.68661139398E-01 -0.10810085577E+00 -0.16701130047E-01  0.88942626160E+00  0.88000000000E+00 0. -1.
        -11    1    4    4    0    0 -0.31136048520E-01  0.95949022611E-01  0.23555643378E-01  0.10358956469E+00  0.51100000000E-03 0.  1.
         11    1    4    4    0    0 -0.24174339591E-01  0.21263838734E-01 -0.11342367394E-01  0.34138833481E-01  0.51100000000E-03 0. -1.
</event>
<event>
 8    1  0.2846344E+004  0.1043930E+01  0.7957747E-01            NaN
         13   -1    0    0    0    0  0.00000000000E+00  0.00000000000E+00  0.74505805969E-08  0.10566000000E+00  0.10566000000E+00 0. -1.
     999900   -1    0    0    0    0 -0.00000000000E+00 -0.00000000000E+00 -0.74505805969E-08  0.93827000000E+00  0.93827000000E+00 0.  1.
     999902    2    1    2    0    0  0.74783810513E-02  0.95364969507E-02  0.37067998645E-02  0.10312567478E+01  0.10311788732E+01 0.  0.
     999903    2    3    3    0    0  0.58507816306E-01  0.10222750098E+00  0.66675176358E-01  0.14268449862E+00  0.45162600452E-01 0.  0.
         14    1    1    2    0    0 -0.74783810513E-02 -0.95364969507E-02 -0.37067998645E-02  0.12673252245E-01  0.00000000000E+00 0.  1.
     999901    1    3    3    0    0 -0.51029435254E-01 -0.92691004027E-01 -0.62968376494E-01  0.88857224913E+00  0.88000000000E+00 0. -1.
        -11    1    4    4    0    0  0.11498406476E-01  0.14673926888E-01  0.32729413951E-01  0.37669790819E-01  0.51100000000E-03 0.  1.
         11    1    4    4    0    0  0.47009409830E-01  0.87553574090E-01  0.33945762407E-01  0.10501470780E+00  0.51100000000E-03 0. -1.
</event>
<event>
 8    1  0.2846344E+004  0.1043930E+01  0.7957747E-01            NaN
         13   -1    0    0    0    0  0.00000000000E+00  0.00000000000E+00  0.74505805969E-08  0.10566000000E+00  0.10566000000E+00 0.  1.
     999900   -1    0    0    0    0 -0.00000000000E+00 -0.00000000000E+00 -0.74505805969E-08  0.93827000000E+00  0.93827000000E+00 0.  1.
     999902    2    1    2    0    0 -0.81097911162E-03 -0.12546177582E-01  0.74234165727E-02  0.10293296105E+01  0.10292260567E+01 0.  0.
     999903    2    3    3    0    0 -0.36283366079E-01  0.95670848682E-01  0.82368514130E-01  0.13883200657E+00  0.44948414733E-01 0.  0.
         14    1    1    2    0    0  0.81097911162E-03  0.12546177582E-01 -0.74234165727E-02  0.14600389469E-01  0.00000000000E+00 0. -1.
     999901    1    3    3    0    0  0.35472386967E-01 -0.10821702626E+00 -0.74945097558E-01  0.89049760396E+00  0.88000000000E+00 0.  1.
        -11    1    4    4    0    0 -0.36992368051E-01  0.50316180882E-01  0.29203043508E-01  0.68943688788E-01  0.51100000000E-03 0.  1.
         11    1    4    4    0    0  0.70900197272E-03  0.45354667800E-01  0.53165470622E-01  0.69888317783E-01  0.51100000000E-03 0. -1.
</event>
<event>
 8    1  0.2846344E+004  0.1043930E+01  0.7957747E-01            NaN
         13   -1    0    0    0    0  0.00000000000E+00  0.00000000000E+00  0.74505805969E-08  0.10566000000E+00  0.10566000000E+00 0. -1.
     999900   -1    0    0    0    0 -0.00000000000E+00 -0.00000000000E+00 -0.74505805969E-08  0.93827000000E+00  0.93827000000E+00 0. -1.
     999902    2    1    2    0    0 -0.21888859987E-02  0.12129058185E-01  0.52169306972E-02  0.10305463667E+01  0.10304594569E+01 0.  0.
     999903    2    3    3    0    0  0.52791543306E-01  0.10890058135E+00 -0.57771103492E-01  0.14130226762E+00  0.44525798946E-01 0.  0.
         14    1    1    2    0    0  0.21888859987E-02 -0.12129058185E-01 -0.52169306972E-02  0.13383633299E-01  0.00000000000E+00 0.  1.
     999901    1    3    3    0    0 -0.54980429305E-01 -0.96771523167E-01  0.62988034190E-01  0.88924409908E+00  0.88000000000E+00 0.  1.
        -11    1    4    4    0    0  0.54134987293E-01  0.63183835955E-01 -0.38057570171E-01  0.91495539474E-01  0.51100000000E-03 0. -1.
         11    1    4    4    0    0 -0.13434439870E-02  0.45716745397E-01 -0.19713533321E-01  0.49806728145E-01  0.51100000000E-03 0.  1.
</event>
<event>
 8    1  0.2846344E+004  0.1043930E+01  0.7957747E-01            NaN
         13   -1    0    0    0    0  0.00000000000E+00  0.00000000000E+00  0.74505805969E-08  0.10566000000E+00  0.10566000000E+00 0.  1.
     999900   -1    0    0    0    0 -0.00000000000E+00 -0.00000000000E+00 -0.74505805969E-08  0.93827000000E+00  0.93827000000E+00 0.  1.
     999902    2    1    2    0    0 -0.12901818331E-01 -0.20498994411E-02 -0.27071244402E-02  0.10305888034E+01  0.10305024474E+01 0.  0.
     999903    2    3    3    0    0  0.12918285765E+00  0.22785996734E-01  0.20482756496E-02  0.13883351706E+00  0.45421775270E-01 0.  0.
         14    1    1    2    0    0  0.12901818331E-01  0.20498994411E-02  0.27071244402E-02  0.13341196600E-01  0.00000000000E+00 0. -1.
     999901    1    3    3    0    0 -0.14208467598E+00 -0.24835896175E-01 -0.47554000898E-02  0.89175528634E+00  0.88000000000E+00 0. -1.
        -11    1    4    4    0    0  0.10975588113E+00  0.23560080924E-01  0.17985198049E-01  0.11368887072E+00  0.51100000000E-03 0. -1.
         11    1    4    4    0    0  0.19426976517E-01 -0.77408418998E-03 -0.15936922399E-01  0.25144646339E-01  0.51100000000E-03 0.  1.
</event>
<event>
 8    1  0.2846344E+004  0.1043930E+01  0.7957747E-01            NaN
         13   -1    0    0    0    0  0.00000000000E+00  0.00000000000E+00  0.74505805969E-08  0.10566000000E+00  0.10566000000E+00 0. -1.
     999900   -1    0    0    0    0 -0.00000000000E+00 -0.00000000000E+00 -0.74505805969E-08  0.93827000000E+00  0.93827000000E+00 0. -1.
     999902    2    1    2    0    0 -0.71226106917E-02 -0.96002345984E-02  0.73856486688E-02  0.10298785270E+01  0.10297826647E+01 0.  0.
     999903    2    3    3    0    0  0.11418132690E+00 -0.40064514337E-01  0.54790607104E-01  0.13977182120E+00  0.43492650566E-01 0.  0.
         14    1    1    2    0    0  0.71226106917E-02  0.96002345984E-02 -0.73856486688E-02  0.14051473007E-01  0.00000000000E+00 0.  1.
     999901    1    3    3    0    0 -0.12130393759E+00  0.30464279738E-01 -0.47404958435E-01  0.89010670579E+00  0.88000000000E+00 0. -1.
        -11    1    4    4    0    0  0.48001557365E-01 -0.37716870727E-01  0.36257253440E-01  0.71003953376E-01  0.51100000000E-03 0. -1.
         11    1    4    4    0    0  0.66179769533E-01 -0.23476436094E-02  0.18533353664E-01  0.68767867823E-01  0.51100000000E-03 0.  1.
</event>
<event>
 7    1  0.2846344E+004  0.1043930E+01  0.7957747E-01            NaN
         13   -1    0    0    0    0  0.00000000000E+00  0.00000000000E+00  0.74505805969E-08  0.10566000000E+00  0.10566000000E+00 0.  1.
     999900   -1    0    0    0    0 -0.00000000000E+00 -0.00000000000E+00 -0.74505805969E-08  0.93827000000E+00  0.93827000000E+00 0. -1.
     999903    2    1    2    0    0 -0.57341323487E-01  0.88186350842E-01  0.31609151501E-01  0.11862475042E+00  0.44808850674E-01 0.  0.
         14    1    1    2    0    0 -0.62567562523E-02  0.95707481766E-02  0.33331934439E-01  0.35238672973E-01  0.00000000000E+00 0.  1.
     999901    1    1    2    0    0  0.63598079739E-01 -0.97757099019E-01 -0.64941085940E-01  0.89006657661E+00  0.88000000000E+00 0. -1.
        -11    1    3    3    0    0 -0.41257133804E-01  0.79953801911E-01  0.10113207231E-01  0.90538939752E-01  0.51100000000E-03 0. -1.
         11    1    3    3    0    0 -0.16084189683E-01  0.82325489304E-02  0.21495944270E-01  0.28085810665E-01  0.51100000000E-03 0.  1.
</event>
<event>
 8    1  0.2846344E+004  0.1043930E+01  0.7957747E-01            NaN
         13   -1    0    0    0    0  0.00000000000E+00  0.00000000000E+00  0.74505805969E-08  0.10566000000E+00  0.10566000000E+00 0.  1.
     999900   -1    0    0    0    0 -0.00000000000E+00 -0.00000000000E+00 -0.74505805969E-08  0.93827000000E+00  0.93827000000E+00 0.  1.
     999902    2    1    2    0    0 -0.20028917702E-02  0.68634682331E-03 -0.13411393872E-01  0.10303525137E+01  0.10302630511E+01 0.  0.
     999903    2    3    3    0    0 -0.49920298082E-01 -0.90581083096E-01  0.82111088492E-01  0.13920136707E+00  0.44020687910E-01 0.  0.
         14    1    1    2    0    0  0.20028917702E-02 -0.68634682331E-03  0.13411393872E-01  0.13577486255E-01  0.00000000000E+00 0.  1.
     999901    1    3    3    0    0  0.47917406312E-01  0.91267429919E-01 -0.95522482364E-01  0.89115114668E+00  0.88000000000E+00 0.  1.
        -11    1    4    4    0    0 -0.23064000630E-01 -0.26255697051E-01  0.50909498366E-02  0.35319805265E-01  0.51100000000E-03 0.  1.
         11    1    4    4    0    0 -0.26856297452E-01 -0.64325386045E-01  0.77020138655E-01  0.10388156180E+00  0.51100000000E-03 0. -1.
</event>
<event>
 8    1  0.2846344E+004  0.1043930E+01  0.7957747E-01            NaN
         13   -1    0    0    0    0  0.00000000000E+00  0.00000000000E+00  0.74505805969E-08  0.10566000000E+00  0.10566000000E+00 0.  1.
     999900   -1    0    0    0    0 -0.00000000000E+00 -0.00000000000E+00 -0.74505805969E-08  0.93827000000E+00  0.93827000000E+00 0. -1.
     999902    2    1    2    0    0 -0.13476242314E-01 -0.14869698377E-03 -0.24476080775E-03  0.10304507149E+01  0.10303625502E+01 0.  0.
     999903    2    3    3    0    0 -0.25071922359E-01  0.10758213032E+00 -0.74614984225E-01  0.14069157839E+00  0.44991202534E-01 0.  0.
         14    1    1    2    0    0  0.13476242314E-01  0.14869698377E-03  0.24476080775E-03  0.13479285053E-01  0.00000000000E+00 0.  1.
     999901    1    3    3    0    0  0.11595680045E-01 -0.10773082730E+00  0.74370223417E-01  0.88975913655E+00  0.88000000000E+00 0.  1.
        -11    1    4    4    0    0 -0.32478215168E-01  0.79135323635E-01 -0.37651322542E-01  0.93461848460E-01  0.51100000000E-03 0.  1.
         11    1    4    4    0    0  0.74062928096E-02  0.28446806684E-01 -0.36963661683E-01  0.47229729935E-01  0.51100000000E-03 0. -1.
</event>
<event>
 8    1  0.2846344E+004  0.1043930E+01  0.7957747E-01            NaN
         13   -1    0    0    0    0  0.00000000000E+00  0.00000000000E+00  0.74505805969E-08  0.10566000000E+00  0.10566000000E+00 0. -1.
     999900   -1    0    0    0    0 -0.00000000000E+00 -0.00000000000E+00 -0.74505805969E-08  0.93827000000E+00  0.93827000000E+00 0.  1.
     999902    2    1    2    0    0 -0.80591768790E-02  0.78416224504E-02  0.11264443134E-01  0.10280136859E+01  0.10278904657E+01 0.  0.
     999903    2    3    3    0    0 -0.11463583767E+00 -0.28782982699E-01  0.58922480343E-01  0.13954802264E+00  0.45077228844E-01 0.  0.
         14    1    1    2    0    0  0.80591768790E-02 -0.78416224504E-02 -0.11264443134E-01  0.15916314075E-01  0.00000000000E+00 0.  1.
     999901    1    3    3    0    0  0.10657666079E+00  0.36624605150E-01 -0.47658037210E-01  0.88846566329E+00  0.88000000000E+00 0.  1.
        -11    1    4    4    0    0 -0.36624935722E-01 -0.29694997298E-01  0.32123377651E-01  0.57055685903E-01  0.51100000000E-03 0.  1.
         11    1    4    4    0    0 -0.78010901952E-01  0.91201459836E-03  0.26799102692E-01  0.82492336736E-01  0.51100000000E-03 0. -1.
</event>
<event>
 8    1  0.2846344E+004  0.1043930E+01  0.7957747E-01            NaN
         13   -1    0    0    0    0  0.00000000000E+00  0.00000000000E+00  0.74505805969E-08  0.10566000000E+00  0.10566000000E+00 0.  1.
     999900   -1    0    0    0    0 -0.00000000000E+00 -0.00000000000E+00 -0.74505805969E-08  0.93827000000E+00  0.93827000000E+00 0.  1.
     999902    2    1    2    0    0 -0.11562585881E-01 -0.63468137609E-02 -0.37432205539E-03  0.10307347147E+01  0.10306502494E+01 0.  0.
     999903    2    3    3    0    0  0.84070758358E-01  0.97659614164E-01 -0.26208412304E-01  0.13908990100E+00  0.45319168514E-01 0.  0.
         14    1    1    2    0    0  0.11562585881E-01  0.63468137609E-02  0.37432205539E-03  0.13195285301E-01  0.00000000000E+00 0. -1.
     999901    1    3    3    0    0 -0.95633344239E-01 -0.10400642792E+00  0.25834090248E-01  0.89164481370E+00  0.88000000000E+00 0. -1.
        -11    1    4    4    0    0  0.88608611378E-01  0.95462586480E-01 -0.28804259406E-01  0.13339616902E+00  0.51100000000E-03 0.  1.
         11    1    4    4    0    0 -0.45378530207E-02  0.21970276842E-02  0.25958471024E-02  0.56937319801E-02  0.51100000000E-03 0. -1.
</event>
<event>
 7    1  0.2846344E+004  0.1043930E+01  0.7957747E-01            NaN
         13   -1    0    0    0    0  0.00000000000E+00  0.00000000000E+00  0.74505805969E-08  0.10566000000E+00  0.10566000000E+00 0.  1.
     999900   -1    0    0    0    0 -0.00000000000E+00 -0.00000000000E+00 -0.74505805969E-08  0.93827000000E+00  0.93827000000E+00 0. -1.
     999903    2    1    2    0    0  0.27540139954E-01  0.18894383868E-01  0.10225940985E+00  0.11650867594E+00  0.44741788246E-01 0.  0.
         14    1    1    2    0    0 -0.39856984485E-01 -0.10088310953E-01 -0.11079706783E-01  0.42580666183E-01  0.00000000000E+00 0. -1.
     999901    1    1    2    0    0  0.12316844531E-01 -0.88060729151E-02 -0.91179703070E-01  0.88484065788E+00  0.88000000000E+00 0. -1.
        -11    1    3    3    0    0  0.36552893171E-01  0.27771415361E-02  0.76258101218E-01  0.84613152859E-01  0.51100000000E-03 0.  1.
         11    1    3    3    0    0 -0.90127532169E-02  0.16117242332E-01  0.26001308635E-01  0.31895523082E-01  0.51100000000E-03 0. -1.
</event>
<event>
 8    1  0.2846344E+004  0.1043930E+01  0.7957747E-01            NaN
         13   -1    0    0    0    0  0.00000000000E+00  0.00000000000E+00  0.74505805969E-08  0.10566000000E+00  0.10566000000E+00 0.  1.
     999900   -1    0    0    0    0 -0.00000000000E+00 -0.00000000000E+00 -0.74505805969E-08  0.93827000000E+00  0.93827000000E+00 0.  1.
     999902    2    1    2    0    0  0.78059720742E-02 -0.10802145998E-01  0.72237884356E-02  0.10287707560E+01  0.10286590620E+01 0.  0.
     999903    2    3    3    0    0 -0.12783379205E+00 -0.63823904528E-02 -0.24157850615E-01  0.13781481598E+00  0.45023421234E-01 0.  0.
         14    1    1    2    0    0 -0.78059720742E-02  0.10802145998E-01 -0.72237884356E-02  0.15159243963E-01  0.00000000000E+00 0.  1.
     999901    1    3    3    0    0  0.13563976412E+00 -0.44197555450E-02  0.31381639051E-01  0.89095594006E+00  0.88000000000E+00 0. -1.
        -11    1    4    4    0    0 -0.36082575688E-01  0.18276219249E-01 -0.10839006681E-01  0.41877412112E-01  0.51100000000E-03 0.  1.
         11    1    4    4    0    0 -0.91751216362E-01 -0.24658609702E-01 -0.13318843934E-01  0.95937403869E-01  0.51100000000E-03 0. -1.
</event>
<event>
 8    1  0.2846344E+004  0.1043930E+01  0.7957747E-01            NaN
         13   -1    0    0    0    0  0.00000000000E+00  0.00000000000E+00  0.74505805969E-08  0.10566000000E+00  0.10566000000E+00 0. -1.
     999900   -1    0    0    0    0 -0.00000000000E+00 -0.00000000000E+00 -0.74505805969E-08  0.93827000000E+00  0.93827000000E+00 0.  1.
     999902    2    1    2    0    0  0.18174876057E-01 -0.35702331461E-02 -0.10014119933E-02  0.10253807275E+01  0.10252129344E+01 0.  0.
     999903    2    3    3    0    0 -0.11290632702E+00 -0.56896744391E-01  0.52067168037E-03  0.13407364498E+00  0.44613820473E-01 0.  0.
         14    1    1    2    0    0 -0.18174876057E-01  0.35702331461E-02  0.10014119933E-02  0.18549272503E-01  0.00000000000E+00 0. -1.
     999901    1    3    3    0    0  0.13108120307E+00  0.53326511244E-01 -0.15220836737E-02  0.89130708251E+00  0.88000000000E+00 0. -1.
        -11    1    4    4    0    0 -0.36015544781E-01 -0.48224782072E-02 -0.16072916981E-01  0.39736325235E-01  0.51100000000E-03 0.  1.
         11    1    4    4    0    0 -0.76890782236E-01 -0.52074266183E-01  0.16593588662E-01  0.94337319747E-01  0.51100000000E-03 0. -1.
</event>
<event>
 8    1  0.2846344E+004  0.1043930E+01  0.7957747E-01            NaN
         13   -1    0    0    0    0  0.00000000000E+00  0.00000000000E+00  0.74505805969E-08  0.10566000000E+00  0.10566000000E+00 0. -1.
     999900   -1    0    0    0    0 -0.00000000000E+00 -0.00000000000E+00 -0.74505805969E-08  0.93827000000E+00  0.93827000000E+00 0. -1.
     999902    2    1    2    0    0 -0.88321010603E-02  0.64694792626E-02  0.58506632130E-02  0.10315166833E+01  0.10314419894E+01 0.  0.
     999903    2    3    3    0    0  0.91901193048E-01  0.92811819479E-01  0.29567451964E-01  0.14125566411E+00  0.44934010589E-01 0.  0.
         14    1    1    2    0    0  0.88321010603E-02 -0.64694792626E-02 -0.58506632130E-02  0.12413316684E-01  0.00000000000E+00 0.  1.
     999901    1    3    3    0    0 -0.10073329411E+00 -0.86342340216E-01 -0.23716788751E-01  0.89026101921E+00  0.88000000000E+00 0. -1.
        -11    1    4    4    0    0  0.58883935054E-01  0.86087225406E-01  0.24936323433E-01  0.10723996239E+00  0.51100000000E-03 0.  1.
         11    1    4    4    0    0  0.33017257994E-01  0.67245940727E-02  0.46311285312E-02  0.34015701718E-01  0.51100000000E-03 0. -1.
</event>
<event>
 8    1  0.2846344E+004  0.1043930E+01  0.7957747E-01            NaN
         13   -1    0    0    0    0  0.00000000000E+00  0.00000000000E+00  0.74505805969E-08  0.10566000000E+00  0.10566000000E+00 0.  1.
     999900   -1    0    0    0    0 -0.00000000000E+00 -0.00000000000E+00 -0.74505805969E-08  0.93827000000E+00  0.93827000000E+00 0. -1.
     999902    2    1    2    0    0  0.39855116206E-02 -0.86912270656E-02 -0.10315401109E-01  0.10298648220E+01  0.10297687714E+01 0.  0.
     999903    2    3    3    0    0 -0.35145896206E-02  0.97304937294E-01 -0.89790315369E-01  0.13991667728E+00  0.45097368940E-01 0.  0.
         14    1    1    2    0    0 -0.39855116206E-02  0.86912270656E-02  0.10315401109E-01  0.14065177952E-01  0.00000000000E+00 0.  1.
     999901    1    3    3    0    0  0.75001012412E-02 -0.10599616436E+00  0.79474914259E-01  0.88994814477E+00  0.88000000000E+00 0.  1.
        -11    1    4    4    0    0 -0.23546790377E-01  0.66559971487E-01 -0.58663229191E-01  0.91794971113E-01  0.51100000000E-03 0.  1.
         11    1    4    4    0    0  0.20032200757E-01  0.30744965807E-01 -0.31127086178E-01  0.48121706168E-01  0.51100000000E-03 0. -1.
</event>
<event>
 8    1  0.2846344E+004  0.1043930E+01  0.7957747E-01            NaN
         13   -1    0    0    0    0  0.00000000000E+00  0.00000000000E+00  0.74505805969E-08  0.10566000000E+00  0.10566000000E+00 0. -1.
     999900   -1    0    0    0    0 -0.00000000000E+00 -0.00000000000E+00 -0.74505805969E-08  0.93827000000E+00  0.93827000000E+00 0. -1.
     999902    2    1    2    0    0  0.47288532101E-02 -0.59410047287E-02  0.10257688290E-01  0.10311676429E+01  0.10310886625E+01 0.  0.
     999903    2    3    3    0    0  0.67700253136E-01 -0.11635569097E+00  0.64412633411E-02  0.14202684119E+00  0.44812527835E-01 0.  0.
         14    1    1    2    0    0 -0.47288532101E-02  0.59410047287E-02 -0.10257688290E-01  0.12762357107E-01  0.00000000000E+00 0.  1.
     999901    1    3    3    0    0 -0.62971399926E-01  0.11041468624E+00  0.38164249490E-02  0.88914080170E+00  0.88000000000E+00 0.  1.
        -11    1    4    4    0    0  0.36280136666E-01 -0.89507612544E-01  0.19798244962E-01  0.98590530197E-01  0.51100000000E-03 0.  1.
         11    1    4    4    0    0  0.31420116471E-01 -0.26848078423E-01 -0.13356981621E-01  0.43436310998E-01  0.51100000000E-03 0. -1.
</event>
<event>
 8    1  0.2846344E+004  0.1043930E+01  0.7957747E-01            NaN
         13   -1    0    0    0    0  0.00000000000E+00  0.00000000000E+00  0.74505805969E-08  0.10566000000E+00  0.10566000000E+00 0.  1.
     999900   -1    0    0    0    0 -0.00000000000E+00 -0.00000000000E+00 -0.74505805969E-08  0.93827000000E+00  0.93827000000E+00 0.  1.
     999902    2    1    2    0    0 -0.10938739218E-01 -0.70923410071E-03  0.78453915954E-02  0.10304500446E+01  0.10303618710E+01 0.  0.
     999903    2    3    3    0    0  0.12199683557E+00  0.45550219444E-01  0.20706749337E-01  0.13917162646E+00  0.44518779915E-01 0.  0.
         14    1    1    2    0    0  0.10938739218E-01  0.70923410071E-03 -0.78453915954E-02  0.13479955415E-01  0.00000000000E+00 0.  1.
     999901    1    3    3    0    0 -0.13293557478E+00 -0.46259453545E-01 -0.12861357742E-01  0.89127841812E+00  0.88000000000E+00 0.  1.
        -11    1    4    4    0    0  0.10249749894E+00  0.32429150609E-01 -0.50544272453E-03  0.10750769131E+00  0.51100000000E-03 0.  1.
         11    1    4    4    0    0  0.19499336628E-01  0.13121068836E-01  0.21212192062E-01  0.31663935153E-01  0.51100000000E-03 0. -1.
</event>
<event>
 8    1  0.2846344E+004  0.1043930E+01  0.7957747E-01            NaN
         13   -1    0    0    0    0  0.00000000000E+00  0.00000000000E+00  0.74505805969E-08  0.10566000000E+00  0.10566000000E+00 0. -1.
     999900   -1    0    0    0    0 -0.00000000000E+00 -0.00000000000E+00 -0.74505805969E-08  0.93827000000E+00  0.93827000000E+00 0. -1.
     999902    2    1    2    0    0  0.77099861996E-02  0.34237164300E-02  0.10557678928E-01  0.10304159219E+01  0.10303272984E+01 0.  0.
     999903    2    3    3    0    0  0.16774795516E-01 -0.11819891079E+00  0.59402762741E-01  0.14066310434E+00  0.44777722412E-01 0.  0.
         14    1    1    2    0    0 -0.77099861996E-02 -0.34237164300E-02 -0.10557678928E-01  0.13514078058E-01  0.00000000000E+00 0.  1.
     999901    1    3    3    0    0 -0.90648093161E-02  0.12162262722E+00 -0.48845083813E-01  0.88975281760E+00  0.88000000000E+00 0. -1.
        -11    1    4    4    0    0 -0.13573637376E-01 -0.62233165709E-01  0.26418849294E-01  0.68959606037E-01  0.51100000000E-03 0.  1.
         11    1    4    4    0    0  0.30348432891E-01 -0.55965745082E-01  0.32983913447E-01  0.71703498302E-01  0.51100000000E-03 0. -1.
</event>
<event>
 8    1  0.2846344E+004  0.1043930E+01  0.7957747E-01            NaN
         13   -1    0    0    0    0  0.00000000000E+00  0.00000000000E+00  0.74505805969E-08  0.10566000000E+00  0.10566000000E+00 0.  1.
     999900   -1    0    0    0    0 -0.00000000000E+00 -0.00000000000E+00 -0.74505805969E-08  0.93827000000E+00  0.93827000000E+00 0. -1.
     999902    2    1    2    0    0 -0.72399997814E-02  0.24822243690E-03  0.11478815159E-01  0.10303564077E+01  0.10302669967E+01 0.  0.
     999903    2    3    3    0    0  0.42612982264E-01  0.84146392034E-01 -0.91631459238E-01  0.13897772756E+00  0.44966686391E-01 0.  0.
         14    1    1    2    0    0  0.72399997814E-02 -0.24822243690E-03 -0.11478815159E-01  0.13573592327E-01  0.00000000000E+00 0. -1.
     999901    1    3    3    0    0 -0.49852982045E-01 -0.83898169597E-01  0.10311027440E+00  0.89137868012E+00  0.88000000000E+00 0.  1.
        -11    1    4    4    0    0  0.24667583654E-01  0.42350791937E-01 -0.17580255873E-01  0.52071160719E-01  0.51100000000E-03 0. -1.
         11    1    4    4    0    0  0.17945398610E-01  0.41795600097E-01 -0.74051203365E-01  0.86906566838E-01  0.51100000000E-03 0.  1.
</event>
<event>
 8    1  0.2846344E+004  0.1043930E+01  0.7957747E-01            NaN
         13   -1    0    0    0    0  0.00000000000E+00  0.00000000000E+00  0.74505805969E-08  0.10566000000E+00  0.10566000000E+00 0.  1.
     999900   -1    0    0    0    0 -0.00000000000E+00 -0.00000000000E+00 -0.74505805969E-08  0.93827000000E+00  0.93827000000E+00 0. -1.
     999902    2    1    2    0    0  0.13404324823E-01  0.15190193393E-02 -0.37700950978E-02  0.10299229675E+01  0.10298277147E+01 0.  0.
     999903    2    3    3    0    0 -0.62341383546E-01  0.42768194764E-01  0.10727954076E+00  0.13876028397E+00  0.45054965946E-01 0.  0.
         14    1    1    2    0    0 -0.13404324823E-01 -0.15190193393E-02  0.37700950978E-02  0.14007032547E-01  0.00000000000E+00 0. -1.
     999901    1    3    3    0    0  0.75745708370E-01 -0.41249175425E-01 -0.11104963586E+00  0.89116268348E+00  0.88000000000E+00 0. -1.
        -11    1    4    4    0    0 -0.46498502989E-01  0.42094770917E-01  0.52709351749E-01  0.81930564514E-01  0.51100000000E-03 0.  1.
         11    1    4    4    0    0 -0.15842880558E-01  0.67342384671E-03  0.54570189008E-01  0.56829719456E-01  0.51100000000E-03 0. -1.
</event>
<event>
 8    1  0.2846344E+004  0.1043930E+01  0.7957747E-01            NaN
         13   -1    0    0    0    0  0.00000000000E+00  0.00000000000E+00  0.74505805969E-08  0.10566000000E+00  0.10566000000E+00 0. -1.
     999900   -1    0    0    0    0 -0.00000000000E+00 -0.00000000000E+00 -0.74505805969E-08  0.93827000000E+00  0.93827000000E+00 0. -1.
     999902    2    1    2    0    0  0.90237353354E-02  0.74617758740E-03  0.94736172308E-02  0.10308252679E+01  0.10307419652E+01 0.  0.
     999903    2    3    3    0    0  0.27126631164E-01 -0.10099492976E+00 -0.81160979947E-01  0.14015495965E+00  0.46048649193E-01 0.  0.
         14    1    1    2    0    0 -0.90237353354E-02 -0.74617758740E-03 -0.94736172308E-02  0.13104732116E-01  0.00000000000E+00 0.  1.
     999901    1    3    3    0    0 -0.18102895829E-01  0.10174110735E+00  0.90634597178E-01  0.89067030823E+00  0.88000000000E+00 0.  1.
        -11    1    4    4    0    0  0.19792034983E-01 -0.10026214912E-01 -0.96027283866E-02  0.24181049351E-01  0.51100000000E-03 0. -1.
         11    1    4    4    0    0  0.73345961807E-02 -0.90968714852E-01 -0.71558251560E-01  0.11597391030E+00  0.51100000000E-03 0.  1.
</event>
<event>
 8    1  0.2846344E+004  0.1043930E+01  0.7957747E-01            NaN
         13   -1    0    0    0    0  0.00000000000E+00  0.00000000000E+00  0.74505805969E-08  0.10566000000E+00  0.10566000000E+00 0. -1.
     999900   -1    0    0    0    0 -0.00000000000E+00 -0.00000000000E+00 -0.74505805969E-08  0.93827000000E+00  0.93827000000E+00 0. -1.
     999902    2    1    2    0    0  0.91206142567E-02  0.10869659828E-01  0.50919036517E-02  0.10288547689E+01  0.10287443185E+01 0.  0.
     999903    2    3    3    0    0  0.10506176360E+00 -0.14941223640E-01 -0.78298520265E-01  0.13934655162E+00  0.45006542184E-01 0.  0.
         14    1    1    2    0    0 -0.91206142567E-02 -0.10869659828E-01 -0.50919036517E-02  0.15075231076E-01  0.00000000000E+00 0.  1.
     999901    1    3    3    0    0 -0.95941149343E-01  0.25810883468E-01  0.83390423917E-01  0.88950821730E+00  0.88000000000E+00 0.  1.
        -11    1    4    4    0    0  0.44493975847E-01 -0.99172218094E-02 -0.61002830437E-01  0.76155575091E-01  0.51100000000E-03 0. -1.
         11    1    4    4    0    0  0.60567787752E-01 -0.50240018309E-02 -0.17295689828E-01  0.63190976533E-01  0.51100000000E-03 0.  1.
</event>
<event>
 8    1  0.2846344E+004  0.1043930E+01  0.7957747E-01            NaN
         13   -1    0    0    0    0  0.00000000000E+00  0.00000000000E+00  0.74505805969E-08  0.10566000000E+00  0.10566000000E+00 0.  1.
     999900   -1    0    0    0    0 -0.00000000000E+00 -0.00000000000E+00 -0.74505805969E-08  0.93827000000E+00  0.93827000000E+00 0. -1.
     999902    2    1    2    0    0 -0.36249545440E-02 -0.11767395545E-01 -0.65392274507E-02  0.10299882143E+01  0.10298938529E+01 0.  0.
     999903    2    3    3    0    0  0.45789471834E-01  0.12214463544E+00  0.10701512159E-01  0.13832041702E+00  0.44744024209E-01 0.  0.
         14    1    1    2    0    0  0.36249545440E-02  0.11767395545E-01  0.65392274507E-02  0.13941785718E-01  0.00000000000E+00 0.  1.
     999901    1    3    3    0    0 -0.49414426378E-01 -0.13391203099E+00 -0.17240739610E-01  0.89166779727E+00  0.88000000000E+00 0.  1.
        -11    1    4    4    0    0  0.19434917132E-01  0.84697061978E-02  0.21929875681E-02  0.21319527257E-01  0.51100000000E-03 0. -1.
         11    1    4    4    0    0  0.26354554703E-01  0.11367492925E+00  0.85085245908E-02  0.11700088976E+00  0.51100000000E-03 0.  1.
</event>
<event>
 8    1  0.2846344E+004  0.1043930E+01  0.7957747E-01            NaN
         13   -1    0    0    0    0  0.00000000000E+00  0.00000000000E+00  0.74505805969E-08  0.10566000000E+00  0.10566000000E+00 0. -1.
     999900   -1    0    0    0    0 -0.00000000000E+00 -0.00000000000E+00 -0.74505805969E-08  0.93827000000E+00  0.93827000000E+00 0. -1.
     999902    2    1    2    0    0 -0.21873187604E-02 -0.92412426842E-02 -0.10052484951E-01  0.10301011395E+01  0.10300083107E+01 0.  0.
     999903    2    3    3    0    0 -0.99701400252E-01 -0.50025273580E-01  0.66206137531E-01  0.14050139197E+00  0.53986028646E-01 0.  0.
         14    1    1    2    0    0  0.21873187604E-02  0.92412426842E-02  0.10052484951E-01  0.13828860524E-01  0.00000000000E+00 0. -1.
     999901    1    3    3    0    0  0.97514081491E-01  0.40784030895E-01 -0.76258622482E-01  0.88959974751E+00  0.88000000000E+00 0.  1.
        -11    1    4    4    0    0 -0.52553618151E-01  0.25237703892E-02  0.20913692970E-01  0.56620631155E-01  0.51100000000E-03 0. -1.
         11    1    4    4    0    0 -0.47147782101E-01 -0.52549043969E-01  0.45292444561E-01  0.83880760812E-01  0.51100000000E-03 0.  1.
</event>
<event>
 8    1  0.2846344E+004  0.1043930E+01  0.7957747E-01            NaN
         13   -1    0    0    0    0  0.00000000000E+00  0.00000000000E+00  0.74505805969E-08  0.10566000000E+00  0.10566000000E+00 0. -1.
     999900   -1    0    0    0    0 -0.00000000000E+00 -0.00000000000E+00 -0.74505805969E-08  0.93827000000E+00  0.93827000000E+00 0. -1.
     999902    2    1    2    0    0  0.11962755234E-01 -0.76003077367E-02 -0.19363860555E-03  0.10297557386E+01  0.10296581819E+01 0.  0.
     999903    2    3    3    0    0 -0.70272109155E-01 -0.95036749807E-01  0.60144918598E-01  0.13956000405E+00  0.43467578231E-01 0.  0.
         14    1    1    2    0    0 -0.11962755234E-01  0.76003077367E-02  0.19363860555E-03  0.14174261406E-01  0.00000000000E+00 0. -1.
     999901    1    3    3    0    0  0.82234864389E-01  0.87436442070E-01 -0.60338557203E-01  0.89019573455E+00  0.88000000000E+00 0.  1.
        -11    1    4    4    0    0 -0.33664666461E-01 -0.58476003590E-01  0.11318393766E-01  0.68418710323E-01  0.51100000000E-03 0.  1.
         11    1    4    4    0    0 -0.36607442694E-01 -0.36560746217E-01  0.48826524831E-01  0.71141293723E-01  0.51100000000E-03 0. -1.
</event>
<event>
 8    1  0.2846344E+004  0.1043930E+01  0.7957747E-01            NaN
         13   -1    0    0    0    0  0.00000000000E+00  0.00000000000E+00  0.74505805969E-08  0.10566000000E+00  0.10566000000E+00 0. -1.
     999900   -1    0    0    0    0 -0.00000000000E+00 -0.00000000000E+00 -0.74505805969E-08  0.93827000000E+00  0.93827000000E+00 0.  1.
     999902    2    1    2    0    0 -0.16543013917E-03  0.24844188501E-02 -0.13268097858E-01  0.10304302917E+01  0.10303418578E+01 0.  0.
     999903    2    3    3    0    0 -0.13164555800E+00  0.18651581572E-01 -0.90435717728E-02  0.14050543653E+00  0.44514683749E-01 0.  0.
         14    1    1    2    0    0  0.16543013917E-03 -0.24844188501E-02  0.13268097858E-01  0.13499708327E-01  0.00000000000E+00 0. -1.
     999901    1    3    3    0    0  0.13148012786E+00 -0.16167162722E-01 -0.42245260853E-02  0.88992485514E+00  0.88000000000E+00 0.  1.
        -11    1    4    4    0    0 -0.87449601448E-02  0.75511213889E-02 -0.12533532219E-01  0.17054158233E-01  0.51100000000E-03 0. -1.
         11    1    4    4    0    0 -0.12290059785E+00  0.11100460183E-01  0.34899604464E-02  0.12345127830E+00  0.51100000000E-03 0.  1.
</event>
<event>
 8    1  0.2846344E+004  0.1043930E+01  0.7957747E-01            NaN
         13   -1    0    0    0    0  0.00000000000E+00  0.00000000000E+00  0.74505805969E-08  0.10566000000E+00  0.10566000000E+00 0. -1.
     999900   -1    0    0    0    0 -0.00000000000E+00 -0.00000000000E+00 -0.74505805969E-08  0.93827000000E+00  0.93827000000E+00 0. -1.
     999902    2    1    2    0    0  0.67314760579E-02 -0.52486417026E-02 -0.11047361006E-01  0.10299691549E+01  0.10298745336E+01 0.  0.
     999903    2    3    3    0    0 -0.91339102368E-01 -0.78137634714E-01  0.48225871560E-01  0.13955129811E+00  0.51966417397E-01 0.  0.
         14    1    1    2    0    0 -0.67314760579E-02  0.52486417026E-02  0.11047361006E-01  0.13960845062E-01  0.00000000000E+00 0. -1.
     999901    1    3    3    0    0  0.98070578426E-01  0.72888993011E-01 -0.59273232566E-01  0.89041785683E+00  0.88000000000E+00 0. -1.
        -11    1    4    4    0    0  0.41726837356E-02 -0.14334816212E-01  0.11843526686E-01  0.19063800533E-01  0.51100000000E-03 0. -1.
         11    1    4    4    0    0 -0.95511786104E-01 -0.63802818502E-01  0.36382344874E-01  0.12048749758E+00  0.51100000000E-03 0.  1.
</event>
<event>
 7    1  0.2846344E+004  0.1043930E+01  0.7957747E-01            NaN
         13   -1    0    0    0    0  0.00000000000E+00  0.00000000000E+00  0.74505805969E-08  0.10566000000E+00  0.10566000000E+00 0. -1.
     999900   -1    0    0    0    0 -0.00000000000E+00 -0.00000000000E+00 -0.74505805969E-08  0.93827000000E+00  0.93827000000E+00 0. -1.
     999903    2    1    2    0    0 -0.29055648365E-01  0.91119131018E-01  0.20204585180E-01  0.10747341155E+00  0.44669701013E-01 0.  0.
         14    1    1    2    0    0  0.49775049213E-01 -0.71347254157E-02  0.11748910785E-01  0.51638132573E-01  0.00000000000E+00 0.  1.
     999901    1    1    2    0    0 -0.20719400848E-01 -0.83984405603E-01 -0.31953495965E-01  0.88481845588E+00  0.88000000000E+00 0. -1.
        -11    1    3    3    0    0 -0.13627364499E-01  0.70626546742E-01  0.32607279085E-01  0.78976641725E-01  0.51100000000E-03 0. -1.
         11    1    3    3    0    0 -0.15428283867E-01  0.20492584277E-01 -0.12402693905E-01  0.28496769826E-01  0.51100000000E-03 0.  1.
</event>
<event>
 8    1  0.2846344E+004  0.1043930E+01  0.7957747E-01            NaN
         13   -1    0    0    0    0  0.00000000000E+00  0.00000000000E+00  0.74505805969E-08  0.10566000000E+00  0.10566000000E+00 0. -1.
     999900   -1    0    0    0    0 -0.00000000000E+00 -0.00000000000E+00 -0.74505805969E-08  0.93827000000E+00  0.93827000000E+00 0.  1.
     999902    2    1    2    0    0 -0.13712208474E-01 -0.36668932107E-02 -0.19169249260E-02  0.10296071034E+01  0.10295074754E+01 0.  0.
     999903    2    3    3    0    0 -0.12436454169E-01 -0.13203262011E+00  0.58771250108E-02  0.14025895184E+00  0.45285260390E-01 0.  0.
         14    1    1    2    0    0  0.13712208474E-01  0.36668932107E-02  0.19169249260E-02  0.14322896642E-01  0.00000000000E+00 0.  1.
     999901    1    3    3    0    0 -0.12757543042E-02  0.12836572690E+00 -0.77940499368E-02  0.88934815152E+00  0.88000000000E+00 0.  1.
        -11    1    4    4    0    0 -0.25893602779E-01 -0.45250311032E-01 -0.12178903084E-02  0.52151833057E-01  0.51100000000E-03 0.  1.
         11    1    4    4    0    0  0.13457148610E-01 -0.86782309076E-01  0.70950153192E-02  0.88107118785E-01  0.51100000000E-03 0. -1.
</event>
<event>
 8    1  0.2846344E+004  0.1043930E+01  0.7957747E-01            NaN
         13   -1    0    0    0    0  0.00000000000E+00  0.00000000000E+00  0.74505805969E-08  0.10566000000E+00  0.10566000000E+00 0.  1.
     999900   -1    0    0    0    0 -0.00000000000E+00 -0.00000000000E+00 -0.74505805969E-08  0.93827000000E+00  0.93827000000E+00 0. -1.
     999902    2    1    2    0    0  0.67428179964E-02 -0.44205753521E-02  0.11817757965E-01  0.10296238306E+01  0.10295244368E+01 0.  0.
     999903    2    3    3    0    0 -0.84821634855E-01  0.16821465580E-01  0.10130981141E+00  0.14010480267E+00  0.43451195600E-01 0.  0.
         14    1    1    2    0    0 -0.67428179964E-02  0.44205753521E-02 -0.11817757965E-01  0.14306169449E-01  0.00000000000E+00 0. -1.
     999901    1    3    3    0    0  0.91564452851E-01 -0.21242040933E-01 -0.89492053449E-01  0.88951902788E+00  0.88000000000E+00 0. -1.
        -11    1    4    4    0    0 -0.49973697302E-01  0.12618211176E-01  0.27614517191E-01  0.58475741602E-01  0.51100000000E-03 0. -1.
         11    1    4    4    0    0 -0.34847937553E-01  0.42032544046E-02  0.73695294224E-01  0.81629061069E-01  0.51100000000E-03 0.  1.
</event>
<event>
 8    1  0.2846344E+004  0.1043930E+01  0.7957747E-01            NaN
         13   -1    0    0    0    0  0.00000000000E+00  0.00000000000E+00  0.74505805969E-08  0.10566000000E+00  0.10566000000E+00 0.  1.
     999900   -1    0    0    0    0 -0.00000000000E+00 -0.00000000000E+00 -0.74505805969E-08  0.93827000000E+00  0.93827000000E+00 0. -1.
     999902    2    1    2    0    0 -0.23083235142E-01 -0.47395910256E-02 -0.96958416356E-02  0.10184484613E+01  0.10181296379E+01 0.  0.
     999903    2    3    3    0    0 -0.11411103251E+00  0.24350305358E-01  0.41061216373E-01  0.13182082760E+00  0.45567993016E-01 0.  0.
         14    1    1    2    0    0  0.23083235142E-01  0.47395910256E-02  0.96958416356E-02  0.25481538665E-01  0.00000000000E+00 0.  1.
     999901    1    3    3    0    0  0.91027797369E-01 -0.29089896384E-01 -0.50757058009E-01  0.88662763374E+00  0.88000000000E+00 0. -1.
        -11    1    4    4    0    0 -0.16366278774E-01  0.16766360589E-01 -0.42478674064E-02  0.23817460545E-01  0.51100000000E-03 0.  1.
         11    1    4    4    0    0 -0.97744753737E-01  0.75839447687E-02  0.45309083780E-01  0.10800336706E+00  0.51100000000E-03 0. -1.
</event>
<event>
 8    1  0.2846344E+004  0.1043930E+01  0.7957747E-01            NaN
         13   -1    0    0    0    0  0.00000000000E+00  0.00000000000E+00  0.74505805969E-08  0.10566000000E+00  0.10566000000E+00 0.  1.
     999900   -1    0    0    0    0 -0.00000000000E+00 -0.00000000000E+00 -0.74505805969E-08  0.93827000000E+00  0.93827000000E+00 0.  1.
     999902    2    1    2    0    0 -0.41294053299E-02 -0.12783064560E-01  0.78651494429E-02  0.10283633914E+01  0.10282455667E+01 0.  0.
     999903    2    3    3    0    0  0.36687291894E-01  0.33963105388E-02  0.12693753270E+00  0.13925934382E+00  0.43846725315E-01 0.  0.
         14    1    1    2    0    0  0.41294053299E-02  0.12783064560E-01 -0.78651494429E-02  0.15566608612E-01  0.00000000000E+00 0. -1.
     999901    1    3    3    0    0 -0.40816697224E-01 -0.16179375098E-01 -0.11907238326E+00  0.88910404757E+00  0.88000000000E+00 0.  1.
        -11    1    4    4    0    0  0.44478754168E-01  0.71858675847E-02  0.82698412834E-01  0.94176880770E-01  0.51100000000E-03 0. -1.
         11    1    4    4    0    0 -0.77914622737E-02 -0.37895570459E-02  0.44239119866E-01  0.45082463048E-01  0.51100000000E-03 0.  1.
</event>
<event>
 8    1  0.2846344E+004  0.1043930E+01  0.7957747E-01            NaN
         13   -1    0    0    0    0  0.00000000000E+00  0.00000000000E+00  0.74505805969E-08  0.10566000000E+00  0.10566000000E+00 0. -1.
     999900   -1    0    0    0    0 -0.00000000000E+00 -0.00000000000E+00 -0.74505805969E-08  0.93827000000E+00  0.93827000000E+00 0. -1.
     999902    2    1    2    0    0 -0.91903463643E-02 -0.13530296577E-01  0.57873799102E-02  0.10265799234E+01  0.10264332974E+01 0.  0.
     999903    2    3    3    0    0  0.35470275201E-01 -0.11410763308E+00  0.53079796862E-01  0.13846566024E+00  0.45569527980E-01 0.  0.
         14    1    1    2    0    0  0.91903463643E-02  0.13530296577E-01 -0.57873799102E-02  0.17350076599E-01  0.00000000000E+00 0. -1.
     999901    1    3    3    0    0 -0.44660621565E-01  0.10057733650E+00 -0.47292416952E-01  0.88811426317E+00  0.88000000000E+00 0. -1.
        -11    1    4    4    0    0  0.44957715846E-02 -0.13138247222E-01 -0.84221727562E-02  0.16248680474E-01  0.51100000000E-03 0.  1.
         11    1    4    4    0    0  0.30974503616E-01 -0.10096938586E+00  0.61501969618E-01  0.12221697976E+00  0.51100000000E-03 0. -1.
</event>
<event>
 8    1  0.2846344E+004  0.1043930E+01  0.7957747E-01            NaN
         13   -1    0    0    0    0  0.00000000000E+00  0.00000000000E+00  0.74505805969E-08  0.10566000000E+00  0.10566000000E+00 0.  1.
     999900   -1    0    0    0    0 -0.00000000000E+00 -0.00000000000E+00 -0.74505805969E-08  0.93827000000E+00  0.93827000000E+00 0. -1.
     999902    2    1    2    0    0 -0.14353651606E-01  0.56663660481E-02 -0.21786315547E-02  0.10283453456E+01  0.10282272454E+01 0.  0.
     999903    2    3    3    0    0  0.46756462551E-01 -0.74434883836E-01 -0.96053574536E-01  0.13763598712E+00  0.44616779892E-01 0.  0.
         14    1    1    2    0    0  0.14353651606E-01 -0.56663660481E-02  0.21786315547E-02  0.15584654442E-01  0.00000000000E+00 0.  1.
     999901    1    3    3    0    0 -0.61110114157E-01  0.80101249885E-01  0.93874942981E-01  0.89070935844E+00  0.88000000000E+00 0.  1.
        -11    1    4    4    0    0  0.35540945960E-01 -0.78407726773E-01 -0.88860241487E-01  0.12372281154E+00  0.51100000000E-03 0.  1.
         11    1    4    4    0    0  0.11215516591E-01  0.39728429369E-02 -0.71933330492E-02  0.13913175581E-01  0.51100000000E-03 0. -1.
</event>
<event>
 8    1  0.2846344E+004  0.1043930E+01  0.7957747E-01            NaN
         13   -1    0    0    0    0  0.00000000000E+00  0.00000000000E+00  0.74505805969E-08  0.10566000000E+00  0.10566000000E+00 0. -1.
     999900   -1    0    0    0    0 -0.00000000000E+00 -0.00000000000E+00 -0.74505805969E-08  0.93827000000E+00  0.93827000000E+00 0. -1.
     999902    2    1    2    0    0 -0.25792545345E-02 -0.10126341234E-01 -0.10545307534E-01  0.10290841638E+01  0.10289770733E+01 0.  0.
     999903    2    3    3    0    0 -0.21519499153E-01  0.12340687086E+00 -0.37631749092E-01  0.13839705439E+00  0.45224456943E-01 0.  0.
         14    1    1    2    0    0  0.25792545345E-02  0.10126341234E-01  0.10545307534E-01  0.14845836175E-01  0.00000000000E+00 0. -1.
     999901    1    3    3    0    0  0.18940244618E-01 -0.13353321209E+00  0.27086441559E-01  0.89068710944E+00  0.88000000000E+00 0.  1.
        -11    1    4    4    0    0  0.53480316567E-02  0.88507825368E-01 -0.19651177595E-01  0.90822169628E-01  0.51100000000E-03 0. -1.
         11    1    4    4    0    0 -0.26867530810E-01  0.34899045488E-01 -0.17980571497E-01  0.47574884762E-01  0.51100000000E-03 0.  1.
</event>
<event>
 8    1  0.2846344E+004  0.1043930E+01  0.7957747E-01            NaN
         13   -1    0    0    0    0  0.00000000000E+00  0.00000000000E+00  0.74505805969E-08  0.10566000000E+00  0.10566000000E+00 0. -1.
     999900   -1    0    0    0    0 -0.00000000000E+00 -0.00000000000E+00 -0.74505805969E-08  0.93827000000E+00  0.93827000000E+00 0. -1.
     999902    2    1    2    0    0 -0.66471997980E-02 -0.40717556000E-02 -0.73423952934E-02  0.10332213480E+01  0.10331658525E+01 0.  0.
     999903    2    3    3    0    0  0.26457786682E-01 -0.13096480861E+00 -0.24938670617E-01  0.14332954788E+00  0.45493147098E-01 0.  0.
         14    1    1    2    0    0  0.66471997980E-02  0.40717556000E-02  0.73423952934E-02  0.10708651991E-01  0.00000000000E+00 0. -1.
     999901    1    3    3    0    0 -0.33104986480E-01  0.12689305301E+00  0.17596275323E-01  0.88989180013E+00  0.88000000000E+00 0.  1.
        -11    1    4    4    0    0  0.38229171664E-01 -0.82177329546E-01 -0.11432484091E-01  0.91353959251E-01  0.51100000000E-03 0. -1.
         11    1    4    4    0    0 -0.11771384982E-01 -0.48787479064E-01 -0.13506186526E-01  0.51975588629E-01  0.51100000000E-03 0.  1.
</event>
<event>
 8    1  0.2846344E+004  0.1043930E+01  0.7957747E-01            NaN
         13   -1    0    0    0    0  0.00000000000E+00  0.00000000000E+00  0.74505805969E-08  0.10566000000E+00  0.10566000000E+00 0. -1.
     999900   -1    0    0    0    0 -0.00000000000E+00 -0.00000000000E+00 -0.74505805969E-08  0.93827000000E+00  0.93827000000E+00 0. -1.
     999902    2    1    2    0    0  0.74847804426E-02 -0.17452326279E-02 -0.11709842374E-01  0.10299232808E+01  0.10298280323E+01 0.  0.
     999903    2    3    3    0    0  0.12314629685E+00 -0.21422125847E-01 -0.46788493896E-01  0.14144408670E+00  0.46833199735E-01 0.  0.
         14    1    1    2    0    0 -0.74847804426E-02  0.17452326279E-02  0.11709842374E-01  0.14006719231E-01  0.00000000000E+00 0. -1.
     999901    1    3    3    0    0 -0.11566151641E+00  0.19676893219E-01  0.35078651523E-01  0.88847919407E+00  0.88000000000E+00 0.  1.
        -11    1    4    4    0    0  0.98552207321E-01 -0.17435709958E-02 -0.48581990121E-01  0.10989107558E+00  0.51100000000E-03 0. -1.
         11    1    4    4    0    0  0.24594089527E-01 -0.19678554851E-01  0.17934962249E-02  0.31553011115E-01  0.51100000000E-03 0.  1.
</event>
<event>
 8    1  0.2846344E+004  0.1043930E+01  0.7957747E-01            NaN
         13   -1    0    0    0    0  0.00000000000E+00  0.00000000000E+00  0.74505805969E-08  0.10566000000E+00  0.10566000000E+00 0. -1.
     999900   -1    0    0    0    0 -0.00000000000E+00 -0.00000000000E+00 -0.74505805969E-08  0.93827000000E+00  0.93827000000E+00 0. -1.
     999902    2    1    2    0    0 -0.14285181108E-01 -0.23753882422E-02 -0.18072694989E-02  0.10293363339E+01  0.10292328760E+01 0.  0.
     999903    2    3    3    0    0  0.93644935387E-01 -0.68075121780E-01  0.60207298931E-01  0.13815107156E+00  0.45356406373E-01 0.  0.
         14    1    1    2    0    0  0.14285181108E-01  0.23753882422E-02  0.18072694989E-02  0.14593666148E-01  0.00000000000E+00 0.  1.
     999901    1    3    3    0    0 -0.10793011649E+00  0.65699733538E-01 -0.62014568430E-01  0.89118526229E+00  0.88000000000E+00 0. -1.
        -11    1    4    4    0    0  0.34633252746E-01 -0.53195400419E-01  0.30303472769E-01  0.70340418000E-01  0.51100000000E-03 0. -1.
         11    1    4    4    0    0  0.59011682640E-01 -0.14879721361E-01  0.29903826162E-01  0.67810653558E-01  0.51100000000E-03 0.  1.
</event>
<event>
 8    1  0.2846344E+004  0.1043930E+01  0.7957747E-01            NaN
         13   -1    0    0    0    0  0.00000000000E+00  0.00000000000E+00  0.74505805969E-08  0.10566000000E+00  0.10566000000E+00 0.  1.
     999900   -1    0    0    0    0 -0.00000000000E+00 -0.00000000000E+00 -0.74505805969E-08  0.93827000000E+00  0.93827000000E+00 0.  1.
     999902    2    1    2    0    0  0.12991120431E-01  0.30310697273E-02 -0.39461723460E-02  0.10300185346E+01  0.10299245859E+01 0.  0.
     999903    2    3    3    0    0 -0.11171605406E+00  0.51679967653E-01 -0.45181494833E-01  0.13894112692E+00  0.45956212675E-01 0.  0.
         14    1    1    2    0    0 -0.12991120431E-01 -0.30310697273E-02  0.39461723460E-02  0.13911465413E-01  0.00000000000E+00 0.  1.
     999901    1    3    3    0    0  0.12470717449E+00 -0.48648897926E-01  0.41235322487E-01  0.89107740767E+00  0.88000000000E+00 0.  1.
        -11    1    4    4    0    0 -0.61047810147E-01  0.60623660820E-02 -0.33064220666E-01  0.69692834751E-01  0.51100000000E-03 0.  1.
         11    1    4    4    0    0 -0.50668243909E-01  0.45617601571E-01 -0.12117274166E-01  0.69248292167E-01  0.51100000000E-03 0. -1.
</event>
<event>
 8    1  0.2846344E+004  0.1043930E+01  0.7957747E-01            NaN
         13   -1    0    0    0    0  0.00000000000E+00  0.00000000000E+00  0.74505805969E-08  0.10566000000E+00  0.10566000000E+00 0.  1.
     999900   -1    0    0    0    0 -0.00000000000E+00 -0.00000000000E+00 -0.74505805969E-08  0.93827000000E+00  0.93827000000E+00 0.  1.
     999902    2    1    2    0    0  0.13337977650E-01 -0.43036655970E-02  0.33315564973E-02  0.10295243603E+01  0.10294235698E+01 0.  0.
     999903    2    3    3    0    0 -0.10752229333E+00 -0.67724449868E-01 -0.33166805402E-01  0.13825474266E+00  0.43205233632E-01 0.  0.
         14    1    1    2    0    0 -0.13337977650E-01  0.43036655970E-02 -0.33315564973E-02  0.14405639662E-01  0.00000000000E+00 0.  1.
     999901    1    3    3    0    0  0.12086027098E+00  0.63420784271E-01  0.36498361899E-01  0.89126961768E+00  0.88000000000E+00 0.  1.
        -11    1    4    4    0    0 -0.53949463385E-01 -0.57101859013E-01 -0.27972980574E-01  0.83390141296E-01  0.51100000000E-03 0. -1.
         11    1    4    4    0    0 -0.53572829949E-01 -0.10622590855E-01 -0.51938248280E-02  0.54864601361E-01  0.51100000000E-03 0.  1.
</event>
<event>
 8    1  0.2846344E+004  0.1043930E+01  0.7957747E-01            NaN
         13   -1    0    0    0    0  0.00000000000E+00  0.00000000000E+00  0.74505805969E-08  0.10566000000E+00  0.10566000000E+00 0. -1.
     999900   -1    0    0    0    0 -0.00000000000E+00 -0.00000000000E+00 -0.74505805969E-08  0.93827000000E+00  0.93827000000E+00 0.  1.
     999902    2    1    2    0    0  0.17133076841E-02 -0.13339756769E-01 -0.44886161813E-02  0.10297514172E+01  0.10296538006E+01 0.  0.
     999903    2    3    3    0    0 -0.48694223485E-01  0.13923330615E-01  0.12149335631E+00  0.13893401029E+00  0.44463884786E-01 0.  0.
         14    1    1    2    0    0 -0.17133076841E-02  0.13339756769E-01  0.44886161813E-02  0.14178582761E-01  0.00000000000E+00 0.  1.
     999901    1    3    3    0    0  0.50407531169E-01 -0.27263087384E-01 -0.12598197249E+00  0.89081740695E+00  0.88000000000E+00 0.  1.
        -11    1    4    4    0    0 -0.14145460336E-01  0.20654057614E-01  0.83348335702E-01  0.87028100803E-01  0.51100000000E-03 0. -1.
         11    1    4    4    0    0 -0.34548763149E-01 -0.67307269998E-02  0.38145020612E-01  0.51905909486E-01  0.51100000000E-03 0.  1.
</event>
<event>
 8    1  0.2846344E+004  0.1043930E+01  0.7957747E-01            NaN
         13   -1    0    0    0    0  0.00000000000E+00  0.00000000000E+00  0.74505805969E-08  0.10566000000E+00  0.10566000000E+00 0.  1.
     999900   -1    0    0    0    0 -0.00000000000E+00 -0.00000000000E+00 -0.74505805969E-08  0.93827000000E+00  0.93827000000E+00 0. -1.
     999902    2    1    2    0    0 -0.91212483099E-02  0.89008748877E-02  0.62764038117E-02  0.10297238045E+01  0.10296258047E+01 0.  0.
     999903    2    3    3    0    0  0.24254530677E-01  0.64011057782E-01  0.11463000196E+00  0.14074035300E+00  0.44520914599E-01 0.  0.
         14    1    1    2    0    0  0.91212483099E-02 -0.89008748877E-02 -0.62764038117E-02  0.14206195455E-01  0.00000000000E+00 0.  1.
     999901    1    3    3    0    0 -0.33375778986E-01 -0.55110182894E-01 -0.10835359815E+00  0.88898345154E+00  0.88000000000E+00 0. -1.
        -11    1    4    4    0    0 -0.13890851389E-02  0.53283906413E-01  0.67344636877E-01  0.85887516423E-01  0.51100000000E-03 0.  1.
         11    1    4    4    0    0  0.25643615815E-01  0.10727151369E-01  0.47285365087E-01  0.54852836581E-01  0.51100000000E-03 0. -1.
</event>
<event>
 8    1  0.2846344E+004  0.1043930E+01  0.7957747E-01            NaN
         13   -1    0    0    0    0  0.00000000000E+00  0.00000000000E+00  0.74505805969E-08  0.10566000000E+00  0.10566000000E+00 0.  1.
     999900   -1    0    0    0    0 -0.00000000000E+00 -0.00000000000E+00 -0.74505805969E-08  0.93827000000E+00  0.93827000000E+00 0.  1.
     999902    2    1    2    0    0  0.36799374706E-02  0.16728080105E-01  0.24559041383E-02  0.10266267613E+01  0.10264809326E+01 0.  0.
     999903    2    3    3    0    0 -0.60193167507E-01  0.76063028349E-01  0.87461461245E-01  0.13824263586E+00  0.45306925195E-01 0.  0.
         14    1    1    2    0    0 -0.36799374706E-02 -0.16728080105E-01 -0.24559041383E-02  0.17303238683E-01  0.00000000000E+00 0.  1.
     999901    1    3    3    0    0  0.63873104978E-01 -0.59334948244E-01 -0.85005557107E-01  0.88838412546E+00  0.88000000000E+00 0.  1.
        -11    1    4    4    0    0 -0.30287948550E-01  0.69328483826E-01  0.54610005764E-01  0.93307622130E-01  0.51100000000E-03 0.  1.
         11    1    4    4    0    0 -0.29905218957E-01  0.67345445224E-02  0.32851455481E-01  0.44935013731E-01  0.51100000000E-03 0. -1.
</event>
<event>
 8    1  0.2846344E+004  0.1043930E+01  0.7957747E-01            NaN
         13   -1    0    0    0    0  0.00000000000E+00  0.00000000000E+00  0.74505805969E-08  0.10566000000E+00  0.10566000000E+00 0.  1.
     999900   -1    0    0    0    0 -0.00000000000E+00 -0.00000000000E+00 -0.74505805969E-08  0.93827000000E+00  0.93827000000E+00 0.  1.
     999902    2    1    2    0    0  0.54504502306E-02  0.12284946945E-01 -0.14478987490E-02  0.10304124655E+01  0.10303237963E+01 0.  0.
     999903    2    3    3    0    0 -0.10004421561E+00  0.82294767214E-01 -0.32954481154E-01  0.14079279156E+00  0.44219210075E-01 0.  0.
         14    1    1    2    0    0 -0.54504502306E-02 -0.12284946945E-01  0.14478987490E-02  0.13517534536E-01  0.00000000000E+00 0. -1.
     999901    1    3    3    0    0  0.10549466584E+00 -0.70009820270E-01  0.31506582405E-01  0.88961967390E+00  0.88000000000E+00 0. -1.
        -11    1    4    4    0    0 -0.22210125670E-01  0.45329584042E-01 -0.16155670330E-01  0.53003091198E-01  0.51100000000E-03 0.  1.
         11    1    4    4    0    0 -0.77834089943E-01  0.36965183172E-01 -0.16798810824E-01  0.87789700366E-01  0.51100000000E-03 0. -1.
</event>
<event>
 8    1  0.2846344E+004  0.1043930E+01  0.7957747E-01            NaN
         13   -1    0    0    0    0  0.00000000000E+00  0.00000000000E+00  0.74505805969E-08  0.10566000000E+00  0.10566000000E+00 0. -1.
     999900   -1    0    0    0    0 -0.00000000000E+00 -0.00000000000E+00 -0.74505805969E-08  0.93827000000E+00  0.93827000000E+00 0. -1.
     999902    2    1    2    0    0  0.89078083856E-02  0.40756828034E-03  0.11378716759E-01  0.10294735012E+01  0.10293719927E+01 0.  0.
     999903    2    3    3    0    0 -0.88953191970E-01  0.69361900308E-01 -0.65715460824E-01  0.13802805279E+00  0.44827201445E-01 0.  0.
         14    1    1    2    0    0 -0.89078083856E-02 -0.40756828034E-03 -0.11378716759E-01  0.14456498789E-01  0.00000000000E+00 0.  1.
     999901    1    3    3    0    0  0.97861000356E-01 -0.68954332028E-01  0.77094177583E-01  0.89144544842E+00  0.88000000000E+00 0.  1.
        -11    1    4    4    0    0 -0.51226934696E-01  0.17319233983E-01 -0.14914304072E-01  0.56096811773E-01  0.51100000000E-03 0.  1.
         11    1    4    4    0    0 -0.37726257274E-01  0.52042666325E-01 -0.50801156751E-01  0.81931241016E-01  0.51100000000E-03 0. -1.
</event>
<event>
 8    1  0.2846344E+004  0.1043930E+01  0.7957747E-01            NaN
         13   -1    0    0    0    0  0.00000000000E+00  0.00000000000E+00  0.74505805969E-08  0.10566000000E+00  0.10566000000E+00 0.  1.
     999900   -1    0    0    0    0 -0.00000000000E+00 -0.00000000000E+00 -0.74505805969E-08  0.93827000000E+00  0.93827000000E+00 0. -1.
     999902    2    1    2    0    0  0.92778524309E-02  0.23117436343E-02  0.11681670058E-01  0.10288341688E+01  0.10287234141E+01 0.  0.
     999903    2    3    3    0    0 -0.12834747293E+00  0.12748095174E-01  0.20789916487E-01  0.13802969655E+00  0.44546478692E-01 0.  0.
         14    1    1    2    0    0 -0.92778524309E-02 -0.23117436343E-02 -0.11681670058E-01  0.15095831203E-01  0.00000000000E+00 0. -1.
     999901    1    3    3    0    0  0.13762532537E+00 -0.10436351539E-01 -0.91082464291E-02  0.89080447224E+00  0.88000000000E+00 0.  1.
        -11    1    4    4    0    0 -0.47816563327E-01 -0.53348154441E-02  0.27149884898E-01  0.55247274641E-01  0.51100000000E-03 0.  1.
         11    1    4    4    0    0 -0.80530909608E-01  0.18082910618E-01 -0.63599684104E-02  0.82782421913E-01  0.51100000000E-03 0. -1.
</event>
<event>
 8    1  0.2846344E+004  0.1043930E+01  0.7957747E-01            NaN
         13   -1    0    0    0    0  0.00000000000E+00  0.00000000000E+00  0.74505805969E-08  0.10566000000E+00  0.10566000000E+00 0.  1.
     999900   -1    0    0    0    0 -0.00000000000E+00 -0.00000000000E+00 -0.74505805969E-08  0.93827000000E+00  0.93827000000E+00 0.  1.
     999902    2    1    2    0    0 -0.12494638870E-01  0.14244093317E-01  0.49111265845E-02  0.10243563095E+01  0.10241692826E+01 0.  0.
     999903    2    3    3    0    0  0.80558554454E-01  0.91563370311E-01 -0.36742536707E-01  0.13510258023E+00  0.45046217403E-01 0.  0.
         14    1    1    2    0    0  0.12494638870E-01 -0.14244093317E-01 -0.49111265845E-02  0.19573690486E-01  0.00000000000E+00 0.  1.
     999901    1    3    3    0    0 -0.93053193324E-01 -0.77319276993E-01  0.41653663291E-01  0.88925372929E+00  0.88000000000E+00 0. -1.
        -11    1    4    4    0    0  0.25119269900E-01  0.61585004717E-01 -0.24598448310E-01  0.70915691539E-01  0.51100000000E-03 0.  1.
         11    1    4    4    0    0  0.55439284554E-01  0.29978365594E-01 -0.12144088396E-01  0.64186888689E-01  0.51100000000E-03 0. -1.
</event>
<event>
 8    1  0.2846344E+004  0.1043930E+01  0.7957747E-01            NaN
         13   -1    0    0    0    0  0.00000000000E+00  0.00000000000E+00  0.74505805969E-08  0.10566000000E+00  0.10566000000E+00 0. -1.
     999900   -1    0    0    0    0 -0.00000000000E+00 -0.00000000000E+00 -0.74505805969E-08  0.93827000000E+00  0.93827000000E+00 0.  1.
     999902    2    1    2    0    0  0.71653188011E-02  0.17023330476E-02 -0.11610556167E-01  0.10301806456E+01  0.10300888883E+01 0.  0.
     999903    2    3    3    0    0 -0.12900970274E+00  0.26533070094E-01 -0.10168125818E-01  0.13935951734E+00  0.44386676821E-01 0.  0.
         14    1    1    2    0    0 -0.71653188011E-02 -0.17023330476E-02  0.11610556167E-01  0.13749354378E-01  0.00000000000E+00 0. -1.
     999901    1    3    3    0    0  0.13617502154E+00 -0.24830737047E-01 -0.14424303483E-02  0.89082112829E+00  0.88000000000E+00 0. -1.
        -11    1    4    4    0    0 -0.93055387636E-01  0.38589089789E-01 -0.11606275744E-01  0.10140704993E+00  0.51100000000E-03 0.  1.
         11    1    4    4    0    0 -0.35954315107E-01 -0.12056019695E-01  0.14381499258E-02  0.37952467402E-01  0.51100000000E-03 0. -1.
</event>
<event>
 8    1  0.2846344E+004  0.1043930E+01  0.7957747E-01            NaN
         13   -1    0    0    0    0  0.00000000000E+00  0.00000000000E+00  0.74505805969E-08  0.10566000000E+00  0.10566000000E+00 0. -1.
     999900   -1    0    0    0    0 -0.00000000000E+00 -0.00000000000E+00 -0.74505805969E-08  0.93827000000E+00  0.93827000000E+00 0.  1.
     999902    2    1    2    0    0  0.90993797477E-02 -0.56389928893E-02  0.44249382649E-02  0.10323465190E+01  0.10322815306E+01 0.  0.
     999903    2    3    3    0    0  0.18135888942E-01  0.59962008146E-01 -0.11926583410E+00  0.14123229684E+00  0.42401292419E-01 0.  0.
         14    1    1    2    0    0 -0.90993797477E-02  0.56389928893E-02 -0.44249382649E-02  0.11583480964E-01  0.00000000000E+00 0.  1.
     999901    1    3    3    0    0 -0.90365091948E-02 -0.65601001035E-01  0.12369077236E+00  0.89111422220E+00  0.88000000000E+00 0. -1.
        -11    1    4    4    0    0 -0.28429970775E-02  0.16717752070E-01 -0.71435297038E-01  0.73422262635E-01  0.51100000000E-03 0. -1.
         11    1    4    4    0    0  0.20978886020E-01  0.43244256076E-01 -0.47830537059E-01  0.67810034203E-01  0.51100000000E-03 0.  1.
</event>
<event>
 8    1  0.2846344E+004  0.1043930E+01  0.7957747E-01            NaN
         13   -1    0    0    0    0  0.00000000000E+00  0.00000000000E+00  0.74505805969E-08  0.10566000000E+00  0.10566000000E+00 0.  1.
     999900   -1    0    0    0    0 -0.00000000000E+00 -0.00000000000E+00 -0.74505805969E-08  0.93827000000E+00  0.93827000000E+00 0.  1.
     999902    2    1    2    0    0  0.21075832459E-02 -0.47187606469E-02  0.12929443908E-01  0.10300059514E+01  0.10299118316E+01 0.  0.
     999903    2    3    3    0    0 -0.10275696617E+00  0.80756621104E-01  0.18987019062E-01  0.13964686160E+00  0.45388468930E-01 0.  0.
         14    1    1    2    0    0 -0.21075832459E-02  0.47187606469E-02 -0.12929443908E-01  0.13924048583E-01  0.00000000000E+00 0. -1.
     999901    1    3    3    0    0  0.10486454942E+00 -0.85475381751E-01 -0.60575751549E-02  0.89035908982E+00  0.88000000000E+00 0. -1.
        -11    1    4    4    0    0 -0.61676336291E-01  0.73644838832E-01  0.19150684128E-01  0.97951735913E-01  0.51100000000E-03 0. -1.
         11    1    4    4    0    0 -0.41080629880E-01  0.71117822727E-02 -0.16366506588E-03  0.41695125683E-01  0.51100000000E-03 0.  1.
</event>
<event>
 8    1  0.2846344E+004  0.1043930E+01  0.7957747E-01            NaN
         13   -1    0    0    0    0  0.00000000000E+00  0.00000000000E+00  0.74505805969E-08  0.10566000000E+00  0.10566000000E+00 0.  1.
     999900   -1    0    0    0    0 -0.00000000000E+00 -0.00000000000E+00 -0.74505805969E-08  0.93827000000E+00  0.93827000000E+00 0.  1.
     999902    2    1    2    0    0  0.12265992085E-01 -0.41679552404E-02 -0.30256364414E-02  0.10306265836E+01  0.10305407192E+01 0.  0.
     999903    2    3    3    0    0 -0.29015694962E-01  0.74751755202E-01 -0.10512717017E+00  0.14025743453E+00  0.46804813558E-01 0.  0.
         14    1    1    2    0    0 -0.12265992085E-01  0.41679552404E-02  0.30256364414E-02  0.13303416425E-01  0.00000000000E+00 0.  1.
     999901    1    3    3    0    0  0.41281687047E-01 -0.78919710442E-01  0.10210153373E+00  0.89036914905E+00  0.88000000000E+00 0. -1.
        -11    1    4    4    0    0 -0.60928114283E-02  0.38922837151E-01 -0.18033605494E-01  0.43331070274E-01  0.51100000000E-03 0. -1.
         11    1    4    4    0    0 -0.22922883534E-01  0.35828918050E-01 -0.87093564679E-01  0.96926364255E-01  0.51100000000E-03 0.  1.
</event>
<event>
 8    1  0.2846344E+004  0.1043930E+01  0.7957747E-01            NaN
         13   -1    0    0    0    0  0.00000000000E+00  0.00000000000E+00  0.74505805969E-08  0.10566000000E+00  0.10566000000E+00 0.  1.
     999900   -1    0    0    0    0 -0.00000000000E+00 -0.00000000000E+00 -0.74505805969E-08  0.93827000000E+00  0.93827000000E+00 0.  1.
     999902    2    1    2    0    0  0.81911070189E-03  0.65131330049E-02  0.12588610025E-01  0.10297326430E+01  0.10296347659E+01 0.  0.
     999903    2    3    3    0    0  0.13183985840E+00  0.14629234377E-01 -0.39509073495E-02  0.13984171536E+00  0.44094590666E-01 0.  0.
         14    1    1    2    0    0 -0.81911070189E-03 -0.65131330049E-02 -0.12588610025E-01  0.14197357016E-01  0.00000000000E+00 0. -1.
     999901    1    3    3    0    0 -0.13102074770E+00 -0.81161013721E-02  0.16539517375E-01  0.88989092762E+00  0.88000000000E+00 0. -1.
        -11    1    4    4    0    0  0.10059619959E+00  0.20842094812E-01 -0.19213394683E-01  0.10451508955E+00  0.51100000000E-03 0. -1.
         11    1    4    4    0    0  0.31243658810E-01 -0.62128604349E-02  0.15262487334E-01  0.35326625812E-01  0.51100000000E-03 0.  1.
</event>
<event>
 8    1  0.2846344E+004  0.1043930E+01  0.7957747E-01            NaN
         13   -1    0    0    0    0  0.00000000000E+00  0.00000000000E+00  0.74505805969E-08  0.10566000000E+00  0.10566000000E+00 0. -1.
     999900   -1    0    0    0    0 -0.00000000000E+00 -0.00000000000E+00 -0.74505805969E-08  0.93827000000E+00  0.93827000000E+00 0.  1.
     999902    2    1    2    0    0  0.80343649659E-03 -0.14082842299E-01 -0.33573619301E-02  0.10294302125E+01  0.10293280909E+01 0.  0.
     999903    2    3    3    0    0 -0.90401575336E-01  0.61568985569E-01 -0.75393531886E-01  0.13857064839E+00  0.39426579084E-01 0.  0.
         14    1    1    2    0    0 -0.80343649659E-03  0.14082842299E-01  0.33573619301E-02  0.14499787465E-01  0.00000000000E+00 0.  1.
     999901    1    3    3    0    0  0.91205011833E-01 -0.75651827867E-01  0.72036169956E-01  0.89085956414E+00  0.88000000000E+00 0. -1.
        -11    1    4    4    0    0 -0.97195786941E-03  0.15430516800E-01 -0.12631727784E-01  0.19971660387E-01  0.51100000000E-03 0.  1.
         11    1    4    4    0    0 -0.89429617467E-01  0.46138468769E-01 -0.62761804102E-01  0.11859898800E+00  0.51100000000E-03 0. -1.
</event>
<event>
 8    1  0.2846344E+004  0.1043930E+01  0.7957747E-01            NaN
         13   -1    0    0    0    0  0.00000000000E+00  0.00000000000E+00  0.74505805969E-08  0.10566000000E+00  0.10566000000E+00 0.  1.
     999900   -1    0    0    0    0 -0.00000000000E+00 -0.00000000000E+00 -0.74505805969E-08  0.93827000000E+00  0.93827000000E+00 0. -1.
     999902    2    1    2    0    0  0.24582559813E-02  0.12062207180E-02 -0.12326833401E-01  0.10313026958E+01  0.10312253883E+01 0.  0.
     999903    2    3    3    0    0  0.91113354768E-01  0.21423402913E-01  0.93565611257E-01  0.14030231930E+00  0.46579089539E-01 0.  0.
         14    1    1    2    0    0 -0.24582559813E-02 -0.12062207180E-02  0.12326833401E-01  0.12627304249E-01  0.00000000000E+00 0.  1.
     999901    1    3    3    0    0 -0.88655098787E-01 -0.20217182195E-01 -0.10589244466E+00  0.89100037645E+00  0.88000000000E+00 0. -1.
        -11    1    4    4    0    0  0.74038656998E-01 -0.27049209340E-02  0.74822747241E-01  0.10529835684E+00  0.51100000000E-03 0.  1.
         11    1    4    4    0    0  0.17074697770E-01  0.24128323847E-01  0.18742864016E-01  0.35003962463E-01  0.51100000000E-03 0. -1.
</event>
<event>
 8    1  0.2846344E+004  0.1043930E+01  0.7957747E-01            NaN
         13   -1    0    0    0    0  0.00000000000E+00  0.00000000000E+00  0.74505805969E-08  0.10566000000E+00  0.10566000000E+00 0.  1.
     999900   -1    0    0    0    0 -0.00000000000E+00 -0.00000000000E+00 -0.74505805969E-08  0.93827000000E+00  0.93827000000E+00 0. -1.
     999902    2    1    2    0    0 -0.70737462978E-02  0.47523755494E-02  0.10686213684E-01  0.10302618574E+01  0.10301711880E+01 0.  0.
     999903    2    3    3    0    0  0.70421801314E-01 -0.10552008515E+00  0.37137587073E-01  0.13960746276E+00  0.44914639179E-01 0.  0.
         14    1    1    2    0    0  0.70737462978E-02 -0.47523755494E-02 -0.10686213684E-01  0.13668142630E-01  0.00000000000E+00 0.  1.
     999901    1    3    3    0    0 -0.77495547612E-01  0.11027246070E+00 -0.26451373389E-01  0.89065439461E+00  0.88000000000E+00 0.  1.
        -11    1    4    4    0    0  0.38714197263E-01 -0.41551887055E-01  0.37770939906E-01  0.68207429287E-01  0.51100000000E-03 0. -1.
         11    1    4    4    0    0  0.31707604051E-01 -0.63968198100E-01 -0.63335283280E-03  0.71400033470E-01  0.51100000000E-03 0.  1.
</event>
<event>
 8    1  0.2846344E+004  0.1043930E+01  0.7957747E-01            NaN
         13   -1    0    0    0    0  0.00000000000E+00  0.00000000000E+00  0.74505805969E-08  0.10566000000E+00  0.10566000000E+00 0. -1.
     999900   -1    0    0    0    0 -0.00000000000E+00 -0.00000000000E+00 -0.74505805969E-08  0.93827000000E+00  0.93827000000E+00 0.  1.
     999902    2    1    2    0    0 -0.13927746783E-01 -0.13050809197E-02  0.24585323875E-02  0.10297268402E+01  0.10296288825E+01 0.  0.
     999903    2    3    3    0    0 -0.12307049729E+00  0.49977270929E-01 -0.18490131765E-01  0.14125575675E+00  0.44353454558E-01 0.  0.
         14    1    1    2    0    0  0.13927746783E-01  0.13050809197E-02 -0.24585323875E-02  0.14203159795E-01  0.00000000000E+00 0. -1.
     999901    1    3    3    0    0  0.10914275050E+00 -0.51282351849E-01  0.20948664152E-01  0.88847108345E+00  0.88000000000E+00 0. -1.
        -11    1    4    4    0    0 -0.34509952978E-01  0.26640111146E-01 -0.23508290656E-01  0.49533152807E-01  0.51100000000E-03 0.  1.
         11    1    4    4    0    0 -0.88560544310E-01  0.23337159783E-01  0.50181588911E-02  0.91722603947E-01  0.51100000000E-03 0. -1.
</event>
<event>
 8    1  0.2846344E+004  0.1043930E+01  0.7957747E-01            NaN
         13   -1    0    0    0    0  0.00000000000E+00  0.00000000000E+00  0.74505805969E-08  0.10566000000E+00  0.10566000000E+00 0.  1.
     999900   -1    0    0    0    0 -0.00000000000E+00 -0.00000000000E+00 -0.74505805969E-08  0.93827000000E+00  0.93827000000E+00 0. -1.
     999902    2    1    2    0    0 -0.27978614775E-02 -0.63480225946E-03 -0.13643373283E-01  0.10299882412E+01  0.10298938802E+01 0.  0.
     999903    2    3    3    0    0 -0.10003061703E+00  0.48021781495E-01  0.71239793753E-01  0.13924314642E+00  0.44736224372E-01 0.  0.
         14    1    1    2    0    0  0.27978614775E-02  0.63480225946E-03  0.13643373283E-01  0.13941758759E-01  0.00000000000E+00 0.  1.
     999901    1    3    3    0    0  0.97232755551E-01 -0.48656583754E-01 -0.84883167036E-01  0.89074509482E+00  0.88000000000E+00 0. -1.
        -11    1    4    4    0    0 -0.42652222984E-01  0.60189373872E-02  0.74577143665E-02  0.43718627121E-01  0.51100000000E-03 0. -1.
         11    1    4    4    0    0 -0.57378394044E-01  0.42002844107E-01  0.63782079387E-01  0.95524519303E-01  0.51100000000E-03 0.  1.
</event>
<event>
 8    1  0.2846344E+004  0.1043930E+01  0.7957747E-01            NaN
         13   -1    0    0    0    0  0.00000000000E+00  0.00000000000E+00  0.74505805969E-08  0.10566000000E+00  0.10566000000E+00 0. -1.
     999900   -1    0    0    0    0 -0.00000000000E+00 -0.00000000000E+00 -0.74505805969E-08  0.93827000000E+00  0.93827000000E+00 0.  1.
     999902    2    1    2    0    0  0.36512541219E-02  0.11098846277E-01 -0.81989734592E-02  0.10296562755E+01  0.10295573352E+01 0.  0.
     999903    2    3    3    0    0 -0.33583338651E-01  0.11863373730E+00  0.48941657449E-01  0.14049081318E+00  0.46266386197E-01 0.  0.
         14    1    1    2    0    0 -0.36512541219E-02 -0.11098846277E-01  0.81989734592E-02  0.14273724501E-01  0.00000000000E+00 0. -1.
     999901    1    3    3    0    0  0.37234592773E-01 -0.10753489103E+00 -0.57140630909E-01  0.88916546232E+00  0.88000000000E+00 0.  1.
        -11    1    4    4    0    0  0.12941314996E-02  0.19648052855E-01 -0.77965088519E-02  0.21184131528E-01  0.51100000000E-03 0. -1.
         11    1    4    4    0    0 -0.34877470151E-01  0.98985684448E-01  0.56738166301E-01  0.11930668165E+00  0.51100000000E-03 0.  1.
</event>
<event>
 8    1  0.2846344E+004  0.1043930E+01  0.7957747E-01            NaN
         13   -1    0    0    0    0  0.00000000000E+00  0.00000000000E+00  0.74505805969E-08  0.10566000000E+00  0.10566000000E+00 0.  1.
     999900   -1    0    0    0    0 -0.00000000000E+00 -0.00000000000E+00 -0.74505805969E-08  0.93827000000E+00  0.93827000000E+00 0. -1.
     999902    2    1    2    0    0 -0.11309918155E-01 -0.85231901084E-02  0.28325134110E-02  0.10294876266E+01  0.10293863177E+01 0.  0.
     999903    2    3    3    0    0  0.56230214926E-01  0.62453095341E-01 -0.99905442506E-01  0.13810982212E+00  0.45066609974E-01 0.  0.
         14    1    1    2    0    0  0.11309918155E-01  0.85231901084E-02 -0.28325134110E-02  0.14442373438E-01  0.00000000000E+00 0. -1.
     999901    1    3    3    0    0 -0.67540133081E-01 -0.70976285449E-01  0.10273795592E+00  0.89137780445E+00  0.88000000000E+00 0.  1.
        -11    1    4    4    0    0  0.20365843791E-01  0.48949778887E-01 -0.76911194677E-01  0.93415423962E-01  0.51100000000E-03 0. -1.
         11    1    4    4    0    0  0.35864371135E-01  0.13503316454E-01 -0.22994247828E-01  0.44694398154E-01  0.51100000000E-03 0.  1.
</event>
<event>
 8    1  0.2846344E+004  0.1043930E+01  0.7957747E-01            NaN
         13   -1    0    0    0    0  0.00000000000E+00  0.00000000000E+00  0.74505805969E-08  0.10566000000E+00  0.10566000000E+00 0. -1.
     999900   -1    0    0    0    0 -0.00000000000E+00 -0.00000000000E+00 -0.74505805969E-08  0.93827000000E+00  0.93827000000E+00 0.  1.
     999902    2    1    2    0    0  0.21476610074E-02 -0.14005572281E-01 -0.10128358283E-02  0.10297245666E+01  0.10296265773E+01 0.  0.
     999903    2    3    3    0    0  0.41564170220E-01  0.81671998853E-02  0.12487588072E+00  0.13961599904E+00  0.45873284176E-01 0.  0.
         14    1    1    2    0    0 -0.21476610074E-02  0.14005572281E-01  0.10128358283E-02  0.14205433438E-01  0.00000000000E+00 0. -1.
     999901    1    3    3    0    0 -0.39416509213E-01 -0.22172772167E-01 -0.12588871655E+00  0.89010856752E+00  0.88000000000E+00 0.  1.
        -11    1    4    4    0    0  0.26882194594E-01  0.11248629474E-01  0.24358365358E-01  0.37983879938E-01  0.51100000000E-03 0. -1.
         11    1    4    4    0    0  0.14681975626E-01 -0.30814295887E-02  0.10051751537E+00  0.10163211910E+00  0.51100000000E-03 0.  1.
</event>
<event>
 8    1  0.2846344E+004  0.1043930E+01  0.7957747E-01            NaN
         13   -1    0    0    0    0  0.00000000000E+00  0.00000000000E+00  0.74505805969E-08  0.10566000000E+00  0.10566000000E+00 0. -1.
     999900   -1    0    0    0    0 -0.00000000000E+00 -0.00000000000E+00 -0.74505805969E-08  0.93827000000E+00  0.93827000000E+00 0. -1.
     999902    2    1    2    0    0  0.11681620996E-02  0.12226001421E-01  0.18273075172E-02  0.10315131257E+01  0.10314383888E+01 0.  0.
     999903    2    3    3    0    0 -0.73601945730E-01  0.36115114610E-01 -0.10626329693E+00  0.14143176007E+00  0.44603885079E-01 0.  0.
         14    1    1    2    0    0 -0.11681620996E-02 -0.12226001421E-01 -0.18273075172E-02  0.12416874253E-01  0.00000000000E+00 0. -1.
     999901    1    3    3    0    0  0.74770107829E-01 -0.23889113189E-01  0.10809060445E+00  0.89008136568E+00  0.88000000000E+00 0.  1.
        -11    1    4    4    0    0 -0.30855005481E-01  0.20102884782E-01 -0.81642675950E-01  0.89565311349E-01  0.51100000000E-03 0.  1.
         11    1    4    4    0    0 -0.42746940248E-01  0.16012229828E-01 -0.24620620980E-01  0.51866448723E-01  0.51100000000E-03 0. -1.
</event>
<event>
 8    1  0.2846344E+004  0.1043930E+01  0.7957747E-01            NaN
         13   -1    0    0    0    0  0.00000000000E+00  0.00000000000E+00  0.74505805969E-08  0.10566000000E+00  0.10566000000E+00 0.  1.
     999900   -1    0    0    0    0 -0.00000000000E+00 -0.00000000000E+00 -0.74505805969E-08  0.93827000000E+00  0.93827000000E+00 0.  1.
     999902    2    1    2    0    0 -0.78659821290E-02 -0.23839778662E-02  0.10551046513E-01  0.10305553371E+01  0.10304685445E+01 0.  0.
     999903    2    3    3    0    0  0.79072268653E-01 -0.24744306137E-03 -0.10484344764E+00  0.13877133101E+00  0.44864784626E-01 0.  0.
         14    1    1    2    0    0  0.78659821290E-02  0.23839778662E-02 -0.10551046513E-01  0.13374662906E-01  0.00000000000E+00 0. -1.
     999901    1    3    3    0    0 -0.86938250782E-01 -0.21365348048E-02  0.11539449415E+00  0.89178400609E+00  0.88000000000E+00 0. -1.
        -11    1    4    4    0    0  0.18825041274E-01  0.14835170261E-01 -0.11340590868E-01  0.26520455838E-01  0.51100000000E-03 0. -1.
         11    1    4    4    0    0  0.60247227379E-01 -0.15082613322E-01 -0.93502856769E-01  0.11225087517E+00  0.51100000000E-03 0.  1.
</event>
<event>
 8    1  0.2846344E+004  0.1043930E+01  0.7957747E-01            NaN
         13   -1    0    0    0    0  0.00000000000E+00  0.00000000000E+00  0.74505805969E-08  0.10566000000E+00  0.10566000000E+00 0.  1.
     999900   -1    0    0    0    0 -0.00000000000E+00 -0.00000000000E+00 -0.74505805969E-08  0.93827000000E+00  0.93827000000E+00 0.  1.
     999902    2    1    2    0    0 -0.12846392678E-01 -0.50210422571E-02  0.45611734454E-03  0.10301296843E+01  0.10300372410E+01 0.  0.
     999903    2    3    3    0    0  0.54945525970E-01 -0.30978527246E-01  0.11594369627E+00  0.13962032661E+00  0.45521587457E-01 0.  0.
         14    1    1    2    0    0  0.12846392678E-01  0.50210422571E-02 -0.45611734454E-03  0.13800315693E-01  0.00000000000E+00 0.  1.
     999901    1    3    3    0    0 -0.67791918648E-01  0.25957484989E-01 -0.11548757892E+00  0.89050935770E+00  0.88000000000E+00 0.  1.
        -11    1    4    4    0    0  0.43740448093E-01 -0.22957050534E-01  0.43338276786E-01  0.65716971357E-01  0.51100000000E-03 0.  1.
         11    1    4    4    0    0  0.11205077877E-01 -0.80214767125E-02  0.72605419480E-01  0.73903355253E-01  0.51100000000E-03 0. -1.
</event>
<event>
 8    1  0.2846344E+004  0.1043930E+01  0.7957747E-01            NaN
         13   -1    0    0    0    0  0.00000000000E+00  0.00000000000E+00  0.74505805969E-08  0.10566000000E+00  0.10566000000E+00 0.  1.
     999900   -1    0    0    0    0 -0.00000000000E+00 -0.00000000000E+00 -0.74505805969E-08  0.93827000000E+00  0.93827000000E+00 0.  1.
     999902    2    1    2    0    0 -0.10095752981E-01 -0.85385163456E-02  0.73433497126E-02  0.10288053422E+01  0.10286941610E+01 0.  0.
     999903    2    3    3    0    0 -0.11654728752E-01 -0.88109629400E-01  0.98556598700E-01  0.14051831128E+00  0.46182823256E-01 0.  0.
         14    1    1    2    0    0  0.10095752981E-01  0.85385163456E-02 -0.73433497126E-02  0.15124657836E-01  0.00000000000E+00 0. -1.
     999901    1    3    3    0    0  0.15589757709E-02  0.79571113054E-01 -0.91213248987E-01  0.88828703088E+00  0.88000000000E+00 0. -1.
        -11    1    4    4    0    0  0.12089113445E-01 -0.36417842018E-01  0.19287830580E-01  0.42949824337E-01  0.51100000000E-03 0.  1.
         11    1    4    4    0    0 -0.23743842197E-01 -0.51691787382E-01  0.79268768120E-01  0.97568486948E-01  0.51100000000E-03 0. -1.
</event>
<event>
 8    1  0.2846344E+004  0.1043930E+01  0.7957747E-01            NaN
         13   -1    0    0    0    0  0.00000000000E+00  0.00000000000E+00  0.74505805969E-08  0.10566000000E+00  0.10566000000E+00 0. -1.
     999900   -1    0    0    0    0 -0.00000000000E+00 -0.00000000000E+00 -0.74505805969E-08  0.93827000000E+00  0.93827000000E+00 0. -1.
     999902    2    1    2    0    0  0.39036383072E-02 -0.12793929858E-01 -0.11541967726E-02  0.10305040846E+01  0.10304166212E+01 0.  0.
     999903    2    3    3    0    0 -0.93489015377E-01 -0.22913465974E-02  0.93932822326E-01  0.13997773778E+00  0.44999396635E-01 0.  0.
         14    1    1    2    0    0 -0.39036383072E-02  0.12793929858E-01  0.11541967726E-02  0.13425915366E-01  0.00000000000E+00 0.  1.
     999901    1    3    3    0    0  0.97392653684E-01 -0.10502583260E-01 -0.95087019098E-01  0.89052634686E+00  0.88000000000E+00 0. -1.
        -11    1    4    4    0    0 -0.40327492257E-01 -0.20679059838E-01  0.56389911851E-01  0.72346481788E-01  0.51100000000E-03 0.  1.
         11    1    4    4    0    0 -0.53161523120E-01  0.18387713240E-01  0.37542910474E-01  0.67631255988E-01  0.51100000000E-03 0. -1.
</event>
<event>
 8    1  0.2846344E+004  0.1043930E+01  0.7957747E-01            NaN
         13   -1    0    0    0    0  0.00000000000E+00  0.00000000000E+00  0.74505805969E-08  0.10566000000E+00  0.10566000000E+00 0.  1.
     999900   -1    0    0    0    0 -0.00000000000E+00 -0.00000000000E+00 -0.74505805969E-08  0.93827000000E+00  0.93827000000E+00 0.  1.
     999902    2    1    2    0    0  0.71762540482E-02  0.26984883152E-02  0.10769591175E-01  0.10307101454E+01  0.10306253632E+01 0.  0.
     999903    2    3    3    0    0  0.65365814231E-01  0.56681633204E-01  0.10391234585E+00  0.14224192561E+00  0.44153058412E-01 0.  0.
         14    1    1    2    0    0 -0.71762540482E-02 -0.26984883152E-02 -0.10769591175E-01  0.13219854591E-01  0.00000000000E+00 0. -1.
     999901    1    3    3    0    0 -0.58189560183E-01 -0.53983144889E-01 -0.93142754679E-01  0.88846821980E+00  0.88000000000E+00 0.  1.
        -11    1    4    4    0    0  0.13089989247E-01  0.33969141734E-01  0.60434007868E-01  0.70553389972E-01  0.51100000000E-03 0.  1.
         11    1    4    4    0    0  0.52275824985E-01  0.22712491471E-01  0.43478337985E-01  0.71688535636E-01  0.51100000000E-03 0. -1.
</event>
<event>
 8    1  0.2846344E+004  0.1043930E+01  0.7957747E-01            NaN
         13   -1    0    0    0    0  0.00000000000E+00  0.00000000000E+00  0.74505805969E-08  0.10566000000E+00  0.10566000000E+00 0. -1.
     999900   -1    0    0    0    0 -0.00000000000E+00 -0.00000000000E+00 -0.74505805969E-08  0.93827000000E+00  0.93827000000E+00 0.  1.
     999902    2    1    2    0    0  0.11026846415E-01  0.33768836649E-02  0.82851655478E-02  0.10297300474E+01  0.10296321343E+01 0.  0.
     999903    2    3    3    0    0 -0.80770311241E-03  0.37814145711E-01 -0.12577916202E+00  0.13883205915E+00  0.44982008048E-01 0.  0.
         14    1    1    2    0    0 -0.11026846415E-01 -0.33768836649E-02 -0.82851655478E-02  0.14199952581E-01  0.00000000000E+00 0.  1.
     999901    1    3    3    0    0  0.11834549528E-01 -0.34437262046E-01  0.13406432757E+00  0.89089798827E+00  0.88000000000E+00 0. -1.
        -11    1    4    4    0    0  0.10693516640E-01 -0.43069458901E-03 -0.66472109363E-01  0.67330076787E-01  0.51100000000E-03 0. -1.
         11    1    4    4    0    0 -0.11501219753E-01  0.38244840300E-01 -0.59307052658E-01  0.71501982360E-01  0.51100000000E-03 0.  1.
</event>
<event>
 8    1  0.2846344E+004  0.1043930E+01  0.7957747E-01            NaN
         13   -1    0    0    0    0  0.00000000000E+00  0.00000000000E+00  0.74505805969E-08  0.10566000000E+00  0.10566000000E+00 0. -1.
     999900   -1    0    0    0    0 -0.00000000000E+00 -0.00000000000E+00 -0.74505805969E-08  0.93827000000E+00  0.93827000000E+00 0.  1.
     999902    2    1    2    0    0  0.12865875285E-01 -0.76102043463E-03  0.30480890302E-02  0.10306861053E+01  0.10306010125E+01 0.  0.
     999903    2    3    3    0    0  0.76682287375E-01 -0.11030553334E+00 -0.19198517402E-01  0.14132259909E+00  0.39446293375E-01 0.  0.
         14    1    1    2    0    0 -0.12865875285E-01  0.76102043463E-03 -0.30480890302E-02  0.13243894658E-01  0.00000000000E+00 0. -1.
     999901    1    3    3    0    0 -0.63816412090E-01  0.10954451290E+00  0.22246606432E-01  0.88936350625E+00  0.88000000000E+00 0. -1.
        -11    1    4    4    0    0  0.55084201952E-01 -0.44868348655E-01 -0.11708511412E-01  0.72005474627E-01  0.51100000000E-03 0.  1.
         11    1    4    4    0    0  0.21598085423E-01 -0.65437184681E-01 -0.74900059896E-02  0.69317124461E-01  0.51100000000E-03 0. -1.
</event>
<event>
 8    1  0.2846344E+004  0.1043930E+01  0.7957747E-01            NaN
         13   -1    0    0    0    0  0.00000000000E+00  0.00000000000E+00  0.74505805969E-08  0.10566000000E+00  0.10566000000E+00 0. -1.
     999900   -1    0    0    0    0 -0.00000000000E+00 -0.00000000000E+00 -0.74505805969E-08  0.93827000000E+00  0.93827000000E+00 0. -1.
     999902    2    1    2    0    0  0.18621180656E-02 -0.10618816658E-01  0.62648695961E-02  0.10314610248E+01  0.10313856555E+01 0.  0.
     999903    2    3    3    0    0 -0.40885857375E-01 -0.10871882561E+00 -0.65151838886E-01  0.14210656938E+00  0.49579013455E-01 0.  0.
         14    1    1    2    0    0 -0.18621180656E-02  0.10618816658E-01 -0.62648695961E-02  0.12468975177E-01  0.00000000000E+00 0. -1.
     999901    1    3    3    0    0  0.42747975440E-01  0.98100008956E-01  0.71416708482E-01  0.88935445544E+00  0.88000000000E+00 0.  1.
        -11    1    4    4    0    0 -0.12732411160E-01 -0.86774697084E-01 -0.31918439616E-01  0.93332793039E-01  0.51100000000E-03 0. -1.
         11    1    4    4    0    0 -0.28153446215E-01 -0.21944128530E-01 -0.33233399270E-01  0.48773776343E-01  0.51100000000E-03 0.  1.
</event>
<event>
 8    1  0.2846344E+004  0.1043930E+01  0.7957747E-01            NaN
         13   -1    0    0    0    0  0.00000000000E+00  0.00000000000E+00  0.74505805969E-08  0.10566000000E+00  0.10566000000E+00 0.  1.
     999900   -1    0    0    0    0 -0.00000000000E+00 -0.00000000000E+00 -0.74505805969E-08  0.93827000000E+00  0.93827000000E+00 0.  1.
     999902    2    1    2    0    0  0.54944014295E-02  0.80009717009E-02 -0.96092186317E-02  0.10302719958E+01  0.10301814618E+01 0.  0.
     999903    2    3    3    0    0  0.86018219015E-01 -0.93033617323E-01 -0.39794169151E-01  0.14032637692E+00  0.45315871460E-01 0.  0.
         14    1    1    2    0    0 -0.54944014295E-02 -0.80009717009E-02  0.96092186317E-02  0.13658004171E-01  0.00000000000E+00 0.  1.
     999901    1    3    3    0    0 -0.80523817586E-01  0.10103458902E+00  0.30184950519E-01  0.88994561891E+00  0.88000000000E+00 0.  1.
        -11    1    4    4    0    0  0.67037102576E-01 -0.65878248361E-01 -0.48917331669E-01  0.10595793122E+00  0.51100000000E-03 0. -1.
         11    1    4    4    0    0  0.18981116439E-01 -0.27155368962E-01  0.91231625183E-02  0.34368445703E-01  0.51100000000E-03 0.  1.
</event>
<event>
 8    1  0.2846344E+004  0.1043930E+01  0.7957747E-01            NaN
         13   -1    0    0    0    0  0.00000000000E+00  0.00000000000E+00  0.74505805969E-08  0.10566000000E+00  0.10566000000E+00 0. -1.
     999900   -1    0    0    0    0 -0.00000000000E+00 -0.00000000000E+00 -0.74505805969E-08  0.93827000000E+00  0.93827000000E+00 0.  1.
     999902    2    1    2    0    0 -0.51981388560E-02 -0.98374714895E-02  0.86015169374E-02  0.10298664803E+01  0.10297704524E+01 0.  0.
     999903    2    3    3    0    0 -0.91942310701E-01 -0.90642064306E-01  0.36295402017E-01  0.14148543320E+00  0.45071047036E-01 0.  0.
         14    1    1    2    0    0  0.51981388560E-02  0.98374714895E-02 -0.86015169374E-02  0.14063519705E-01  0.00000000000E+00 0. -1.
     999901    1    3    3    0    0  0.86744171845E-01  0.80804592817E-01 -0.27693885080E-01  0.88838104710E+00  0.88000000000E+00 0.  1.
        -11    1    4    4    0    0 -0.57884655114E-01 -0.32394265693E-01  0.32589804020E-01  0.73907903464E-01  0.51100000000E-03 0. -1.
         11    1    4    4    0    0 -0.34057655588E-01 -0.58247798614E-01  0.37055979975E-02  0.67577529734E-01  0.51100000000E-03 0.  1.
</event>
<event>
 8    1  0.2846344E+004  0.1043930E+01  0.7957747E-01            NaN
         13   -1    0    0    0    0  0.00000000000E+00  0.00000000000E+00  0.74505805969E-08  0.10566000000E+00  0.10566000000E+00 0.  1.
     999900   -1    0    0    0    0 -0.00000000000E+00 -0.00000000000E+00 -0.74505805969E-08  0.93827000000E+00  0.93827000000E+00 0. -1.
     999902    2    1    2    0    0 -0.12895821631E-01  0.42351698265E-02  0.34929993495E-02  0.10299142973E+01  0.10298189257E+01 0.  0.
     999903    2    3    3    0    0 -0.11857160306E+00 -0.34684739652E-01 -0.50890467458E-01  0.14107252754E+00  0.45269881044E-01 0.  0.
         14    1    1    2    0    0  0.12895821631E-01 -0.42351698265E-02 -0.34929993495E-02  0.14015702746E-01  0.00000000000E+00 0. -1.
     999901    1    3    3    0    0  0.10567578143E+00  0.38919909479E-01  0.54383466807E-01  0.88884176972E+00  0.88000000000E+00 0. -1.
        -11    1    4    4    0    0 -0.70485364674E-01  0.20867060151E-02 -0.21127863815E-01  0.73615139241E-01  0.51100000000E-03 0.  1.
         11    1    4    4    0    0 -0.48086238388E-01 -0.36771445667E-01 -0.29762603643E-01  0.67457388294E-01  0.51100000000E-03 0. -1.
</event>
<event>
 8    1  0.2846344E+004  0.1043930E+01  0.7957747E-01            NaN
         13   -1    0    0    0    0  0.00000000000E+00  0.00000000000E+00  0.74505805969E-08  0.10566000000E+00  0.10566000000E+00 0.  1.
     999900   -1    0    0    0    0 -0.00000000000E+00 -0.00000000000E+00 -0.74505805969E-08  0.93827000000E+00  0.93827000000E+00 0. -1.
     999902    2    1    2    0    0  0.90533385477E-02  0.45275027330E-02 -0.75814703496E-02  0.10312832647E+01  0.10312057177E+01 0.  0.
     999903    2    3    3    0    0  0.85163119757E-01  0.30401241561E-01  0.98859514509E-01  0.14123167500E+00  0.44678741691E-01 0.  0.
         14    1    1    2    0    0 -0.90533385477E-02 -0.45275027330E-02  0.75814703496E-02  0.12646735251E-01  0.00000000000E+00 0.  1.
     999901    1    3    3    0    0 -0.76109781210E-01 -0.25873738828E-01 -0.10644098486E+00  0.89005158975E+00  0.88000000000E+00 0. -1.
        -11    1    4    4    0    0  0.28599846162E-01  0.31871684725E-01  0.30956080525E-01  0.52842175676E-01  0.51100000000E-03 0. -1.
         11    1    4    4    0    0  0.56563273595E-01 -0.14704431643E-02  0.67903433984E-01  0.88389499324E-01  0.51100000000E-03 0.  1.
</event>
<event>
 8    1  0.2846344E+004  0.1043930E+01  0.7957747E-01            NaN
         13   -1    0    0    0    0  0.00000000000E+00  0.00000000000E+00  0.74505805969E-08  0.10566000000E+00  0.10566000000E+00 0.  1.
     999900   -1    0    0    0    0 -0.00000000000E+00 -0.00000000000E+00 -0.74505805969E-08  0.93827000000E+00  0.93827000000E+00 0.  1.
     999902    2    1    2    0    0  0.23711847600E-02 -0.33404857246E-02  0.13455601357E-01  0.10298646323E+01  0.10297685789E+01 0.  0.
     999903    2    3    3    0    0  0.50335208159E-02 -0.13244722511E+00 -0.20252008727E-02  0.14030558788E+00  0.45977742208E-01 0.  0.
         14    1    1    2    0    0 -0.23711847600E-02  0.33404857246E-02 -0.13455601357E-01  0.14065367750E-01  0.00000000000E+00 0. -1.
     999901    1    3    3    0    0 -0.26623360559E-02  0.12910673939E+00  0.15480802230E-01  0.88955904437E+00  0.88000000000E+00 0.  1.
        -11    1    4    4    0    0  0.76380459658E-02 -0.41684050481E-01 -0.21372680854E-01  0.47465275924E-01  0.51100000000E-03 0. -1.
         11    1    4    4    0    0 -0.26045251499E-02 -0.90763174633E-01  0.19347479982E-01  0.92840311952E-01  0.51100000000E-03 0.  1.
</event>
<event>
 8    1  0.2846344E+004  0.1043930E+01  0.7957747E-01            NaN
         13   -1    0    0    0    0  0.00000000000E+00  0.00000000000E+00  0.74505805969E-08  0.10566000000E+00  0.10566000000E+00 0.  1.
     999900   -1    0    0    0    0 -0.00000000000E+00 -0.00000000000E+00 -0.74505805969E-08  0.93827000000E+00  0.93827000000E+00 0. -1.
     999902    2    1    2    0    0  0.72313599295E-02 -0.35018765628E-02 -0.11757568484E-01  0.10296893496E+01  0.10295908705E+01 0.  0.
     999903    2    3    3    0    0 -0.45136528195E-01 -0.37239154494E-01  0.11702271176E+00  0.13813735441E+00  0.44311993980E-01 0.  0.
         14    1    1    2    0    0 -0.72313599295E-02  0.35018765628E-02  0.11757568484E-01  0.14240650356E-01  0.00000000000E+00 0.  1.
     999901    1    3    3    0    0  0.52367888125E-01  0.33737277931E-01 -0.12878028024E+00  0.89155199524E+00  0.88000000000E+00 0. -1.
        -11    1    4    4    0    0 -0.29418383530E-01  0.88966509111E-03  0.31063520431E-01  0.42795282638E-01  0.51100000000E-03 0. -1.
         11    1    4    4    0    0 -0.15718144666E-01 -0.38128819585E-01  0.85959191329E-01  0.95342071771E-01  0.51100000000E-03 0.  1.
</event>
<event>
 8    1  0.2846344E+004  0.1043930E+01  0.7957747E-01            NaN
         13   -1    0    0    0    0  0.00000000000E+00  0.00000000000E+00  0.74505805969E-08  0.10566000000E+00  0.10566000000E+00 0. -1.
     999900   -1    0    0    0    0 -0.00000000000E+00 -0.00000000000E+00 -0.74505805969E-08  0.93827000000E+00  0.93827000000E+00 0. -1.
     999902    2    1    2    0    0  0.67559340905E-02 -0.40569772841E-02  0.12083863243E-01  0.10295035846E+01  0.10294025011E+01 0.  0.
     999903    2    3    3    0    0 -0.55765761244E-01 -0.76022716973E-01 -0.91298007913E-01  0.13833814466E+00  0.43736053734E-01 0.  0.
         14    1    1    2    0    0 -0.67559340905E-02  0.40569772841E-02 -0.12083863243E-01  0.14426415390E-01  0.00000000000E+00 0.  1.
     999901    1    3    3    0    0  0.62521695335E-01  0.71965739689E-01  0.10338187116E+00  0.89116543995E+00  0.88000000000E+00 0.  1.
        -11    1    4    4    0    0 -0.25831960091E-01 -0.47929832929E-01 -0.78113038726E-01  0.95217997179E-01  0.51100000000E-03 0. -1.
         11    1    4    4    0    0 -0.29933801153E-01 -0.28092884044E-01 -0.13184969187E-01  0.43120147482E-01  0.51100000000E-03 0.  1.
</event>
<event>
 8    1  0.2846344E+004  0.1043930E+01  0.7957747E-01            NaN
         13   -1    0    0    0    0  0.00000000000E+00  0.00000000000E+00  0.74505805969E-08  0.10566000000E+00  0.10566000000E+00 0.  1.
     999900   -1    0    0    0    0 -0.00000000000E+00 -0.00000000000E+00 -0.74505805969E-08  0.93827000000E+00  0.93827000000E+00 0.  1.
     999902    2    1    2    0    0  0.11570314692E-01  0.56701420713E-02  0.17366185785E-02  0.10309285179E+01  0.10308465310E+01 0.  0.
     999903    2    3    3    0    0  0.11647224474E+00  0.69760675995E-01 -0.97904802115E-02  0.14230886613E+00  0.41516552947E-01 0.  0.
         14    1    1    2    0    0 -0.11570314692E-01 -0.56701420713E-02 -0.17366185785E-02  0.13001482118E-01  0.00000000000E+00 0. -1.
     999901    1    3    3    0    0 -0.10490193004E+00 -0.64090533923E-01  0.11527098790E-01  0.88861965175E+00  0.88000000000E+00 0. -1.
        -11    1    4    4    0    0  0.13186319521E-01  0.23263619814E-01  0.73775882978E-02  0.27744638391E-01  0.51100000000E-03 0. -1.
         11    1    4    4    0    0  0.10328592522E+00  0.46497056181E-01 -0.17168068509E-01  0.11456422774E+00  0.51100000000E-03 0.  1.
</event>
<event>
 8    1  0.2846344E+004  0.1043930E+01  0.7957747E-01            NaN
         13   -1    0    0    0    0  0.00000000000E+00  0.00000000000E+00  0.74505805969E-08  0.10566000000E+00  0.10566000000E+00 0. -1.
     999900   -1    0    0    0    0 -0.00000000000E+00 -0.00000000000E+00 -0.74505805969E-08  0.93827000000E+00  0.93827000000E+00 0.  1.
     999902    2    1    2    0    0  0.13127903343E-01 -0.17272128417E-02 -0.32624465513E-02  0.10302929670E+01  0.10302027127E+01 0.  0.
     999903    2    3    3    0    0 -0.18807899097E-01 -0.13144682531E+00  0.15898974294E-02  0.14019711907E+00  0.44952190934E-01 0.  0.
         14    1    1    2    0    0 -0.13127903343E-01  0.17272128417E-02  0.32624465513E-02  0.13637032957E-01  0.00000000000E+00 0.  1.
     999901    1    3    3    0    0  0.31935802439E-01  0.12971961247E+00 -0.48523439807E-02  0.89009584797E+00  0.88000000000E+00 0. -1.
        -11    1    4    4    0    0  0.98631694230E-02 -0.10357507830E-01  0.63739551034E-02  0.15666796232E-01  0.51100000000E-03 0. -1.
         11    1    4    4    0    0 -0.28671068520E-01 -0.12108931748E+00 -0.47840576740E-02  0.12453032284E+00  0.51100000000E-03 0.  1.
</event>
<event>
 8    1  0.2846344E+004  0.1043930E+01  0.7957747E-01            NaN
         13   -1    0    0    0    0  0.00000000000E+00  0.00000000000E+00  0.74505805969E-08  0.10566000000E+00  0.10566000000E+00 0. -1.
     999900   -1    0    0    0    0 -0.00000000000E+00 -0.00000000000E+00 -0.74505805969E-08  0.93827000000E+00  0.93827000000E+00 0.  1.
     999902    2    1    2    0    0  0.55893229318E-02  0.12148798625E-01 -0.29483224073E-02  0.10302359705E+01  0.10301449551E+01 0.  0.
     999903    2    3    3    0    0  0.70177011901E-02 -0.12560631433E+00 -0.37030259223E-01  0.13886618762E+00  0.45676948650E-01 0.  0.
         14    1    1    2    0    0 -0.55893229318E-02 -0.12148798625E-01  0.29483224073E-02  0.13694029498E-01  0.00000000000E+00 0. -1.
     999901    1    3    3    0    0 -0.14283782583E-02  0.13775511295E+00  0.34081936815E-01  0.89136978288E+00  0.88000000000E+00 0.  1.
        -11    1    4    4    0    0 -0.14679875730E-01 -0.80021986613E-01 -0.34333963333E-01  0.88306847142E-01  0.51100000000E-03 0. -1.
         11    1    4    4    0    0  0.21697576920E-01 -0.45584327717E-01 -0.26962958891E-02  0.50559340483E-01  0.51100000000E-03 0.  1.
</event>
<event>
 8    1  0.2846344E+004  0.1043930E+01  0.7957747E-01            NaN
         13   -1    0    0    0    0  0.00000000000E+00  0.00000000000E+00  0.74505805969E-08  0.10566000000E+00  0.10566000000E+00 0. -1.
     999900   -1    0    0    0    0 -0.00000000000E+00 -0.00000000000E+00 -0.74505805969E-08  0.93827000000E+00  0.93827000000E+00 0. -1.
     999902    2    1    2    0    0 -0.10600780801E-01 -0.19932513221E-02 -0.83386405776E-02  0.10302961256E+01  0.10302059133E+01 0.  0.
     999903    2    3    3    0    0  0.92088318171E-01 -0.93568498658E-01 -0.15614919967E-01  0.13957505747E+00  0.44744258371E-01 0.  0.
         14    1    1    2    0    0  0.10600780801E-01  0.19932513221E-02  0.83386405776E-02  0.13633874399E-01  0.00000000000E+00 0. -1.
     999901    1    3    3    0    0 -0.10268909897E+00  0.91575247336E-01  0.72762793896E-02  0.89072106813E+00  0.88000000000E+00 0.  1.
        -11    1    4    4    0    0  0.47605637628E-01 -0.35069290320E-01  0.13285192517E-01  0.60604532163E-01  0.51100000000E-03 0.  1.
         11    1    4    4    0    0  0.44482680543E-01 -0.58499208338E-01 -0.28900112484E-01  0.78970525306E-01  0.51100000000E-03 0. -1.
</event>
<event>
 8    1  0.2846344E+004  0.1043930E+01  0.7957747E-01            NaN
         13   -1    0    0    0    0  0.00000000000E+00  0.00000000000E+00  0.74505805969E-08  0.10566000000E+00  0.10566000000E+00 0. -1.
     999900   -1    0    0    0    0 -0.00000000000E+00 -0.00000000000E+00 -0.74505805969E-08  0.93827000000E+00  0.93827000000E+00 0. -1.
     999902    2    1    2    0    0 -0.76073018866E-02 -0.82857349061E-02  0.53463616054E-02  0.10314757627E+01  0.10314005725E+01 0.  0.
     999903    2    3    3    0    0 -0.12694265454E+00 -0.28348486057E-01  0.37095219579E-01  0.14262738958E+00  0.45259725349E-01 0.  0.
         14    1    1    2    0    0  0.76073018866E-02  0.82857349061E-02 -0.53463616054E-02  0.12454237325E-01  0.00000000000E+00 0.  1.
     999901    1    3    3    0    0  0.11933535265E+00  0.20062751151E-01 -0.31748857973E-01  0.88884837310E+00  0.88000000000E+00 0. -1.
        -11    1    4    4    0    0 -0.67149810986E-01 -0.36396965626E-01  0.29227535925E-01  0.81782309820E-01  0.51100000000E-03 0.  1.
         11    1    4    4    0    0 -0.59792843554E-01  0.80484795689E-02  0.78676836539E-02  0.60845079757E-01  0.51100000000E-03 0. -1.
</event>
<event>
 8    1  0.2846344E+004  0.1043930E+01  0.7957747E-01            NaN
         13   -1    0    0    0    0  0.00000000000E+00  0.00000000000E+00  0.74505805969E-08  0.10566000000E+00  0.10566000000E+00 0.  1.
     999900   -1    0    0    0    0 -0.00000000000E+00 -0.00000000000E+00 -0.74505805969E-08  0.93827000000E+00  0.93827000000E+00 0.  1.
     999902    2    1    2    0    0 -0.99672286104E-02  0.65430870421E-02 -0.12713271041E-02  0.10319394242E+01  0.10318697599E+01 0.  0.
     999903    2    3    3    0    0  0.10054952495E+00 -0.46697942387E-01 -0.73327172202E-01  0.14051326082E+00  0.45565310182E-01 0.  0.
         14    1    1    2    0    0  0.99672286104E-02 -0.65430870421E-02  0.12713271041E-02  0.11990575750E-01  0.00000000000E+00 0. -1.
     999901    1    3    3    0    0 -0.11051675356E+00  0.53241029429E-01  0.72055845098E-01  0.89142616343E+00  0.88000000000E+00 0.  1.
        -11    1    4    4    0    0  0.74978513749E-01 -0.11447116113E-01 -0.40569741267E-01  0.86017318133E-01  0.51100000000E-03 0. -1.
         11    1    4    4    0    0  0.25571011203E-01 -0.35250826274E-01 -0.32757430935E-01  0.54495942688E-01  0.51100000000E-03 0.  1.
</event>
<event>
 8    1  0.2846344E+004  0.1043930E+01  0.7957747E-01            NaN
         13   -1    0    0    0    0  0.00000000000E+00  0.00000000000E+00  0.74505805969E-08  0.10566000000E+00  0.10566000000E+00 0. -1.
     999900   -1    0    0    0    0 -0.00000000000E+00 -0.00000000000E+00 -0.74505805969E-08  0.93827000000E+00  0.93827000000E+00 0. -1.
     999902    2    1    2    0    0  0.56311477202E-02 -0.78191652562E-02  0.10153991368E-01  0.10299316890E+01  0.10298365556E+01 0.  0.
     999903    2    3    3    0    0  0.32783764916E-01  0.12432406666E+00  0.29629361024E-01  0.13943834912E+00  0.45098840087E-01 0.  0.
         14    1    1    2    0    0 -0.56311477202E-02  0.78191652562E-02 -0.10153991368E-01  0.13998310993E-01  0.00000000000E+00 0.  1.
     999901    1    3    3    0    0 -0.27152617196E-01 -0.13214323192E+00 -0.19475369656E-01  0.89049333989E+00  0.88000000000E+00 0. -1.
        -11    1    4    4    0    0  0.19356473450E-01  0.62767199070E-01  0.37988267109E-01  0.75879930828E-01  0.51100000000E-03 0.  1.
         11    1    4    4    0    0  0.13427291465E-01  0.61556867591E-01 -0.83589060853E-02  0.63558418291E-01  0.51100000000E-03 0. -1.
</event>
<event>
 8    1  0.2846344E+004  0.1043930E+01  0.7957747E-01            NaN
         13   -1    0    0    0    0  0.00000000000E+00  0.00000000000E+00  0.74505805969E-08  0.10566000000E+00  0.10566000000E+00 0. -1.
     999900   -1    0    0    0    0 -0.00000000000E+00 -0.00000000000E+00 -0.74505805969E-08  0.93827000000E+00  0.93827000000E+00 0.  1.
     999902    2    1    2    0    0 -0.69979310080E-02  0.11418127706E-01 -0.37753847062E-02  0.10300160427E+01  0.10299220601E+01 0.  0.
     999903    2    3    3    0    0 -0.80965649937E-01 -0.94209277581E-01 -0.45804674442E-01  0.13962577241E+00  0.44344826848E-01 0.  0.
         14    1    1    2    0    0  0.69979310080E-02 -0.11418127706E-01  0.37753847062E-02  0.13913957323E-01  0.00000000000E+00 0.  1.
     999901    1    3    3    0    0  0.73967718929E-01  0.10562740529E+00  0.42029289736E-01  0.89039027027E+00  0.88000000000E+00 0. -1.
        -11    1    4    4    0    0 -0.68425366371E-01 -0.47316792272E-01 -0.32250938657E-01  0.89226082281E-01  0.51100000000E-03 0.  1.
         11    1    4    4    0    0 -0.12540283567E-01 -0.46892485309E-01 -0.13553735785E-01  0.50399690129E-01  0.51100000000E-03 0. -1.
</event>
<event>
 8    1  0.2846344E+004  0.1043930E+01  0.7957747E-01            NaN
         13   -1    0    0    0    0  0.00000000000E+00  0.00000000000E+00  0.74505805969E-08  0.10566000000E+00  0.10566000000E+00 0.  1.
     999900   -1    0    0    0    0 -0.00000000000E+00 -0.00000000000E+00 -0.74505805969E-08  0.93827000000E+00  0.93827000000E+00 0. -1.
     999902    2    1    2    0    0 -0.10209803806E-01  0.80441304328E-02 -0.26027819634E-02  0.10306739598E+01  0.10305887098E+01 0.  0.
     999903    2    3    3    0    0 -0.11941263725E+00 -0.44285533917E-01 -0.41138830713E-01  0.14154591521E+00  0.46067952760E-01 0.  0.
         14    1    1    2    0    0  0.10209803806E-01 -0.80441304328E-02  0.26027819634E-02  0.13256040213E-01  0.00000000000E+00 0.  1.
     999901    1    3    3    0    0  0.10920283344E+00  0.52329664350E-01  0.38536048750E-01  0.88912804458E+00  0.88000000000E+00 0. -1.
        -11    1    4    4    0    0 -0.82413937259E-01 -0.49975701238E-01 -0.19606170940E-01  0.98357972878E-01  0.51100000000E-03 0. -1.
         11    1    4    4    0    0 -0.36998699987E-01  0.56901673206E-02 -0.21532659773E-01  0.43187942331E-01  0.51100000000E-03 0.  1.
</event>
<event>
 8    1  0.2846344E+004  0.1043930E+01  0.7957747E-01            NaN
         13   -1    0    0    0    0  0.00000000000E+00  0.00000000000E+00  0.74505805969E-08  0.10566000000E+00  0.10566000000E+00 0.  1.
     999900   -1    0    0    0    0 -0.00000000000E+00 -0.00000000000E+00 -0.74505805969E-08  0.93827000000E+00  0.93827000000E+00 0.  1.
     999902    2    1    2    0    0  0.39557420547E-03  0.13927872605E-01  0.16894776478E-02  0.10298944577E+01  0.10297988141E+01 0.  0.
     999903    2    3    3    0    0 -0.12145444078E+00  0.12573978112E-01 -0.51327560762E-01  0.13991689302E+00  0.45088051064E-01 0.  0.
         14    1    1    2    0    0 -0.39557420547E-03 -0.13927872605E-01 -0.16894776478E-02  0.14035542347E-01  0.00000000000E+00 0. -1.
     999901    1    3    3    0    0  0.12185001499E+00  0.13538944930E-02  0.53017038410E-01  0.88997756463E+00  0.88000000000E+00 0. -1.
        -11    1    4    4    0    0 -0.96653267366E-01  0.15607033242E-01 -0.58327378342E-01  0.11396393186E+00  0.51100000000E-03 0.  1.
         11    1    4    4    0    0 -0.24801173414E-01 -0.30330551305E-02  0.69998175796E-02  0.25952961166E-01  0.51100000000E-03 0. -1.
</event>
<event>
 8    1  0.2846344E+004  0.1043930E+01  0.7957747E-01            NaN
         13   -1    0    0    0    0  0.00000000000E+00  0.00000000000E+00  0.74505805969E-08  0.10566000000E+00  0.10566000000E+00 0. -1.
     999900   -1    0    0    0    0 -0.00000000000E+00 -0.00000000000E+00 -0.74505805969E-08  0.93827000000E+00  0.93827000000E+00 0. -1.
     999902    2    1    2    0    0 -0.22019009515E-03 -0.13660259168E-02  0.13892780287E-01  0.10299684867E+01  0.10298738562E+01 0.  0.
     999903    2    3    3    0    0  0.12578811290E+00  0.40351682749E-01  0.13164833038E-01  0.14001399932E+00  0.44493814490E-01 0.  0.
         14    1    1    2    0    0  0.22019009515E-03  0.13660259168E-02 -0.13892780287E-01  0.13961513335E-01  0.00000000000E+00 0.  1.
     999901    1    3    3    0    0 -0.12600830300E+00 -0.41717708666E-01  0.72794724997E-03  0.88995448735E+00  0.88000000000E+00 0. -1.
        -11    1    4    4    0    0  0.38502596980E-01 -0.80725462215E-02  0.73624011966E-02  0.40026017153E-01  0.51100000000E-03 0.  1.
         11    1    4    4    0    0  0.87285515923E-01  0.48424228971E-01  0.58024318409E-02  0.99987982166E-01  0.51100000000E-03 0. -1.
</event>
<event>
 8    1  0.2846344E+004  0.1043930E+01  0.7957747E-01            NaN
         13   -1    0    0    0    0  0.00000000000E+00  0.00000000000E+00  0.74505805969E-08  0.10566000000E+00  0.10566000000E+00 0.  1.
     999900   -1    0    0    0    0 -0.00000000000E+00 -0.00000000000E+00 -0.74505805969E-08  0.93827000000E+00  0.93827000000E+00 0.  1.
     999902    2    1    2    0    0 -0.38277932325E-02  0.79828065594E-02  0.11157834312E-01  0.10296865991E+01  0.10295880817E+01 0.  0.
     999903    2    3    3    0    0  0.11256032987E+00  0.75353534171E-01  0.52079182554E-02  0.13945044415E+00  0.32731040142E-01 0.  0.
         14    1    1    2    0    0  0.38277932325E-02 -0.79828065594E-02 -0.11157834312E-01  0.14243400863E-01  0.00000000000E+00 0. -1.
     999901    1    3    3    0    0 -0.11638812311E+00 -0.67370727612E-01  0.59499160568E-02  0.89023615498E+00  0.88000000000E+00 0. -1.
        -11    1    4    4    0    0  0.72365340473E-01  0.55029793484E-01  0.17886115300E-01  0.92656326897E-01  0.51100000000E-03 0.  1.
         11    1    4    4    0    0  0.40194989401E-01  0.20323740688E-01 -0.12678197045E-01  0.46794117256E-01  0.51100000000E-03 0. -1.
</event>
<event>
 8    1  0.2846344E+004  0.1043930E+01  0.7957747E-01            NaN
         13   -1    0    0    0    0  0.00000000000E+00  0.00000000000E+00  0.74505805969E-08  0.10566000000E+00  0.10566000000E+00 0.  1.
     999900   -1    0    0    0    0 -0.00000000000E+00 -0.00000000000E+00 -0.74505805969E-08  0.93827000000E+00  0.93827000000E+00 0.  1.
     999902    2    1    2    0    0 -0.24216489574E-02  0.78407028924E-03 -0.13242634280E-01  0.10304449523E+01  0.10303567116E+01 0.  0.
     999903    2    3    3    0    0 -0.11049523615E+00 -0.21394856033E-01  0.69339629159E-01  0.13971961005E+00  0.45239895930E-01 0.  0.
         14    1    1    2    0    0  0.24216489574E-02 -0.78407028924E-03  0.13242634280E-01  0.13485047741E-01  0.00000000000E+00 0.  1.
     999901    1    3    3    0    0  0.10807358719E+00  0.22178926322E-01 -0.82582263440E-01  0.89072534221E+00  0.88000000000E+00 0.  1.
        -11    1    4    4    0    0 -0.54886847402E-01 -0.18100209995E-01  0.59863637047E-01  0.83211175819E-01  0.51100000000E-03 0.  1.
         11    1    4    4    0    0 -0.55608388747E-01 -0.32946460378E-02  0.94759921120E-02  0.56508434230E-01  0.51100000000E-03 0. -1.
</event>
<event>
 8    1  0.2846344E+004  0.1043930E+01  0.7957747E-01            NaN
         13   -1    0    0    0    0  0.00000000000E+00  0.00000000000E+00  0.74505805969E-08  0.10566000000E+00  0.10566000000E+00 0. -1.
     999900   -1    0    0    0    0 -0.00000000000E+00 -0.00000000000E+00 -0.74505805969E-08  0.93827000000E+00  0.93827000000E+00 0.  1.
     999902    2    1    2    0    0  0.15878038682E-01 -0.64646759377E-02  0.13158865780E-01  0.10223184314E+01  0.10220899742E+01 0.  0.
     999903    2    3    3    0    0  0.57942094947E-01 -0.10488438952E+00  0.44435519282E-01  0.13528176144E+00  0.44369111693E-01 0.  0.
         14    1    1    2    0    0 -0.15878038682E-01  0.64646759377E-02 -0.13158865780E-01  0.21611568569E-01  0.00000000000E+00 0.  1.
     999901    1    3    3    0    0 -0.42064056265E-01  0.98419713586E-01 -0.31276653502E-01  0.88703666999E+00  0.88000000000E+00 0.  1.
        -11    1    4    4    0    0  0.60502345324E-01 -0.70378037967E-01  0.27794083684E-01  0.96883302104E-01  0.51100000000E-03 0. -1.
         11    1    4    4    0    0 -0.25602503775E-02 -0.34506351556E-01  0.16641435599E-01  0.38398459337E-01  0.51100000000E-03 0.  1.
</event>
<event>
 8    1  0.2846344E+004  0.1043930E+01  0.7957747E-01            NaN
         13   -1    0    0    0    0  0.00000000000E+00  0.00000000000E+00  0.74505805969E-08  0.10566000000E+00  0.10566000000E+00 0. -1.
     999900   -1    0    0    0    0 -0.00000000000E+00 -0.00000000000E+00 -0.74505805969E-08  0.93827000000E+00  0.93827000000E+00 0. -1.
     999902    2    1    2    0    0 -0.13718356280E-01  0.55306520624E-02 -0.22390290884E-01  0.10170951991E+01  0.10167411360E+01 0.  0.
     999903    2    3    3    0    0 -0.27254974517E-01  0.11490812850E+00  0.25128532763E-01  0.12894841455E+00  0.45271832571E-01 0.  0.
         14    1    1    2    0    0  0.13718356280E-01 -0.55306520624E-02  0.22390290884E-01  0.26834800859E-01  0.00000000000E+00 0. -1.
     999901    1    3    3    0    0  0.13536618238E-01 -0.10937747644E+00 -0.47518823647E-01  0.88814678459E+00  0.88000000000E+00 0. -1.
        -11    1    4    4    0    0 -0.19670284683E-01  0.24660685874E-01 -0.79407021928E-02  0.32532835714E-01  0.51100000000E-03 0.  1.
         11    1    4    4    0    0 -0.75846898345E-02  0.90247442624E-01  0.33069234955E-01  0.96415578833E-01  0.51100000000E-03 0. -1.
</event>
<event>
 8    1  0.2846344E+004  0.1043930E+01  0.7957747E-01            NaN
         13   -1    0    0    0    0  0.00000000000E+00  0.00000000000E+00  0.74505805969E-08  0.10566000000E+00  0.10566000000E+00 0.  1.
     999900   -1    0    0    0    0 -0.00000000000E+00 -0.00000000000E+00 -0.74505805969E-08  0.93827000000E+00  0.93827000000E+00 0. -1.
     999902    2    1    2    0    0  0.62314822853E-02 -0.96919027070E-02 -0.75149837956E-02  0.10301735713E+01  0.10300817189E+01 0.  0.
     999903    2    3    3    0    0 -0.59856558493E-01  0.16815001138E-01 -0.11755373974E+00  0.14046644369E+00  0.45237022637E-01 0.  0.
         14    1    1    2    0    0 -0.62314822853E-02  0.96919027070E-02  0.75149837956E-02  0.13756428715E-01  0.00000000000E+00 0.  1.
     999901    1    3    3    0    0  0.66088040778E-01 -0.26506903845E-01  0.11003875595E+00  0.88970712760E+00  0.88000000000E+00 0.  1.
        -11    1    4    4    0    0 -0.59361253171E-01  0.12826545033E-01 -0.69726720889E-01  0.92468131605E-01  0.51100000000E-03 0.  1.
         11    1    4    4    0    0 -0.49530532200E-03  0.39884561049E-02 -0.47827018853E-01  0.47998312083E-01  0.51100000000E-03 0. -1.
</event>
<event>
 8    1  0.2846344E+004  0.1043930E+01  0.7957747E-01            NaN
         13   -1    0    0    0    0  0.00000000000E+00  0.00000000000E+00  0.74505805969E-08  0.10566000000E+00  0.10566000000E+00 0.  1.
     999900   -1    0    0    0    0 -0.00000000000E+00 -0.00000000000E+00 -0.74505805969E-08  0.93827000000E+00  0.93827000000E+00 0. -1.
     999902    2    1    2    0    0 -0.91633427092E-02 -0.10422547737E-01 -0.29599189348E-02  0.10297399517E+01  0.10296421760E+01 0.  0.
     999903    2    3    3    0    0  0.95298324114E-01 -0.76122492028E-01 -0.52472950410E-01  0.13975104007E+00  0.43595163783E-01 0.  0.
         14    1    1    2    0    0  0.91633427092E-02  0.10422547737E-01  0.29599189348E-02  0.14190048310E-01  0.00000000000E+00 0. -1.
     999901    1    3    3    0    0 -0.10446166682E+00  0.65699944291E-01  0.49513031475E-01  0.88998891162E+00  0.88000000000E+00 0.  1.
        -11    1    4    4    0    0  0.92290451240E-01 -0.53461504621E-01 -0.42882867726E-01  0.11495591038E+00  0.51100000000E-03 0.  1.
         11    1    4    4    0    0  0.30078728738E-02 -0.22660987407E-01 -0.95900826836E-02  0.24795129690E-01  0.51100000000E-03 0. -1.
</event>
<event>
 8    1  0.2846344E+004  0.1043930E+01  0.7957747E-01            NaN
         13   -1    0    0    0    0  0.00000000000E+00  0.00000000000E+00  0.74505805969E-08  0.10566000000E+00  0.10566000000E+00 0.  1.
     999900   -1    0    0    0    0 -0.00000000000E+00 -0.00000000000E+00 -0.74505805969E-08  0.93827000000E+00  0.93827000000E+00 0. -1.
     999902    2    1    2    0    0  0.61578389578E-03 -0.13148894819E-01 -0.37284503426E-02  0.10302488463E+01  0.10301580031E+01 0.  0.
     999903    2    3    3    0    0 -0.14383558455E-01 -0.13928502577E-01  0.13110716472E+00  0.13985217562E+00  0.44369499049E-01 0.  0.
         14    1    1    2    0    0 -0.61578389578E-03  0.13148894819E-01  0.37284503426E-02  0.13681153706E-01  0.00000000000E+00 0.  1.
     999901    1    3    3    0    0  0.14999342350E-01  0.77960775843E-03 -0.13483561507E+00  0.89039667068E+00  0.88000000000E+00 0. -1.
        -11    1    4    4    0    0 -0.22598156630E-01 -0.20929305232E-01  0.55494363348E-01  0.63471237462E-01  0.51100000000E-03 0.  1.
         11    1    4    4    0    0  0.82145981755E-02  0.70008026546E-02  0.75612801375E-01  0.76380938157E-01  0.51100000000E-03 0. -1.
</event>
<event>
 8    1  0.2846344E+004  0.1043930E+01  0.7957747E-01            NaN
         13   -1    0    0    0    0  0.00000000000E+00  0.00000000000E+00  0.74505805969E-08  0.10566000000E+00  0.10566000000E+00 0. -1.
     999900   -1    0    0    0    0 -0.00000000000E+00 -0.00000000000E+00 -0.74505805969E-08  0.93827000000E+00  0.93827000000E+00 0.  1.
     999902    2    1    2    0    0 -0.32393086921E-02  0.57277131958E-02  0.12548568282E-01  0.10297607945E+01  0.10296633078E+01 0.  0.
     999903    2    3    3    0    0 -0.97763036393E-01 -0.48993717705E-01  0.77862796213E-01  0.14060663548E+00  0.41828402387E-01 0.  0.
         14    1    1    2    0    0  0.32393086921E-02 -0.57277131958E-02 -0.12548568282E-01  0.14169205524E-01  0.00000000000E+00 0.  1.
     999901    1    3    3    0    0  0.94523727701E-01  0.54721430900E-01 -0.65314227932E-01  0.88915415900E+00  0.88000000000E+00 0.  1.
        -11    1    4    4    0    0 -0.84524961935E-01 -0.33364178603E-01  0.43850259571E-01  0.10089967289E+00  0.51100000000E-03 0.  1.
         11    1    4    4    0    0 -0.13238074458E-01 -0.15629539102E-01  0.34012536642E-01  0.39706962585E-01  0.51100000000E-03 0. -1.
</event>
<event>
 8    1  0.2846344E+004  0.1043930E+01  0.7957747E-01            NaN
         13   -1    0    0    0    0  0.00000000000E+00  0.00000000000E+00  0.74505805969E-08  0.10566000000E+00  0.10566000000E+00 0. -1.
     999900   -1    0    0    0    0 -0.00000000000E+00 -0.00000000000E+00 -0.74505805969E-08  0.93827000000E+00  0.93827000000E+00 0.  1.
     999902    2    1    2    0    0  0.84769548944E-02  0.11924586605E-01 -0.56443075271E-02  0.10282483949E+01  0.10281288095E+01 0.  0.
     999903    2    3    3    0    0 -0.10495777680E+00 -0.55390986171E-01 -0.51843934390E-01  0.13721908553E+00  0.45354025647E-01 0.  0.
         14    1    1    2    0    0 -0.84769548944E-02 -0.11924586605E-01  0.56443075271E-02  0.15681605066E-01  0.00000000000E+00 0. -1.
     999901    1    3    3    0    0  0.11343473169E+00  0.67315572776E-01  0.46199626863E-01  0.89102930940E+00  0.88000000000E+00 0.  1.
        -11    1    4    4    0    0 -0.44907568378E-01 -0.29054853347E-01 -0.47443044917E-01  0.71498096707E-01  0.51100000000E-03 0. -1.
         11    1    4    4    0    0 -0.60050208417E-01 -0.26336132823E-01 -0.44008894731E-02  0.65720988825E-01  0.51100000000E-03 0.  1.
</event>
<event>
 8    1  0.2846344E+004  0.1043930E+01  0.7957747E-01            NaN
         13   -1    0    0    0    0  0.00000000000E+00  0.00000000000E+00  0.74505805969E-08  0.10566000000E+00  0.10566000000E+00 0.  1.
     999900   -1    0    0    0    0 -0.00000000000E+00 -0.00000000000E+00 -0.74505805969E-08  0.93827000000E+00  0.93827000000E+00 0.  1.
     999902    2    1    2    0    0 -0.60606836331E-02  0.33955362044E-02  0.12100053412E-01  0.10299774789E+01  0.10298829711E+01 0.  0.
     999903    2    3    3    0    0 -0.11855688241E+00  0.29358404893E-01  0.55132955082E-01  0.14139360785E+00  0.45109414754E-01 0.  0.
         14    1    1    2    0    0  0.60606836331E-02 -0.33955362044E-02 -0.12100053412E-01  0.13952521091E-01  0.00000000000E+00 0. -1.
     999901    1    3    3    0    0  0.11249619877E+00 -0.25962868688E-01 -0.43032901670E-01  0.88858387106E+00  0.88000000000E+00 0.  1.
        -11    1    4    4    0    0 -0.45992374832E-01  0.46108513518E-02 -0.12190875420E-02  0.46241818609E-01  0.51100000000E-03 0.  1.
         11    1    4    4    0    0 -0.72564507575E-01  0.24747553541E-01  0.56352042624E-01  0.95151789236E-01  0.51100000000E-03 0. -1.
</event>
<event>
 8    1  0.2846344E+004  0.1043930E+01  0.7957747E-01            NaN
         13   -1    0    0    0    0  0.00000000000E+00  0.00000000000E+00  0.74505805969E-08  0.10566000000E+00  0.10566000000E+00 0.  1.
     999900   -1    0    0    0    0 -0.00000000000E+00 -0.00000000000E+00 -0.74505805969E-08  0.93827000000E+00  0.93827000000E+00 0.  1.
     999902    2    1    2    0    0 -0.15273241409E-02 -0.85639176638E-02  0.97290768530E-02  0.10308790100E+01  0.10307963935E+01 0.  0.
     999903    2    3    3    0    0  0.73309030133E-02 -0.55840479503E-01  0.12294366530E+00  0.14232339294E+00  0.44372311768E-01 0.  0.
         14    1    1    2    0    0  0.15273241409E-02  0.85639176638E-02 -0.97290768530E-02  0.13050990047E-01  0.00000000000E+00 0. -1.
     999901    1    3    3    0    0 -0.88582271542E-02  0.47276561839E-01 -0.11321458844E+00  0.88855561701E+00  0.88000000000E+00 0.  1.
        -11    1    4    4    0    0 -0.16747738934E-01 -0.24057839954E-01  0.71176203017E-01  0.76977785235E-01  0.51100000000E-03 0.  1.
         11    1    4    4    0    0  0.24078641947E-01 -0.31782639549E-01  0.51767462279E-01  0.65345607707E-01  0.51100000000E-03 0. -1.
</event>
<event>
 8    1  0.2846344E+004  0.1043930E+01  0.7957747E-01            NaN
         13   -1    0    0    0    0  0.00000000000E+00  0.00000000000E+00  0.74505805969E-08  0.10566000000E+00  0.10566000000E+00 0. -1.
     999900   -1    0    0    0    0 -0.00000000000E+00 -0.00000000000E+00 -0.74505805969E-08  0.93827000000E+00  0.93827000000E+00 0. -1.
     999902    2    1    2    0    0  0.46255492932E-02 -0.78686939146E-02 -0.10356999231E-01  0.10301249472E+01  0.10300324399E+01 0.  0.
     999903    2    3    3    0    0  0.20582038157E-01  0.12069952974E+00 -0.50823021696E-01  0.13971947963E+00  0.44119799203E-01 0.  0.
         14    1    1    2    0    0 -0.46255492932E-02  0.78686939146E-02  0.10356999231E-01  0.13805052816E-01  0.00000000000E+00 0.  1.
     999901    1    3    3    0    0 -0.15956488864E-01 -0.12856822365E+00  0.40466022464E-01  0.89040546755E+00  0.88000000000E+00 0.  1.
        -11    1    4    4    0    0  0.15440634128E-01  0.12101933428E+00 -0.41160558492E-01  0.12875769937E+00  0.51100000000E-03 0.  1.
         11    1    4    4    0    0  0.51414040298E-02 -0.31980454197E-03 -0.96624632032E-02  0.10961780261E-01  0.51100000000E-03 0. -1.
</event>
<event>
 8    1  0.2846344E+004  0.1043930E+01  0.7957747E-01            NaN
         13   -1    0    0    0    0  0.00000000000E+00  0.00000000000E+00  0.74505805969E-08  0.10566000000E+00  0.10566000000E+00 0.  1.
     999900   -1    0    0    0    0 -0.00000000000E+00 -0.00000000000E+00 -0.74505805969E-08  0.93827000000E+00  0.93827000000E+00 0. -1.
     999902    2    1    2    0    0 -0.11075721733E-01 -0.26320614139E-02  0.14489377715E-01  0.10255033501E+01  0.10253377881E+01 0.  0.
     999903    2    3    3    0    0  0.10644884645E+00  0.51256814843E-01  0.48276592342E-01  0.13541480903E+00  0.45253984985E-01 0.  0.
         14    1    1    2    0    0  0.11075721733E-01  0.26320614139E-02 -0.14489377715E-01  0.18426649879E-01  0.00000000000E+00 0. -1.
     999901    1    3    3    0    0 -0.11752456819E+00 -0.53888876257E-01 -0.33787214627E-01  0.89008854109E+00  0.88000000000E+00 0.  1.
        -11    1    4    4    0    0  0.89632055761E-01  0.59547599922E-01  0.43415332963E-01  0.11603867603E+00  0.51100000000E-03 0. -1.
         11    1    4    4    0    0  0.16816790693E-01 -0.82907850789E-02  0.48612593787E-02  0.19376133003E-01  0.51100000000E-03 0.  1.
</event>
<event>
 8    1  0.2846344E+004  0.1043930E+01  0.7957747E-01            NaN
         13   -1    0    0    0    0  0.00000000000E+00  0.00000000000E+00  0.74505805969E-08  0.10566000000E+00  0.10566000000E+00 0. -1.
     999900   -1    0    0    0    0 -0.00000000000E+00 -0.00000000000E+00 -0.74505805969E-08  0.93827000000E+00  0.93827000000E+00 0.  1.
     999902    2    1    2    0    0 -0.38396554983E-02  0.25035465193E-04 -0.13307675693E-01  0.10300794472E+01  0.10299863250E+01 0.  0.
     999903    2    3    3    0    0  0.94014871370E-01 -0.86145236366E-01 -0.37730567990E-01  0.14013714464E+00  0.44215673242E-01 0.  0.
         14    1    1    2    0    0  0.38396554983E-02 -0.25035465193E-04  0.13307675693E-01  0.13850552821E-01  0.00000000000E+00 0. -1.
     999901    1    3    3    0    0 -0.97854526868E-01  0.86170271831E-01  0.24422892297E-01  0.88994230254E+00  0.88000000000E+00 0. -1.
        -11    1    4    4    0    0  0.70038679991E-01 -0.78668952285E-01 -0.15253480572E-01  0.10642908690E+00  0.51100000000E-03 0.  1.
         11    1    4    4    0    0  0.23976191379E-01 -0.74762840806E-02 -0.22477087418E-01  0.33708057739E-01  0.51100000000E-03 0. -1.
</event>
<event>
 8    1  0.2846344E+004  0.1043930E+01  0.7957747E-01            NaN
         13   -1    0    0    0    0  0.00000000000E+00  0.00000000000E+00  0.74505805969E-08  0.10566000000E+00  0.10566000000E+00 0. -1.
     999900   -1    0    0    0    0 -0.00000000000E+00 -0.00000000000E+00 -0.74505805969E-08  0.93827000000E+00  0.93827000000E+00 0.  1.
     999902    2    1    2    0    0 -0.85260222694E-02  0.10469555334E-01 -0.38220998504E-02  0.10298974275E+01  0.10298018246E+01 0.  0.
     999903    2    3    3    0    0  0.85343160533E-01 -0.98583913519E-01  0.11815346878E-01  0.13807423182E+00  0.43848010411E-01 0.  0.
         14    1    1    2    0    0  0.85260222694E-02 -0.10469555334E-01  0.38220998504E-02  0.14032572533E-01  0.00000000000E+00 0. -1.
     999901    1    3    3    0    0 -0.93869182802E-01  0.10905346885E+00 -0.15637446728E-01  0.89182319564E+00  0.88000000000E+00 0.  1.
        -11    1    4    4    0    0  0.72404240727E-01 -0.88102582746E-01 -0.53372832250E-02  0.11416298382E+00  0.51100000000E-03 0.  1.
         11    1    4    4    0    0  0.12938919806E-01 -0.10481330774E-01  0.17152630103E-01  0.23911248001E-01  0.51100000000E-03 0. -1.
</event>
<event>
 7    1  0.2846344E+004  0.1043930E+01  0.7957747E-01            NaN
         13   -1    0    0    0    0  0.00000000000E+00  0.00000000000E+00  0.74505805969E-08  0.10566000000E+00  0.10566000000E+00 0. -1.
     999900   -1    0    0    0    0 -0.00000000000E+00 -0.00000000000E+00 -0.74505805969E-08  0.93827000000E+00  0.93827000000E+00 0. -1.
     999903    2    1    2    0    0  0.88036314622E-02  0.62933725637E-01  0.71367783911E-01  0.10582192748E+00  0.45461654241E-01 0.  0.
         14    1    1    2    0    0 -0.20648805330E-01  0.30079135578E-02  0.43375349724E-01  0.48133581512E-01  0.00000000000E+00 0. -1.
     999901    1    1    2    0    0  0.11845173868E-01 -0.65941639194E-01 -0.11474313363E+00  0.88997449101E+00  0.88000000000E+00 0. -1.
        -11    1    3    3    0    0  0.21127022595E-01  0.17939650795E-01  0.11721949251E-01  0.30097298378E-01  0.51100000000E-03 0.  1.
         11    1    3    3    0    0 -0.12323391133E-01  0.44994074841E-01  0.59645834660E-01  0.75724629105E-01  0.51100000000E-03 0. -1.
</event>
<event>
 8    1  0.2846344E+004  0.1043930E+01  0.7957747E-01            NaN
         13   -1    0    0    0    0  0.00000000000E+00  0.00000000000E+00  0.74505805969E-08  0.10566000000E+00  0.10566000000E+00 0.  1.
     999900   -1    0    0    0    0 -0.00000000000E+00 -0.00000000000E+00 -0.74505805969E-08  0.93827000000E+00  0.93827000000E+00 0. -1.
     999902    2    1    2    0    0  0.13275445210E-01  0.35035167212E-02 -0.11538289589E-02  0.10301516330E+01  0.10300594855E+01 0.  0.
     999903    2    3    3    0    0  0.11688229580E+00  0.52582937222E-01 -0.41455483794E-01  0.14180069315E+00  0.44299470483E-01 0.  0.
         14    1    1    2    0    0 -0.13275445210E-01 -0.35035167212E-02  0.11538289589E-02  0.13778366964E-01  0.00000000000E+00 0. -1.
     999901    1    3    3    0    0 -0.10360685059E+00 -0.49079420501E-01  0.40301654835E-01  0.88835093988E+00  0.88000000000E+00 0.  1.
        -11    1    4    4    0    0  0.64496458886E-01  0.18409849369E-01 -0.57378616321E-03  0.67076867206E-01  0.51100000000E-03 0.  1.
         11    1    4    4    0    0  0.52385836910E-01  0.34173087853E-01 -0.40881697631E-01  0.74723825948E-01  0.51100000000E-03 0. -1.
</event>
<event>
 8    1  0.2846344E+004  0.1043930E+01  0.7957747E-01            NaN
         13   -1    0    0    0    0  0.00000000000E+00  0.00000000000E+00  0.74505805969E-08  0.10566000000E+00  0.10566000000E+00 0. -1.
     999900   -1    0    0    0    0 -0.00000000000E+00 -0.00000000000E+00 -0.74505805969E-08  0.93827000000E+00  0.93827000000E+00 0.  1.
     999902    2    1    2    0    0  0.38946005921E-02  0.12308893816E-01  0.14449223218E-02  0.10309390577E+01  0.10308572045E+01 0.  0.
     999903    2    3    3    0    0 -0.76972564561E-01 -0.93706086379E-01 -0.50684402505E-01  0.13936957589E+00  0.46361230649E-01 0.  0.
         14    1    1    2    0    0 -0.38946005921E-02 -0.12308893816E-01 -0.14449223218E-02  0.12990942278E-01  0.00000000000E+00 0. -1.
     999901    1    3    3    0    0  0.80867165153E-01  0.10601498019E+00  0.52129324826E-01  0.89156948183E+00  0.88000000000E+00 0. -1.
        -11    1    4    4    0    0 -0.53216808051E-01 -0.34363396010E-01 -0.11477335145E-01  0.64380602572E-01  0.51100000000E-03 0.  1.
         11    1    4    4    0    0 -0.23755756510E-01 -0.59342690369E-01 -0.39207067359E-01  0.74988973319E-01  0.51100000000E-03 0. -1.
</event>
<event>
 8    1  0.2846344E+004  0.1043930E+01  0.7957747E-01            NaN
         13   -1    0    0    0    0  0.00000000000E+00  0.00000000000E+00  0.74505805969E-08  0.10566000000E+00  0.10566000000E+00 0.  1.
     999900   -1    0    0    0    0 -0.00000000000E+00 -0.00000000000E+00 -0.74505805969E-08  0.93827000000E+00  0.93827000000E+00 0.  1.
     999902    2    1    2    0    0  0.11164779271E-01 -0.75576128546E-02  0.15478904176E-02  0.10303592309E+01  0.10302698574E+01 0.  0.
     999903    2    3    3    0    0 -0.11989557032E+00  0.43402663839E-01 -0.28705404785E-01  0.13868158352E+00  0.46366392261E-01 0.  0.
         14    1    1    2    0    0 -0.11164779271E-01  0.75576128546E-02 -0.15478904176E-02  0.13570769063E-01  0.00000000000E+00 0.  1.
     999901    1    3    3    0    0  0.13106034959E+00 -0.50960276694E-01  0.30253295202E-01  0.89167764742E+00  0.88000000000E+00 0. -1.
        -11    1    4    4    0    0 -0.25952604401E-01  0.31662197246E-01 -0.67694211253E-02  0.41498416753E-01  0.51100000000E-03 0. -1.
         11    1    4    4    0    0 -0.93942965923E-01  0.11740466594E-01 -0.21935983660E-01  0.97183166765E-01  0.51100000000E-03 0.  1.
</event>
<event>
 8    1  0.2846344E+004  0.1043930E+01  0.7957747E-01            NaN
         13   -1    0    0    0    0  0.00000000000E+00  0.00000000000E+00  0.74505805969E-08  0.10566000000E+00  0.10566000000E+00 0.  1.
     999900   -1    0    0    0    0 -0.00000000000E+00 -0.00000000000E+00 -0.74505805969E-08  0.93827000000E+00  0.93827000000E+00 0.  1.
     999902    2    1    2    0    0 -0.27148892657E-02  0.10300504857E-01 -0.81278935409E-02  0.10305309822E+01  0.10304438712E+01 0.  0.
     999903    2    3    3    0    0  0.75882699806E-01 -0.21267987930E-01  0.10557693398E+00  0.13918203902E+00  0.44884736344E-01 0.  0.
         14    1    1    2    0    0  0.27148892657E-02 -0.10300504857E-01  0.81278935409E-02  0.13399017779E-01  0.00000000000E+00 0.  1.
     999901    1    3    3    0    0 -0.78597589071E-01  0.31568492788E-01 -0.11370482752E+00  0.89134894320E+00  0.88000000000E+00 0.  1.
        -11    1    4    4    0    0  0.32038346752E-01 -0.24294205624E-01  0.24861595122E-01  0.47276041739E-01  0.51100000000E-03 0.  1.
         11    1    4    4    0    0  0.43844353054E-01  0.30262176940E-02  0.80715338857E-01  0.91905997280E-01  0.51100000000E-03 0. -1.
</event>
<event>
 8    1  0.2846344E+004  0.1043930E+01  0.7957747E-01            NaN
         13   -1    0    0    0    0  0.00000000000E+00  0.00000000000E+00  0.74505805969E-08  0.10566000000E+00  0.10566000000E+00 0.  1.
     999900   -1    0    0    0    0 -0.00000000000E+00 -0.00000000000E+00 -0.74505805969E-08  0.93827000000E+00  0.93827000000E+00 0.  1.
     999902    2    1    2    0    0  0.13809125866E-01  0.61163980943E-02 -0.25342294476E-02  0.10286158039E+01  0.10285017975E+01 0.  0.
     999903    2    3    3    0    0 -0.11398013427E+00 -0.34469309799E-03 -0.61529522039E-01  0.13740747515E+00  0.45862210196E-01 0.  0.
         14    1    1    2    0    0 -0.13809125866E-01 -0.61163980943E-02  0.25342294476E-02  0.15314196084E-01  0.00000000000E+00 0.  1.
     999901    1    3    3    0    0  0.12778926014E+00  0.64610911923E-02  0.58995292591E-01  0.89120832876E+00  0.88000000000E+00 0.  1.
        -11    1    4    4    0    0 -0.85372119648E-01  0.64619254667E-02 -0.65405940832E-01  0.10774206936E+00  0.51100000000E-03 0.  1.
         11    1    4    4    0    0 -0.28608014624E-01 -0.68066185647E-02  0.38764187933E-02  0.29665405789E-01  0.51100000000E-03 0. -1.
</event>
<event>
 8    1  0.2846344E+004  0.1043930E+01  0.7957747E-01            NaN
         13   -1    0    0    0    0  0.00000000000E+00  0.00000000000E+00  0.74505805969E-08  0.10566000000E+00  0.10566000000E+00 0.  1.
     999900   -1    0    0    0    0 -0.00000000000E+00 -0.00000000000E+00 -0.74505805969E-08  0.93827000000E+00  0.93827000000E+00 0. -1.
     999902    2    1    2    0    0  0.31414263844E-02  0.12610270726E-01  0.38245176469E-02  0.10303832505E+01  0.10302941951E+01 0.  0.
     999903    2    3    3    0    0  0.31378161163E-01 -0.12525599043E+00  0.28114886566E-01  0.13887080458E+00  0.42673192777E-01 0.  0.
         14    1    1    2    0    0 -0.31414263844E-02 -0.12610270726E-01 -0.38245176469E-02  0.13546749527E-01  0.00000000000E+00 0. -1.
     999901    1    3    3    0    0 -0.28236734779E-01  0.13786626116E+00 -0.24290368919E-01  0.89151244589E+00  0.88000000000E+00 0. -1.
        -11    1    4    4    0    0  0.35058721211E-01 -0.53445594446E-01  0.16679987548E-01  0.66060794759E-01  0.51100000000E-03 0.  1.
         11    1    4    4    0    0 -0.36805600480E-02 -0.71810395985E-01  0.11434899018E-01  0.72810009823E-01  0.51100000000E-03 0. -1.
</event>
<event>
 8    1  0.2846344E+004  0.1043930E+01  0.7957747E-01            NaN
         13   -1    0    0    0    0  0.00000000000E+00  0.00000000000E+00  0.74505805969E-08  0.10566000000E+00  0.10566000000E+00 0. -1.
     999900   -1    0    0    0    0 -0.00000000000E+00 -0.00000000000E+00 -0.74505805969E-08  0.93827000000E+00  0.93827000000E+00 0. -1.
     999902    2    1    2    0    0  0.11913903813E-01 -0.72609393781E-02  0.22737780129E-02  0.10297937908E+01  0.10296967608E+01 0.  0.
     999903    2    3    3    0    0 -0.48741886636E-01  0.12092740686E+00  0.12467846716E-01  0.13838182313E+00  0.44663995873E-01 0.  0.
         14    1    1    2    0    0 -0.11913903813E-01  0.72609393781E-02 -0.22737780129E-02  0.14136209222E-01  0.00000000000E+00 0.  1.
     999901    1    3    3    0    0  0.60655790450E-01 -0.12818834624E+00 -0.10194068703E-01  0.89141196765E+00  0.88000000000E+00 0. -1.
        -11    1    4    4    0    0 -0.33064910580E-01  0.60281246194E-01  0.27350991506E-01  0.73996316204E-01  0.51100000000E-03 0.  1.
         11    1    4    4    0    0 -0.15676976056E-01  0.60646160671E-01 -0.14883144791E-01  0.64385506927E-01  0.51100000000E-03 0. -1.
</event>
<event>
 8    1  0.2846344E+004  0.1043930E+01  0.7957747E-01            NaN
         13   -1    0    0    0    0  0.00000000000E+00  0.00000000000E+00  0.74505805969E-08  0.10566000000E+00  0.10566000000E+00 0.  1.
     999900   -1    0    0    0    0 -0.00000000000E+00 -0.00000000000E+00 -0.74505805969E-08  0.93827000000E+00  0.93827000000E+00 0.  1.
     999902    2    1    2    0    0  0.14119461589E-02  0.18946307141E-01  0.57391464712E-02  0.10240832383E+01  0.10238909049E+01 0.  0.
     999903    2    3    3    0    0 -0.40255277041E-01 -0.11239031153E+00 -0.38560059366E-01  0.13226045071E+00  0.41879340849E-01 0.  0.
         14    1    1    2    0    0 -0.14119461589E-02 -0.18946307141E-01 -0.57391464712E-02  0.19846761661E-01  0.00000000000E+00 0.  1.
     999901    1    3    3    0    0  0.41667223200E-01  0.13133661867E+00  0.44299205838E-01  0.89182278763E+00  0.88000000000E+00 0. -1.
        -11    1    4    4    0    0  0.44601173691E-02 -0.19400821693E-01 -0.18427529753E-01  0.27131522315E-01  0.51100000000E-03 0. -1.
         11    1    4    4    0    0 -0.44715394410E-01 -0.92989489832E-01 -0.20132529614E-01  0.10512892840E+00  0.51100000000E-03 0.  1.
</event>
<event>
 8    1  0.2846344E+004  0.1043930E+01  0.7957747E-01            NaN
         13   -1    0    0    0    0  0.00000000000E+00  0.00000000000E+00  0.74505805969E-08  0.10566000000E+00  0.10566000000E+00 0. -1.
     999900   -1    0    0    0    0 -0.00000000000E+00 -0.00000000000E+00 -0.74505805969E-08  0.93827000000E+00  0.93827000000E+00 0. -1.
     999902    2    1    2    0    0 -0.54450788135E-02  0.94222721722E-02 -0.84227470410E-02  0.10301687950E+01  0.10300768784E+01 0.  0.
     999903    2    3    3    0    0 -0.12819612494E+00  0.37574089205E-01 -0.78194496383E-03  0.14117007394E+00  0.45632441423E-01 0.  0.
         14    1    1    2    0    0  0.54450788135E-02 -0.94222721722E-02  0.84227470410E-02  0.13761205030E-01  0.00000000000E+00 0. -1.
     999901    1    3    3    0    0  0.12275104613E+00 -0.28151817033E-01 -0.76408020772E-02  0.88899872102E+00  0.88000000000E+00 0.  1.
        -11    1    4    4    0    0 -0.93046718880E-01  0.50690594074E-02  0.20448808767E-02  0.93208529204E-01  0.51100000000E-03 0.  1.
         11    1    4    4    0    0 -0.35149406061E-01  0.32505029797E-01 -0.28268258406E-02  0.47961544740E-01  0.51100000000E-03 0. -1.
</event>
<event>
 8    1  0.2846344E+004  0.1043930E+01  0.7957747E-01            NaN
         13   -1    0    0    0    0  0.00000000000E+00  0.00000000000E+00  0.74505805969E-08  0.10566000000E+00  0.10566000000E+00 0. -1.
     999900   -1    0    0    0    0 -0.00000000000E+00 -0.00000000000E+00 -0.74505805969E-08  0.93827000000E+00  0.93827000000E+00 0.  1.
     999902    2    1    2    0    0  0.64353073495E-02 -0.62235507246E-02  0.97635382229E-02  0.10306833988E+01  0.10305982710E+01 0.  0.
     999903    2    3    3    0    0 -0.54572130271E-01  0.79690626622E-02  0.12348412521E+00  0.14115784571E+00  0.40442364739E-01 0.  0.
         14    1    1    2    0    0 -0.64353073495E-02  0.62235507246E-02 -0.97635382229E-02  0.13246601184E-01  0.00000000000E+00 0.  1.
     999901    1    3    3    0    0  0.61007437620E-01 -0.14192613387E-01 -0.11372058699E+00  0.88952555310E+00  0.88000000000E+00 0.  1.
        -11    1    4    4    0    0 -0.42561755113E-01  0.22676227143E-01  0.75947865599E-01  0.89966958856E-01  0.51100000000E-03 0. -1.
         11    1    4    4    0    0 -0.12010375157E-01 -0.14707164481E-01  0.47536259610E-01  0.51190886857E-01  0.51100000000E-03 0.  1.
</event>
<event>
 8    1  0.2846344E+004  0.1043930E+01  0.7957747E-01            NaN
         13   -1    0    0    0    0  0.00000000000E+00  0.00000000000E+00  0.74505805969E-08  0.10566000000E+00  0.10566000000E+00 0.  1.
     999900   -1    0    0    0    0 -0.00000000000E+00 -0.00000000000E+00 -0.74505805969E-08  0.93827000000E+00  0.93827000000E+00 0. -1.
     999902    2    1    2    0    0 -0.34000315581E-02 -0.41233838786E-02  0.13105003497E-01  0.10297771337E+01  0.10296798732E+01 0.  0.
     999903    2    3    3    0    0  0.88886485652E-01 -0.69211274262E-01 -0.67636217362E-01  0.13889421234E+00  0.45010404434E-01 0.  0.
         14    1    1    2    0    0  0.34000315581E-02  0.41233838786E-02 -0.13105003497E-01  0.14152866348E-01  0.00000000000E+00 0. -1.
     999901    1    3    3    0    0 -0.92286517210E-01  0.65087890383E-01  0.80741220858E-01  0.89088292131E+00  0.88000000000E+00 0.  1.
        -11    1    4    4    0    0  0.88060966028E-01 -0.54964915810E-01 -0.47376927609E-01  0.11410832616E+00  0.51100000000E-03 0.  1.
         11    1    4    4    0    0  0.82551962331E-03 -0.14246358451E-01 -0.20259289752E-01  0.24785886186E-01  0.51100000000E-03 0. -1.
</event>
<event>
 8    1  0.2846344E+004  0.1043930E+01  0.7957747E-01            NaN
         13   -1    0    0    0    0  0.00000000000E+00  0.00000000000E+00  0.74505805969E-08  0.10566000000E+00  0.10566000000E+00 0.  1.
     999900   -1    0    0    0    0 -0.00000000000E+00 -0.00000000000E+00 -0.74505805969E-08  0.93827000000E+00  0.93827000000E+00 0.  1.
     999902    2    1    2    0    0 -0.57701633191E-02 -0.25470079259E-02  0.12572942406E-01  0.10298636958E+01  0.10297676296E+01 0.  0.
     999903    2    3    3    0    0  0.41907749924E-01 -0.45851788246E-02  0.12702749280E+00  0.14116960798E+00  0.44895332962E-01 0.  0.
         14    1    1    2    0    0  0.57701633191E-02  0.25470079259E-02 -0.12572942406E-01  0.14066304235E-01  0.00000000000E+00 0. -1.
     999901    1    3    3    0    0 -0.47677913243E-01  0.20381708987E-02 -0.11445455040E+00  0.88869408778E+00  0.88000000000E+00 0.  1.
        -11    1    4    4    0    0  0.73312413542E-02  0.73127815486E-02  0.84274064802E-01  0.84909381066E-01  0.51100000000E-03 0.  1.
         11    1    4    4    0    0  0.34576508569E-01 -0.11897960373E-01  0.42753428000E-01  0.56260226916E-01  0.51100000000E-03 0. -1.
</event>
<event>
 8    1  0.2846344E+004  0.1043930E+01  0.7957747E-01            NaN
         13   -1    0    0    0    0  0.00000000000E+00  0.00000000000E+00  0.74505805969E-08  0.10566000000E+00  0.10566000000E+00 0.  1.
     999900   -1    0    0    0    0 -0.00000000000E+00 -0.00000000000E+00 -0.74505805969E-08  0.93827000000E+00  0.93827000000E+00 0. -1.
     999902    2    1    2    0    0 -0.49377333016E-04  0.24695973594E-02  0.14504305061E-01  0.10292168693E+01  0.10291116984E+01 0.  0.
     999903    2    3    3    0    0  0.10589411578E+00 -0.16126554415E-01 -0.75435697566E-01  0.13811696208E+00  0.43727808467E-01 0.  0.
         14    1    1    2    0    0  0.49377333016E-04 -0.24695973594E-02 -0.14504305061E-01  0.14713130684E-01  0.00000000000E+00 0. -1.
     999901    1    3    3    0    0 -0.10594349312E+00  0.18596151775E-01  0.89940002627E-01  0.89109990723E+00  0.88000000000E+00 0.  1.
        -11    1    4    4    0    0  0.66407206576E-01 -0.87258415660E-03 -0.22042028929E-01  0.69977072306E-01  0.51100000000E-03 0. -1.
         11    1    4    4    0    0  0.39486909208E-01 -0.15253970259E-01 -0.53393668637E-01  0.68139889778E-01  0.51100000000E-03 0.  1.
</event>
<event>
 8    1  0.2846344E+004  0.1043930E+01  0.7957747E-01            NaN
         13   -1    0    0    0    0  0.00000000000E+00  0.00000000000E+00  0.74505805969E-08  0.10566000000E+00  0.10566000000E+00 0.  1.
     999900   -1    0    0    0    0 -0.00000000000E+00 -0.00000000000E+00 -0.74505805969E-08  0.93827000000E+00  0.93827000000E+00 0.  1.
     999902    2    1    2    0    0 -0.12487144024E-01 -0.48142387582E-02 -0.49896446031E-02  0.10296470656E+01  0.10295479967E+01 0.  0.
     999903    2    3    3    0    0  0.88063804832E-02 -0.13091980475E+00 -0.22213046964E-01  0.14023564591E+00  0.44216165762E-01 0.  0.
         14    1    1    2    0    0  0.12487144024E-01  0.48142387582E-02  0.49896446031E-02  0.14282934361E-01  0.00000000000E+00 0.  1.
     999901    1    3    3    0    0 -0.21293524507E-01  0.12610556599E+00  0.17223402361E-01  0.88941141973E+00  0.88000000000E+00 0.  1.
        -11    1    4    4    0    0 -0.10346525492E-01 -0.38706417074E-01  0.89030317430E-02  0.41045857376E-01  0.51100000000E-03 0. -1.
         11    1    4    4    0    0  0.19152905975E-01 -0.92213387676E-01 -0.31116078707E-01  0.99189788532E-01  0.51100000000E-03 0.  1.
</event>
<event>
 8    1  0.2846344E+004  0.1043930E+01  0.7957747E-01            NaN
         13   -1    0    0    0    0  0.00000000000E+00  0.00000000000E+00  0.74505805969E-08  0.10566000000E+00  0.10566000000E+00 0.  1.
     999900   -1    0    0    0    0 -0.00000000000E+00 -0.00000000000E+00 -0.74505805969E-08  0.93827000000E+00  0.93827000000E+00 0.  1.
     999902    2    1    2    0    0 -0.15729580023E-01 -0.62697202432E-02 -0.29151072917E-02  0.10267478310E+01  0.10266040530E+01 0.  0.
     999903    2    3    3    0    0  0.17300617566E-01 -0.18952222376E-01 -0.12693449726E+00  0.13734766863E+00  0.45754971123E-01 0.  0.
         14    1    1    2    0    0  0.15729580023E-01  0.62697202432E-02  0.29151072917E-02  0.17182168959E-01  0.00000000000E+00 0.  1.
     999901    1    3    3    0    0 -0.33030197589E-01  0.12682502133E-01  0.12401938997E+00  0.88940016241E+00  0.88000000000E+00 0. -1.
        -11    1    4    4    0    0  0.15006484739E-01 -0.33686960519E-01 -0.99541764401E-01  0.10615474495E+00  0.51100000000E-03 0.  1.
         11    1    4    4    0    0  0.22941328270E-02  0.14734738143E-01 -0.27392732856E-01  0.31192923683E-01  0.51100000000E-03 0. -1.
</event>
<event>
 8    1  0.2846344E+004  0.1043930E+01  0.7957747E-01            NaN
         13   -1    0    0    0    0  0.00000000000E+00  0.00000000000E+00  0.74505805969E-08  0.10566000000E+00  0.10566000000E+00 0. -1.
     999900   -1    0    0    0    0 -0.00000000000E+00 -0.00000000000E+00 -0.74505805969E-08  0.93827000000E+00  0.93827000000E+00 0.  1.
     999902    2    1    2    0    0 -0.47458601608E-02 -0.56470314838E-02  0.12314789063E-01  0.10295749945E+01  0.10294749162E+01 0.  0.
     999903    2    3    3    0    0  0.22373632602E-01 -0.12978639642E+00 -0.16410130302E-01  0.13998454389E+00  0.44511706557E-01 0.  0.
         14    1    1    2    0    0  0.47458601608E-02  0.56470314838E-02 -0.12314789063E-01  0.14355005500E-01  0.00000000000E+00 0.  1.
     999901    1    3    3    0    0 -0.27119492763E-01  0.12413936494E+00  0.28724919365E-01  0.88959045061E+00  0.88000000000E+00 0.  1.
        -11    1    4    4    0    0  0.60310466467E-03 -0.10791495534E+00 -0.16150088522E-01  0.10911960319E+00  0.51100000000E-03 0. -1.
         11    1    4    4    0    0  0.21770527937E-01 -0.21871441087E-01 -0.26004178037E-03  0.30864940703E-01  0.51100000000E-03 0.  1.
</event>
<event>
 8    1  0.2846344E+004  0.1043930E+01  0.7957747E-01            NaN
         13   -1    0    0    0    0  0.00000000000E+00  0.00000000000E+00  0.74505805969E-08  0.10566000000E+00  0.10566000000E+00 0.  1.
     999900   -1    0    0    0    0 -0.00000000000E+00 -0.00000000000E+00 -0.74505805969E-08  0.93827000000E+00  0.93827000000E+00 0. -1.
     999902    2    1    2    0    0 -0.43476478073E-02 -0.25313361242E-02 -0.13667713877E-01  0.10293657936E+01  0.10292627561E+01 0.  0.
     999903    2    3    3    0    0  0.16330679922E-02  0.84284206298E-01  0.98166270345E-01  0.13802997175E+00  0.48053742060E-01 0.  0.
         14    1    1    2    0    0  0.43476478073E-02  0.25313361242E-02  0.13667713877E-01  0.14564206352E-01  0.00000000000E+00 0.  1.
     999901    1    3    3    0    0 -0.59807157995E-02 -0.86815542422E-01 -0.11183398422E+00  0.89133582190E+00  0.88000000000E+00 0. -1.
        -11    1    4    4    0    0 -0.49827445084E-02  0.81349858831E-01  0.65482792088E-01  0.10455087018E+00  0.51100000000E-03 0. -1.
         11    1    4    4    0    0  0.66158125006E-02  0.29343474669E-02  0.32683478257E-01  0.33479101573E-01  0.51100000000E-03 0.  1.
</event>
<event>
 8    1  0.2846344E+004  0.1043930E+01  0.7957747E-01            NaN
         13   -1    0    0    0    0  0.00000000000E+00  0.00000000000E+00  0.74505805969E-08  0.10566000000E+00  0.10566000000E+00 0.  1.
     999900   -1    0    0    0    0 -0.00000000000E+00 -0.00000000000E+00 -0.74505805969E-08  0.93827000000E+00  0.93827000000E+00 0. -1.
     999902    2    1    2    0    0 -0.64605894077E-02  0.10956784973E-01  0.35156747807E-03  0.10312054587E+01  0.10311269486E+01 0.  0.
     999903    2    3    3    0    0  0.59108882955E-01 -0.48983360703E-02 -0.11916391292E+00  0.14056822016E+00  0.45183322545E-01 0.  0.
         14    1    1    2    0    0  0.64605894077E-02 -0.10956784973E-01 -0.35156747807E-03  0.12724541333E-01  0.00000000000E+00 0. -1.
     999901    1    3    3    0    0 -0.65569472363E-01  0.15855121043E-01  0.11951548039E+00  0.89063723851E+00  0.88000000000E+00 0.  1.
        -11    1    4    4    0    0  0.50498950434E-01  0.18131271951E-02 -0.51959146335E-01  0.72480655585E-01  0.51100000000E-03 0.  1.
         11    1    4    4    0    0  0.86099325210E-02 -0.67114632654E-02 -0.67204766580E-01  0.68087564571E-01  0.51100000000E-03 0. -1.
</event>
<event>
 8    1  0.2846344E+004  0.1043930E+01  0.7957747E-01            NaN
         13   -1    0    0    0    0  0.00000000000E+00  0.00000000000E+00  0.74505805969E-08  0.10566000000E+00  0.10566000000E+00 0. -1.
     999900   -1    0    0    0    0 -0.00000000000E+00 -0.00000000000E+00 -0.74505805969E-08  0.93827000000E+00  0.93827000000E+00 0.  1.
     999902    2    1    2    0    0  0.10141953156E-01 -0.12307950248E-01 -0.31276078883E-02  0.10276780221E+01  0.10275495075E+01 0.  0.
     999903    2    3    3    0    0  0.10915066316E+00  0.58485469425E-01 -0.42019552732E-01  0.13844969584E+00  0.45478105326E-01 0.  0.
         14    1    1    2    0    0 -0.10141953156E-01  0.12307950248E-01  0.31276078883E-02  0.16251977856E-01  0.00000000000E+00 0. -1.
     999901    1    3    3    0    0 -0.99008710007E-01 -0.70793419673E-01  0.38891944844E-01  0.88922832630E+00  0.88000000000E+00 0. -1.
        -11    1    4    4    0    0  0.52755260255E-01  0.62053419673E-02 -0.57746677944E-02  0.53434367804E-01  0.51100000000E-03 0. -1.
         11    1    4    4    0    0  0.56395402907E-01  0.52280127458E-01 -0.36244884938E-01  0.85015328037E-01  0.51100000000E-03 0.  1.
</event>
<event>
 8    1  0.2846344E+004  0.1043930E+01  0.7957747E-01            NaN
         13   -1    0    0    0    0  0.00000000000E+00  0.00000000000E+00  0.74505805969E-08  0.10566000000E+00  0.10566000000E+00 0.  1.
     999900   -1    0    0    0    0 -0.00000000000E+00 -0.00000000000E+00 -0.74505805969E-08  0.93827000000E+00  0.93827000000E+00 0.  1.
     999902    2    1    2    0    0 -0.29046047184E-02  0.10036982111E-01  0.67453671364E-02  0.10314930504E+01  0.10314180701E+01 0.  0.
     999903    2    3    3    0    0 -0.91344387419E-01 -0.94996666708E-01  0.20939608946E-01  0.14073206163E+00  0.44708859852E-01 0.  0.
         14    1    1    2    0    0  0.29046047184E-02 -0.10036982111E-01 -0.67453671364E-02  0.12436949637E-01  0.00000000000E+00 0. -1.
     999901    1    3    3    0    0  0.88439782701E-01  0.10503364882E+00 -0.14194241810E-01  0.89076098873E+00  0.88000000000E+00 0.  1.
        -11    1    4    4    0    0 -0.41230928898E-01 -0.24939912843E-01  0.25411190765E-01  0.54479156450E-01  0.51100000000E-03 0.  1.
         11    1    4    4    0    0 -0.50113458521E-01 -0.70056753865E-01 -0.44715818188E-02  0.86252905180E-01  0.51100000000E-03 0. -1.
</event>
<event>
 8    1  0.2846344E+004  0.1043930E+01  0.7957747E-01            NaN
         13   -1    0    0    0    0  0.00000000000E+00  0.00000000000E+00  0.74505805969E-08  0.10566000000E+00  0.10566000000E+00 0. -1.
     999900   -1    0    0    0    0 -0.00000000000E+00 -0.00000000000E+00 -0.74505805969E-08  0.93827000000E+00  0.93827000000E+00 0.  1.
     999902    2    1    2    0    0  0.70625041337E-02 -0.15650874290E-01  0.52755464252E-02  0.10259672546E+01  0.10258099957E+01 0.  0.
     999903    2    3    3    0    0  0.80150009490E-01  0.83863550179E-01  0.54532392134E-01  0.13598346773E+00  0.45393861199E-01 0.  0.
         14    1    1    2    0    0 -0.70625041337E-02  0.15650874290E-01 -0.52755464252E-02  0.17962745357E-01  0.00000000000E+00 0.  1.
     999901    1    3    3    0    0 -0.73087505356E-01 -0.99514424469E-01 -0.49256845709E-01  0.88998378691E+00  0.88000000000E+00 0.  1.
        -11    1    4    4    0    0  0.72049987836E-01  0.60747604492E-01  0.24787772648E-01  0.97448278551E-01  0.51100000000E-03 0.  1.
         11    1    4    4    0    0  0.81000216534E-02  0.23115945687E-01  0.29744619486E-01  0.38535189180E-01  0.51100000000E-03 0. -1.
</event>
<event>
 8    1  0.2846344E+004  0.1043930E+01  0.7957747E-01            NaN
         13   -1    0    0    0    0  0.00000000000E+00  0.00000000000E+00  0.74505805969E-08  0.10566000000E+00  0.10566000000E+00 0. -1.
     999900   -1    0    0    0    0 -0.00000000000E+00 -0.00000000000E+00 -0.74505805969E-08  0.93827000000E+00  0.93827000000E+00 0. -1.
     999902    2    1    2    0    0  0.77367580727E-02 -0.24611800546E-02 -0.75760025589E-02  0.10328254673E+01  0.10327657697E+01 0.  0.
     999903    2    3    3    0    0 -0.12452814511E+00  0.48202381451E-01  0.15269380001E-01  0.14120743660E+00  0.43308863811E-01 0.  0.
         14    1    1    2    0    0 -0.77367580727E-02  0.24611800546E-02  0.75760025589E-02  0.11104532746E-01  0.00000000000E+00 0.  1.
     999901    1    3    3    0    0  0.13226490318E+00 -0.50663561506E-01 -0.22845382560E-01  0.89161803065E+00  0.88000000000E+00 0.  1.
        -11    1    4    4    0    0 -0.37250905192E-01  0.97268486288E-02 -0.14719661243E-01  0.41221002777E-01  0.51100000000E-03 0.  1.
         11    1    4    4    0    0 -0.87277239916E-01  0.38475532822E-01  0.29989041244E-01  0.99986433825E-01  0.51100000000E-03 0. -1.
</event>
<event>
 8    1  0.2846344E+004  0.1043930E+01  0.7957747E-01            NaN
         13   -1    0    0    0    0  0.00000000000E+00  0.00000000000E+00  0.74505805969E-08  0.10566000000E+00  0.10566000000E+00 0.  1.
     999900   -1    0    0    0    0 -0.00000000000E+00 -0.00000000000E+00 -0.74505805969E-08  0.93827000000E+00  0.93827000000E+00 0.  1.
     999902    2    1    2    0    0  0.11253895890E-01 -0.64539846987E-03  0.80630943915E-02  0.10300706998E+01  0.10299774591E+01 0.  0.
     999903    2    3    3    0    0  0.41974207746E-01  0.24955803886E-01  0.12524191498E+00  0.14140313812E+00  0.43871219953E-01 0.  0.
         14    1    1    2    0    0 -0.11253895890E-01  0.64539846987E-03 -0.80630943915E-02  0.13859300237E-01  0.00000000000E+00 0. -1.
     999901    1    3    3    0    0 -0.30720311856E-01 -0.25601202356E-01 -0.11717882058E+00  0.88866756164E+00  0.88000000000E+00 0.  1.
        -11    1    4    4    0    0  0.25889484529E-01 -0.94736024652E-02  0.49516428305E-01  0.56675853288E-01  0.51100000000E-03 0. -1.
         11    1    4    4    0    0  0.16084723217E-01  0.34429406351E-01  0.75725486670E-01  0.84727284832E-01  0.51100000000E-03 0.  1.
</event>
<event>
 8    1  0.2846344E+004  0.1043930E+01  0.7957747E-01            NaN
         13   -1    0    0    0    0  0.00000000000E+00  0.00000000000E+00  0.74505805969E-08  0.10566000000E+00  0.10566000000E+00 0.  1.
     999900   -1    0    0    0    0 -0.00000000000E+00 -0.00000000000E+00 -0.74505805969E-08  0.93827000000E+00  0.93827000000E+00 0.  1.
     999902    2    1    2    0    0  0.14192035421E-02  0.47178263272E-02  0.14393538445E-01  0.10287166515E+01  0.10286041528E+01 0.  0.
     999903    2    3    3    0    0 -0.89452499371E-01 -0.15038764737E-02  0.96956454590E-01  0.14017120465E+00  0.47364556774E-01 0.  0.
         14    1    1    2    0    0 -0.14192035421E-02 -0.47178263272E-02 -0.14393538445E-01  0.15213348511E-01  0.00000000000E+00 0. -1.
     999901    1    3    3    0    0  0.90871702913E-01  0.62217028009E-02 -0.82562916145E-01  0.88854544684E+00  0.88000000000E+00 0.  1.
        -11    1    4    4    0    0 -0.68259333511E-01  0.19870740870E-01  0.69670353169E-01  0.99540957328E-01  0.51100000000E-03 0.  1.
         11    1    4    4    0    0 -0.21193165860E-01 -0.21374617343E-01  0.27286101421E-01  0.40630247323E-01  0.51100000000E-03 0. -1.
</event>
<event>
 8    1  0.2846344E+004  0.1043930E+01  0.7957747E-01            NaN
         13   -1    0    0    0    0  0.00000000000E+00  0.00000000000E+00  0.74505805969E-08  0.10566000000E+00  0.10566000000E+00 0.  1.
     999900   -1    0    0    0    0 -0.00000000000E+00 -0.00000000000E+00 -0.74505805969E-08  0.93827000000E+00  0.93827000000E+00 0.  1.
     999902    2    1    2    0    0 -0.13058399692E-01 -0.35120213000E-02  0.30490165847E-02  0.10300680882E+01  0.10299748122E+01 0.  0.
     999903    2    3    3    0    0  0.23854774724E-01 -0.67447335463E-01 -0.11122810141E+00  0.13961339171E+00  0.44743885201E-01 0.  0.
         14    1    1    2    0    0  0.13058399692E-01  0.35120213000E-02 -0.30490165847E-02  0.13861911783E-01  0.00000000000E+00 0. -1.
     999901    1    3    3    0    0 -0.36913174417E-01  0.63935314163E-01  0.11427711799E+00  0.89045469651E+00  0.88000000000E+00 0. -1.
        -11    1    4    4    0    0 -0.85197865761E-03 -0.17963660181E-01 -0.65258699772E-01  0.67693263857E-01  0.51100000000E-03 0. -1.
         11    1    4    4    0    0  0.24706753382E-01 -0.49483675282E-01 -0.45969401634E-01  0.71920127849E-01  0.51100000000E-03 0.  1.
</event>
<event>
 8    1  0.2846344E+004  0.1043930E+01  0.7957747E-01            NaN
         13   -1    0    0    0    0  0.00000000000E+00  0.00000000000E+00  0.74505805969E-08  0.10566000000E+00  0.10566000000E+00 0. -1.
     999900   -1    0    0    0    0 -0.00000000000E+00 -0.00000000000E+00 -0.74505805969E-08  0.93827000000E+00  0.93827000000E+00 0. -1.
     999902    2    1    2    0    0  0.23862143884E-02 -0.66861823597E-02  0.11120567061E-01  0.10307365901E+01  0.10306521489E+01 0.  0.
     999903    2    3    3    0    0 -0.44263474817E-01 -0.12628630758E+00 -0.52953039792E-02  0.14127053436E+00  0.44964841236E-01 0.  0.
         14    1    1    2    0    0 -0.23862143884E-02  0.66861823597E-02 -0.11120567061E-01  0.13193409924E-01  0.00000000000E+00 0.  1.
     999901    1    3    3    0    0  0.46649689205E-01  0.11960012522E+00  0.16415871040E-01  0.88946605572E+00  0.88000000000E+00 0.  1.
        -11    1    4    4    0    0 -0.47929970214E-01 -0.85432105631E-01  0.76406037453E-02  0.98257654480E-01  0.51100000000E-03 0. -1.
         11    1    4    4    0    0  0.36664953975E-02 -0.40854201952E-01 -0.12935907725E-01  0.43012879876E-01  0.51100000000E-03 0.  1.
</event>
<event>
 8    1  0.2846344E+004  0.1043930E+01  0.7957747E-01            NaN
         13   -1    0    0    0    0  0.00000000000E+00  0.00000000000E+00  0.74505805969E-08  0.10566000000E+00  0.10566000000E+00 0. -1.
     999900   -1    0    0    0    0 -0.00000000000E+00 -0.00000000000E+00 -0.74505805969E-08  0.93827000000E+00  0.93827000000E+00 0. -1.
     999902    2    1    2    0    0 -0.13088713871E-01 -0.22730824194E-02  0.33452775516E-02  0.10302306491E+01  0.10301395624E+01 0.  0.
     999903    2    3    3    0    0 -0.31280739151E-01 -0.10587830029E+00 -0.74888865711E-01  0.14051970041E+00  0.44144590632E-01 0.  0.
         14    1    1    2    0    0  0.13088713871E-01  0.22730824194E-02 -0.33452775516E-02  0.13699350948E-01  0.00000000000E+00 0.  1.
     999901    1    3    3    0    0  0.18192025279E-01  0.10360521787E+00  0.78234143263E-01  0.88971094864E+00  0.88000000000E+00 0. -1.
        -11    1    4    4    0    0 -0.23311705712E-01 -0.42757046958E-01 -0.55862781422E-01  0.74111484650E-01  0.51100000000E-03 0.  1.
         11    1    4    4    0    0 -0.79690334382E-02 -0.63121253336E-01 -0.19026084289E-01  0.66408215764E-01  0.51100000000E-03 0. -1.
</event>
<event>
 8    1  0.2846344E+004  0.1043930E+01  0.7957747E-01            NaN
         13   -1    0    0    0    0  0.00000000000E+00  0.00000000000E+00  0.74505805969E-08  0.10566000000E+00  0.10566000000E+00 0. -1.
     999900   -1    0    0    0    0 -0.00000000000E+00 -0.00000000000E+00 -0.74505805969E-08  0.93827000000E+00  0.93827000000E+00 0. -1.
     999902    2    1    2    0    0 -0.53062208542E-02  0.13962928991E-01 -0.13601808806E-02  0.10289310181E+01  0.10288216904E+01 0.  0.
     999903    2    3    3    0    0 -0.28514425976E-01 -0.38631219664E-02 -0.12879944921E+00  0.13926975898E+00  0.44483383973E-01 0.  0.
         14    1    1    2    0    0  0.53062208542E-02 -0.13962928991E-01  0.13601808806E-02  0.14998981892E-01  0.00000000000E+00 0.  1.
     999901    1    3    3    0    0  0.23208205121E-01  0.17826050958E-01  0.12743926833E+00  0.88966125913E+00  0.88000000000E+00 0.  1.
        -11    1    4    4    0    0 -0.70358556708E-02 -0.72619261629E-02 -0.11015969246E+00  0.11062394768E+00  0.51100000000E-03 0.  1.
         11    1    4    4    0    0 -0.21478570305E-01  0.33988041965E-02 -0.18639756749E-01  0.28645811299E-01  0.51100000000E-03 0. -1.
</event>
<event>
 8    1  0.2846344E+004  0.1043930E+01  0.7957747E-01            NaN
         13   -1    0    0    0    0  0.00000000000E+00  0.00000000000E+00  0.74505805969E-08  0.10566000000E+00  0.10566000000E+00 0. -1.
     999900   -1    0    0    0    0 -0.00000000000E+00 -0.00000000000E+00 -0.74505805969E-08  0.93827000000E+00  0.93827000000E+00 0. -1.
     999902    2    1    2    0    0 -0.12796640558E-01  0.65209553339E-02 -0.49648218768E-02  0.10287337398E+01  0.10286214955E+01 0.  0.
     999903    2    3    3    0    0  0.83822459110E-01 -0.67955196581E-01  0.71472985628E-01  0.13703609707E+00  0.45015451026E-01 0.  0.
         14    1    1    2    0    0  0.12796640558E-01 -0.65209553339E-02  0.49648218768E-02  0.15196260208E-01  0.00000000000E+00 0. -1.
     999901    1    3    3    0    0 -0.96619099669E-01  0.74476151915E-01 -0.76437807505E-01  0.89169764272E+00  0.88000000000E+00 0. -1.
        -11    1    4    4    0    0  0.16543814321E-01  0.20862782202E-02  0.23212111569E-01  0.28585198855E-01  0.51100000000E-03 0. -1.
         11    1    4    4    0    0  0.67278644790E-01 -0.70041474801E-01  0.48260874059E-01  0.10845089821E+00  0.51100000000E-03 0.  1.
</event>
<event>
 8    1  0.2846344E+004  0.1043930E+01  0.7957747E-01            NaN
         13   -1    0    0    0    0  0.00000000000E+00  0.00000000000E+00  0.74505805969E-08  0.10566000000E+00  0.10566000000E+00 0. -1.
     999900   -1    0    0    0    0 -0.00000000000E+00 -0.00000000000E+00 -0.74505805969E-08  0.93827000000E+00  0.93827000000E+00 0.  1.
     999902    2    1    2    0    0  0.97534282841E-03 -0.25405890199E-02  0.13894488921E-01  0.10297715146E+01  0.10296741764E+01 0.  0.
     999903    2    3    3    0    0  0.23033187389E-01  0.12690452511E+00  0.29738952876E-01  0.13988745861E+00  0.45263777394E-01 0.  0.
         14    1    1    2    0    0 -0.97534282841E-03  0.25405890199E-02 -0.13894488921E-01  0.14158485392E-01  0.00000000000E+00 0.  1.
     999901    1    3    3    0    0 -0.22057844561E-01 -0.12944511413E+00 -0.15844463955E-01  0.88988405600E+00  0.88000000000E+00 0. -1.
        -11    1    4    4    0    0 -0.30854719398E-02  0.52012137420E-01  0.30865347840E-01  0.60561649535E-01  0.51100000000E-03 0. -1.
         11    1    4    4    0    0  0.26118659329E-01  0.74892387690E-01 -0.11263949639E-02  0.79325809077E-01  0.51100000000E-03 0.  1.
</event>
<event>
 8    1  0.2846344E+004  0.1043930E+01  0.7957747E-01            NaN
         13   -1    0    0    0    0  0.00000000000E+00  0.00000000000E+00  0.74505805969E-08  0.10566000000E+00  0.10566000000E+00 0.  1.
     999900   -1    0    0    0    0 -0.00000000000E+00 -0.00000000000E+00 -0.74505805969E-08  0.93827000000E+00  0.93827000000E+00 0. -1.
     999902    2    1    2    0    0  0.20280129484E-02 -0.14080871868E-01 -0.15756749611E-02  0.10296168403E+01  0.10295173487E+01 0.  0.
     999903    2    3    3    0    0  0.14727384419E-01  0.31491194057E-01  0.12690811238E+00  0.13902929781E+00  0.44887476045E-01 0.  0.
         14    1    1    2    0    0 -0.20280129484E-02  0.14080871868E-01  0.15756749611E-02  0.14313159702E-01  0.00000000000E+00 0.  1.
     999901    1    3    3    0    0 -0.12699371471E-01 -0.45572065924E-01 -0.12848378734E+00  0.89058754249E+00  0.88000000000E+00 0.  1.
        -11    1    4    4    0    0 -0.11393636760E-01  0.86447746632E-02  0.11038799929E-01  0.18073829491E-01  0.51100000000E-03 0. -1.
         11    1    4    4    0    0  0.26121021179E-01  0.22846419394E-01  0.11586931245E+00  0.12095546832E+00  0.51100000000E-03 0.  1.
</event>
<event>
 8    1  0.2846344E+004  0.1043930E+01  0.7957747E-01            NaN
         13   -1    0    0    0    0  0.00000000000E+00  0.00000000000E+00  0.74505805969E-08  0.10566000000E+00  0.10566000000E+00 0.  1.
     999900   -1    0    0    0    0 -0.00000000000E+00 -0.00000000000E+00 -0.74505805969E-08  0.93827000000E+00  0.93827000000E+00 0.  1.
     999902    2    1    2    0    0 -0.57798631505E-02  0.48577698450E-02 -0.11341312192E-01  0.10303053859E+01  0.10302152970E+01 0.  0.
     999903    2    3    3    0    0 -0.11107823797E+00  0.68426648179E-01  0.26067845912E-01  0.14096394693E+00  0.46590992839E-01 0.  0.
         14    1    1    2    0    0  0.57798631505E-02 -0.48577698450E-02  0.11341312192E-01  0.13624614055E-01  0.00000000000E+00 0. -1.
     999901    1    3    3    0    0  0.10529837482E+00 -0.63568878334E-01 -0.37409158104E-01  0.88934143901E+00  0.88000000000E+00 0.  1.
        -11    1    4    4    0    0 -0.18344476166E-01  0.23784225530E-02  0.19560186916E-01  0.26926543276E-01  0.51100000000E-03 0. -1.
         11    1    4    4    0    0 -0.92733761802E-01  0.66048225626E-01  0.65076589962E-02  0.11403740366E+00  0.51100000000E-03 0.  1.
</event>
<event>
 8    1  0.2846344E+004  0.1043930E+01  0.7957747E-01            NaN
         13   -1    0    0    0    0  0.00000000000E+00  0.00000000000E+00  0.74505805969E-08  0.10566000000E+00  0.10566000000E+00 0.  1.
     999900   -1    0    0    0    0 -0.00000000000E+00 -0.00000000000E+00 -0.74505805969E-08  0.93827000000E+00  0.93827000000E+00 0.  1.
     999902    2    1    2    0    0  0.74083658432E-02 -0.85151201803E-02 -0.99541987936E-02  0.10288808396E+01  0.10287707737E+01 0.  0.
     999903    2    3    3    0    0  0.11969746007E+00  0.40890561963E-01 -0.39409294198E-01  0.13988288414E+00  0.44884393723E-01 0.  0.
         14    1    1    2    0    0 -0.74083658432E-02  0.85151201803E-02  0.99541987936E-02  0.15049160434E-01  0.00000000000E+00 0.  1.
     999901    1    3    3    0    0 -0.11228909423E+00 -0.49405682143E-01  0.29455095404E-01  0.88899795543E+00  0.88000000000E+00 0.  1.
        -11    1    4    4    0    0  0.13043880903E-01  0.51467942195E-02 -0.21948892619E-01  0.26050860407E-01  0.51100000000E-03 0. -1.
         11    1    4    4    0    0  0.10665357917E+00  0.35743767743E-01 -0.17460401579E-01  0.11383202373E+00  0.51100000000E-03 0.  1.
</event>
<event>
 8    1  0.2846344E+004  0.1043930E+01  0.7957747E-01            NaN
         13   -1    0    0    0    0  0.00000000000E+00  0.00000000000E+00  0.74505805969E-08  0.10566000000E+00  0.10566000000E+00 0.  1.
     999900   -1    0    0    0    0 -0.00000000000E+00 -0.00000000000E+00 -0.74505805969E-08  0.93827000000E+00  0.93827000000E+00 0.  1.
     999902    2    1    2    0    0  0.71067784262E-02  0.11709203810E-01 -0.23041934169E-02  0.10300403974E+01  0.10299467458E+01 0.  0.
     999903    2    3    3    0    0 -0.89391806951E-01  0.98524594847E-01  0.62909659547E-02  0.14047715294E+00  0.44679562516E-01 0.  0.
         14    1    1    2    0    0 -0.71067784262E-02 -0.11709203810E-01  0.23041934169E-02  0.13889602614E-01  0.00000000000E+00 0.  1.
     999901    1    3    3    0    0  0.96498585377E-01 -0.86815391037E-01 -0.85951593716E-02  0.88956324444E+00  0.88000000000E+00 0.  1.
        -11    1    4    4    0    0 -0.22632236857E-02  0.23933179580E-01 -0.69198651962E-02  0.25021289367E-01  0.51100000000E-03 0. -1.
         11    1    4    4    0    0 -0.87128583265E-01  0.74591415267E-01  0.13210831151E-01  0.11545586358E+00  0.51100000000E-03 0.  1.
</event>
<event>
 8    1  0.2846344E+004  0.1043930E+01  0.7957747E-01            NaN
         13   -1    0    0    0    0  0.00000000000E+00  0.00000000000E+00  0.74505805969E-08  0.10566000000E+00  0.10566000000E+00 0.  1.
     999900   -1    0    0    0    0 -0.00000000000E+00 -0.00000000000E+00 -0.74505805969E-08  0.93827000000E+00  0.93827000000E+00 0. -1.
     999902    2    1    2    0    0 -0.12999609061E-01 -0.21267045118E-02 -0.25323772208E-02  0.10305163636E+01  0.10304290611E+01 0.  0.
     999903    2    3    3    0    0  0.10028854767E+00 -0.83204779166E-01  0.17730286129E-01  0.13932702557E+00  0.46009009320E-01 0.  0.
         14    1    1    2    0    0  0.12999609061E-01  0.21267045118E-02  0.25323772208E-02  0.13413636427E-01  0.00000000000E+00 0. -1.
     999901    1    3    3    0    0 -0.11328815673E+00  0.81078074654E-01 -0.20262663350E-01  0.89118933800E+00  0.88000000000E+00 0. -1.
        -11    1    4    4    0    0  0.53174971783E-01 -0.16951878520E-01 -0.13082209419E-02  0.55829350457E-01  0.51100000000E-03 0.  1.
         11    1    4    4    0    0  0.47113575884E-01 -0.66252900646E-01  0.19038507071E-01  0.83497675112E-01  0.51100000000E-03 0. -1.
</event>
<event>
 8    1  0.2846344E+004  0.1043930E+01  0.7957747E-01            NaN
         13   -1    0    0    0    0  0.00000000000E+00  0.00000000000E+00  0.74505805969E-08  0.10566000000E+00  0.10566000000E+00 0. -1.
     999900   -1    0    0    0    0 -0.00000000000E+00 -0.00000000000E+00 -0.74505805969E-08  0.93827000000E+00  0.93827000000E+00 0.  1.
     999902    2    1    2    0    0  0.30425100870E-02  0.37637830362E-02  0.12514518712E-01  0.10305122465E+01  0.10304248901E+01 0.  0.
     999903    2    3    3    0    0 -0.88733066651E-01 -0.83361616879E-01 -0.50636160376E-01  0.13922015068E+00  0.44671168922E-01 0.  0.
         14    1    1    2    0    0 -0.30425100870E-02 -0.37637830362E-02 -0.12514518712E-01  0.13417753499E-01  0.00000000000E+00 0.  1.
     999901    1    3    3    0    0  0.91775576738E-01  0.87125399915E-01  0.63150679089E-01  0.89129209582E+00  0.88000000000E+00 0.  1.
        -11    1    4    4    0    0 -0.15332900029E-01 -0.42163395457E-01 -0.24286115367E-01  0.51018881410E-01  0.51100000000E-03 0. -1.
         11    1    4    4    0    0 -0.73400166622E-01 -0.41198221422E-01 -0.26350045009E-01  0.88201269273E-01  0.51100000000E-03 0.  1.
</event>
<event>
 8    1  0.2846344E+004  0.1043930E+01  0.7957747E-01            NaN
         13   -1    0    0    0    0  0.00000000000E+00  0.00000000000E+00  0.74505805969E-08  0.10566000000E+00  0.10566000000E+00 0.  1.
     999900   -1    0    0    0    0 -0.00000000000E+00 -0.00000000000E+00 -0.74505805969E-08  0.93827000000E+00  0.93827000000E+00 0.  1.
     999902    2    1    2    0    0  0.91036585020E-02 -0.72022463559E-03 -0.10452580975E-01  0.10300500947E+01  0.10299565747E+01 0.  0.
     999903    2    3    3    0    0 -0.33903733654E-01  0.92647907896E-01  0.86587430557E-01  0.13876786793E+00  0.45011554578E-01 0.  0.
         14    1    1    2    0    0 -0.91036585020E-02  0.72022463559E-03  0.10452580975E-01  0.13879905284E-01  0.00000000000E+00 0.  1.
     999901    1    3    3    0    0  0.43007392156E-01 -0.93368132531E-01 -0.97040011532E-01  0.89128222679E+00  0.88000000000E+00 0.  1.
        -11    1    4    4    0    0 -0.24572343065E-01  0.93257004363E-01  0.68156911851E-01  0.11809443112E+00  0.51100000000E-03 0. -1.
         11    1    4    4    0    0 -0.93313905888E-02 -0.60909646765E-03  0.18430518705E-01  0.20673436811E-01  0.51100000000E-03 0.  1.
</event>
<event>
 7    1  0.2846344E+004  0.1043930E+01  0.7957747E-01            NaN
         13   -1    0    0    0    0  0.00000000000E+00  0.00000000000E+00  0.74505805969E-08  0.10566000000E+00  0.10566000000E+00 0. -1.
     999900   -1    0    0    0    0 -0.00000000000E+00 -0.00000000000E+00 -0.74505805969E-08  0.93827000000E+00  0.93827000000E+00 0. -1.
     999903    2    1    2    0    0  0.34033406002E-01 -0.60743175980E-01 -0.57879990229E-01  0.10134335595E+00  0.45523360748E-01 0.  0.
         14    1    1    2    0    0  0.45341538831E-01 -0.12361505681E-01 -0.22982727509E-01  0.52315081286E-01  0.00000000000E+00 0.  1.
     999901    1    1    2    0    0 -0.79374944833E-01  0.73104681661E-01  0.80862717738E-01  0.89027156276E+00  0.88000000000E+00 0. -1.
        -11    1    3    3    0    0  0.24994451062E-01 -0.51225792935E-01 -0.64958845987E-01  0.86421740544E-01  0.51100000000E-03 0. -1.
         11    1    3    3    0    0  0.90389549402E-02 -0.95173830457E-02  0.70788557582E-02  0.14921615405E-01  0.51100000000E-03 0.  1.
</event>
<event>
 8    1  0.2846344E+004  0.1043930E+01  0.7957747E-01            NaN
         13   -1    0    0    0    0  0.00000000000E+00  0.00000000000E+00  0.74505805969E-08  0.10566000000E+00  0.10566000000E+00 0.  1.
     999900   -1    0    0    0    0 -0.00000000000E+00 -0.00000000000E+00 -0.74505805969E-08  0.93827000000E+00  0.93827000000E+00 0. -1.
     999902    2    1    2    0    0 -0.17627572017E-01  0.34844278774E-02  0.19788463852E-02  0.10258527113E+01  0.10256934225E+01 0.  0.
     999903    2    3    3    0    0  0.16667621668E-01 -0.92866651457E-01  0.84777627942E-01  0.13606884486E+00  0.49248957109E-01 0.  0.
         14    1    1    2    0    0  0.17627572017E-01 -0.34844278774E-02 -0.19788463852E-02  0.18077288676E-01  0.00000000000E+00 0. -1.
     999901    1    3    3    0    0 -0.34295193685E-01  0.96351079334E-01 -0.82798781557E-01  0.88978386647E+00  0.88000000000E+00 0. -1.
        -11    1    4    4    0    0 -0.28953623731E-02 -0.48786448923E-01  0.70474308016E-01  0.85763569965E-01  0.51100000000E-03 0.  1.
         11    1    4    4    0    0  0.19562984041E-01 -0.44080202534E-01  0.14303319926E-01  0.50305274892E-01  0.51100000000E-03 0. -1.
</event>
<event>
 8    1  0.2846344E+004  0.1043930E+01  0.7957747E-01            NaN
         13   -1    0    0    0    0  0.00000000000E+00  0.00000000000E+00  0.74505805969E-08  0.10566000000E+00  0.10566000000E+00 0. -1.
     999900   -1    0    0    0    0 -0.00000000000E+00 -0.00000000000E+00 -0.74505805969E-08  0.93827000000E+00  0.93827000000E+00 0.  1.
     999902    2    1    2    0    0 -0.46500316023E-02 -0.15939245961E-02  0.12772952252E-01  0.10302438136E+01  0.10301529031E+01 0.  0.
     999903    2    3    3    0    0  0.16718087081E-02  0.31605432724E-01  0.13015616194E+00  0.14180643204E+00  0.46548247609E-01 0.  0.
         14    1    1    2    0    0  0.46500316023E-02  0.15939245961E-02 -0.12772952252E-01  0.13686186421E-01  0.00000000000E+00 0. -1.
     999901    1    3    3    0    0 -0.63218403104E-02 -0.33199357320E-01 -0.11738320969E+00  0.88843738153E+00  0.88000000000E+00 0.  1.
        -11    1    4    4    0    0 -0.15234729174E-01  0.18942844073E-02  0.77621862052E-01  0.79127112142E-01  0.51100000000E-03 0. -1.
         11    1    4    4    0    0  0.16906537882E-01  0.29711148317E-01  0.52534299890E-01  0.62679319902E-01  0.51100000000E-03 0.  1.
</event>
<event>
 8    1  0.2846344E+004  0.1043930E+01  0.7957747E-01            NaN
         13   -1    0    0    0    0  0.00000000000E+00  0.00000000000E+00  0.74505805969E-08  0.10566000000E+00  0.10566000000E+00 0.  1.
     999900   -1    0    0    0    0 -0.00000000000E+00 -0.00000000000E+00 -0.74505805969E-08  0.93827000000E+00  0.93827000000E+00 0. -1.
     999902    2    1    2    0    0 -0.75193019880E-02  0.66805516131E-02  0.97474646382E-02  0.10299234751E+01  0.10298282293E+01 0.  0.
     999903    2    3    3    0    0  0.57168465423E-01 -0.11030033934E+00 -0.40560936973E-01  0.13840792766E+00  0.45575942494E-01 0.  0.
         14    1    1    2    0    0  0.75193019880E-02 -0.66805516131E-02 -0.97474646382E-02  0.14006524876E-01  0.00000000000E+00 0.  1.
     999901    1    3    3    0    0 -0.64687767411E-01  0.11698089095E+00  0.50308401611E-01  0.89151554747E+00  0.88000000000E+00 0.  1.
        -11    1    4    4    0    0  0.42089402576E-01 -0.36191344898E-01 -0.80730366801E-02  0.56096045288E-01  0.51100000000E-03 0.  1.
         11    1    4    4    0    0  0.15079062846E-01 -0.74108994437E-01 -0.32487900292E-01  0.82311882370E-01  0.51100000000E-03 0. -1.
</event>
<event>
 8    1  0.2846344E+004  0.1043930E+01  0.7957747E-01            NaN
         13   -1    0    0    0    0  0.00000000000E+00  0.00000000000E+00  0.74505805969E-08  0.10566000000E+00  0.10566000000E+00 0. -1.
     999900   -1    0    0    0    0 -0.00000000000E+00 -0.00000000000E+00 -0.74505805969E-08  0.93827000000E+00  0.93827000000E+00 0. -1.
     999902    2    1    2    0    0 -0.11549866466E-01 -0.69663232349E-02 -0.38014926517E-02  0.10299164201E+01  0.10298210777E+01 0.  0.
     999903    2    3    3    0    0  0.12519329661E+00  0.13955690320E-01  0.34811739216E-01  0.13827332730E+00  0.45161189610E-01 0.  0.
         14    1    1    2    0    0  0.11549866466E-01  0.69663232349E-02  0.38014926517E-02  0.14013579884E-01  0.00000000000E+00 0.  1.
     999901    1    3    3    0    0 -0.13674316307E+00 -0.20922013555E-01 -0.38613231867E-01  0.89164309282E+00  0.88000000000E+00 0.  1.
        -11    1    4    4    0    0  0.78867678291E-02  0.14069996941E-01  0.76646355828E-02  0.17865432554E-01  0.51100000000E-03 0. -1.
         11    1    4    4    0    0  0.11730652878E+00 -0.11430662108E-03  0.27147103633E-01  0.12040789474E+00  0.51100000000E-03 0.  1.
</event>
<event>
 8    1  0.2846344E+004  0.1043930E+01  0.7957747E-01            NaN
         13   -1    0    0    0    0  0.00000000000E+00  0.00000000000E+00  0.74505805969E-08  0.10566000000E+00  0.10566000000E+00 0.  1.
     999900   -1    0    0    0    0 -0.00000000000E+00 -0.00000000000E+00 -0.74505805969E-08  0.93827000000E+00  0.93827000000E+00 0. -1.
     999902    2    1    2    0    0 -0.17981884689E-01 -0.12400240870E-01  0.35474495940E-02  0.10218008665E+01  0.10215612132E+01 0.  0.
     999903    2    3    3    0    0  0.11903178736E+00 -0.21042801006E-01 -0.19963031373E-01  0.13084621957E+00  0.45943929739E-01 0.  0.
         14    1    1    2    0    0  0.17981884689E-01  0.12400240870E-01 -0.35474495940E-02  0.22129133495E-01  0.00000000000E+00 0.  1.
     999901    1    3    3    0    0 -0.13701367204E+00  0.86425601357E-02  0.23510480967E-01  0.89095464693E+00  0.88000000000E+00 0. -1.
        -11    1    4    4    0    0  0.90739449224E-01  0.47850178550E-02 -0.16770912937E-01  0.92401670348E-01  0.51100000000E-03 0. -1.
         11    1    4    4    0    0  0.28292338132E-01 -0.25827818861E-01 -0.31921184359E-02  0.38444549226E-01  0.51100000000E-03 0.  1.
</event>
<event>
 7    1  0.2846344E+004  0.1043930E+01  0.7957747E-01            NaN
         13   -1    0    0    0    0  0.00000000000E+00  0.00000000000E+00  0.74505805969E-08  0.10566000000E+00  0.10566000000E+00 0. -1.
     999900   -1    0    0    0    0 -0.00000000000E+00 -0.00000000000E+00 -0.74505805969E-08  0.93827000000E+00  0.93827000000E+00 0. -1.
     999903    2    1    2    0    0 -0.72423194912E-01  0.83361817701E-01 -0.16957760347E-01  0.11990803979E+00  0.43543777495E-01 0.  0.
         14    1    1    2    0    0  0.38007043056E-02  0.25943197751E-01 -0.21306601350E-01  0.33785590477E-01  0.00000000000E+00 0.  1.
     999901    1    1    2    0    0  0.68622490607E-01 -0.10930501545E+00  0.38264361697E-01  0.89023636973E+00  0.88000000000E+00 0. -1.
        -11    1    3    3    0    0 -0.42696941822E-01  0.48548464696E-01 -0.31436507076E-01  0.71892262195E-01  0.51100000000E-03 0.  1.
         11    1    3    3    0    0 -0.29726253090E-01  0.34813353005E-01  0.14478746729E-01  0.48015777595E-01  0.51100000000E-03 0. -1.
</event>
<event>
 8    1  0.2846344E+004  0.1043930E+01  0.7957747E-01            NaN
         13   -1    0    0    0    0  0.00000000000E+00  0.00000000000E+00  0.74505805969E-08  0.10566000000E+00  0.10566000000E+00 0.  1.
     999900   -1    0    0    0    0 -0.00000000000E+00 -0.00000000000E+00 -0.74505805969E-08  0.93827000000E+00  0.93827000000E+00 0.  1.
     999902    2    1    2    0    0 -0.15848649547E-02 -0.10129206353E-01 -0.86879648639E-02  0.10304914974E+01  0.10304038688E+01 0.  0.
     999903    2    3    3    0    0  0.64628691354E-01 -0.11593125489E+00 -0.80684497505E-02  0.14168404227E+00  0.48911597261E-01 0.  0.
         14    1    1    2    0    0  0.15848649547E-02  0.10129206353E-01  0.86879648639E-02  0.13438502586E-01  0.00000000000E+00 0.  1.
     999901    1    3    3    0    0 -0.66213556309E-01  0.10580204854E+00 -0.61951511346E-03  0.88880745514E+00  0.88000000000E+00 0. -1.
        -11    1    4    4    0    0  0.56082845050E-01 -0.50894748350E-01 -0.13968787109E-02  0.75748091129E-01  0.51100000000E-03 0.  1.
         11    1    4    4    0    0  0.85458463043E-02 -0.65036506542E-01 -0.66715710396E-02  0.65935951145E-01  0.51100000000E-03 0. -1.
</event>
<event>
 8    1  0.2846344E+004  0.1043930E+01  0.7957747E-01            NaN
         13   -1    0    0    0    0  0.00000000000E+00  0.00000000000E+00  0.74505805969E-08  0.10566000000E+00  0.10566000000E+00 0. -1.
     999900   -1    0    0    0    0 -0.00000000000E+00 -0.00000000000E+00 -0.74505805969E-08  0.93827000000E+00  0.93827000000E+00 0.  1.
     999902    2    1    2    0    0  0.63400587845E-02  0.63950312230E-02 -0.97723081752E-02  0.10306412538E+01  0.10305555799E+01 0.  0.
     999903    2    3    3    0    0 -0.89184776231E-01  0.30820342531E-01  0.92208399180E-01  0.13928181188E+00  0.44645452370E-01 0.  0.
         14    1    1    2    0    0 -0.63400587845E-02 -0.63950312230E-02  0.97723081752E-02  0.13288746247E-01  0.00000000000E+00 0. -1.
     999901    1    3    3    0    0  0.95524835015E-01 -0.24425311308E-01 -0.10198070736E+00  0.89135944187E+00  0.88000000000E+00 0.  1.
        -11    1    4    4    0    0 -0.68929606362E-01  0.21922126396E-01  0.40182797749E-01  0.82745323824E-01  0.51100000000E-03 0. -1.
         11    1    4    4    0    0 -0.20255169869E-01  0.88982161350E-02  0.52025601432E-01  0.56536488060E-01  0.51100000000E-03 0.  1.
</event>
<event>
 8    1  0.2846344E+004  0.1043930E+01  0.7957747E-01            NaN
         13   -1    0    0    0    0  0.00000000000E+00  0.00000000000E+00  0.74505805969E-08  0.10566000000E+00  0.10566000000E+00 0.  1.
     999900   -1    0    0    0    0 -0.00000000000E+00 -0.00000000000E+00 -0.74505805969E-08  0.93827000000E+00  0.93827000000E+00 0.  1.
     999902    2    1    2    0    0 -0.22654408584E-03 -0.31653766716E-03 -0.14163674051E-01  0.10297609781E+01  0.10296634940E+01 0.  0.
     999903    2    3    3    0    0 -0.60470414116E-02 -0.78257173129E-01 -0.10880730463E+00  0.14124196445E+00  0.44153268574E-01 0.  0.
         14    1    1    2    0    0  0.22654408584E-03  0.31653766716E-03  0.14163674051E-01  0.14169021877E-01  0.00000000000E+00 0.  1.
     999901    1    3    3    0    0  0.58204973257E-02  0.77940635462E-01  0.94643630578E-01  0.88851901367E+00  0.88000000000E+00 0. -1.
        -11    1    4    4    0    0  0.13885444406E-01 -0.62393793729E-01 -0.85147158875E-01  0.10647107987E+00  0.51100000000E-03 0. -1.
         11    1    4    4    0    0 -0.19932485817E-01 -0.15863379400E-01 -0.23660145753E-01  0.34770884587E-01  0.51100000000E-03 0.  1.
</event>
<event>
 8    1  0.2846344E+004  0.1043930E+01  0.7957747E-01            NaN
         13   -1    0    0    0    0  0.00000000000E+00  0.00000000000E+00  0.74505805969E-08  0.10566000000E+00  0.10566000000E+00 0.  1.
     999900   -1    0    0    0    0 -0.00000000000E+00 -0.00000000000E+00 -0.74505805969E-08  0.93827000000E+00  0.93827000000E+00 0.  1.
     999902    2    1    2    0    0  0.75030553292E-02  0.11924487888E-01 -0.11420063047E-02  0.10297951696E+01  0.10296981587E+01 0.  0.
     999903    2    3    3    0    0 -0.11877115444E+00  0.42745612008E-01 -0.39233057763E-01  0.13943229646E+00  0.44366180845E-01 0.  0.
         14    1    1    2    0    0 -0.75030553292E-02 -0.11924487888E-01  0.11420063047E-02  0.14134830351E-01  0.00000000000E+00 0.  1.
     999901    1    3    3    0    0  0.12627420977E+00 -0.30821124120E-01  0.38091051459E-01  0.89036287318E+00  0.88000000000E+00 0. -1.
        -11    1    4    4    0    0 -0.64636697725E-01  0.14725386722E-02 -0.27906908500E-01  0.70421074445E-01  0.51100000000E-03 0. -1.
         11    1    4    4    0    0 -0.54134456715E-01  0.41273073336E-01 -0.11326149263E-01  0.69011222019E-01  0.51100000000E-03 0.  1.
</event>
<event>
 8    1  0.2846344E+004  0.1043930E+01  0.7957747E-01            NaN
         13   -1    0    0    0    0  0.00000000000E+00  0.00000000000E+00  0.74505805969E-08  0.10566000000E+00  0.10566000000E+00 0.  1.
     999900   -1    0    0    0    0 -0.00000000000E+00 -0.00000000000E+00 -0.74505805969E-08  0.93827000000E+00  0.93827000000E+00 0.  1.
     999902    2    1    2    0    0  0.85555048698E-02 -0.11620156945E-01  0.45901695909E-02  0.10287875310E+01  0.10286760858E+01 0.  0.
     999903    2    3    3    0    0  0.88696321052E-01  0.83745647630E-01  0.48693173418E-01  0.13892110166E+00  0.45251259456E-01 0.  0.
         14    1    1    2    0    0 -0.85555048698E-02  0.11620156945E-01 -0.45901695909E-02  0.15142469016E-01  0.00000000000E+00 0. -1.
     999901    1    3    3    0    0 -0.80140816182E-01 -0.95365804576E-01 -0.44103003827E-01  0.88986642933E+00  0.88000000000E+00 0.  1.
        -11    1    4    4    0    0  0.12767009740E-01  0.21024546691E-02 -0.65268009524E-02  0.14500934625E-01  0.51100000000E-03 0.  1.
         11    1    4    4    0    0  0.75929311312E-01  0.81643192961E-01  0.55219974370E-01  0.12442016703E+00  0.51100000000E-03 0. -1.
</event>
<event>
 8    1  0.2846344E+004  0.1043930E+01  0.7957747E-01            NaN
         13   -1    0    0    0    0  0.00000000000E+00  0.00000000000E+00  0.74505805969E-08  0.10566000000E+00  0.10566000000E+00 0.  1.
     999900   -1    0    0    0    0 -0.00000000000E+00 -0.00000000000E+00 -0.74505805969E-08  0.93827000000E+00  0.93827000000E+00 0.  1.
     999902    2    1    2    0    0  0.37560803493E-02  0.90533161971E-02 -0.86930656235E-02  0.10308288526E+01  0.10307455958E+01 0.  0.
     999903    2    3    3    0    0 -0.43137881595E-01 -0.71146224683E-01  0.10192424323E+00  0.13905130238E+00  0.44989456772E-01 0.  0.
         14    1    1    2    0    0 -0.37560803493E-02 -0.90533161971E-02  0.86930656235E-02  0.13101147419E-01  0.00000000000E+00 0.  1.
     999901    1    3    3    0    0  0.46893961945E-01  0.80199540880E-01 -0.11061730885E+00  0.89177755020E+00  0.88000000000E+00 0.  1.
        -11    1    4    4    0    0 -0.16912390185E-01 -0.37580146213E-01  0.18078441067E-01  0.45004305166E-01  0.51100000000E-03 0.  1.
         11    1    4    4    0    0 -0.26225491411E-01 -0.33566078470E-01  0.83845802163E-01  0.94046997214E-01  0.51100000000E-03 0. -1.
</event>
<event>
 8    1  0.2846344E+004  0.1043930E+01  0.7957747E-01            NaN
         13   -1    0    0    0    0  0.00000000000E+00  0.00000000000E+00  0.74505805969E-08  0.10566000000E+00  0.10566000000E+00 0. -1.
     999900   -1    0    0    0    0 -0.00000000000E+00 -0.00000000000E+00 -0.74505805969E-08  0.93827000000E+00  0.93827000000E+00 0. -1.
     999902    2    1    2    0    0 -0.18055333354E-02  0.28685030969E-02 -0.13625129641E-01  0.10298896147E+01  0.10297939047E+01 0.  0.
     999903    2    3    3    0    0 -0.24668935202E-01 -0.12868054118E+00 -0.19324024327E-01  0.13979952739E+00  0.44757702109E-01 0.  0.
         14    1    1    2    0    0  0.18055333354E-02 -0.28685030969E-02  0.13625129641E-01  0.14040385265E-01  0.00000000000E+00 0. -1.
     999901    1    3    3    0    0  0.22863401866E-01  0.13154904428E+00  0.56988946860E-02  0.89009008735E+00  0.88000000000E+00 0. -1.
        -11    1    4    4    0    0 -0.70995154350E-02 -0.11067704571E+00 -0.53868926566E-02  0.11103644131E+00  0.51100000000E-03 0.  1.
         11    1    4    4    0    0 -0.17569419767E-01 -0.18003495477E-01 -0.13937131671E-01  0.28763086075E-01  0.51100000000E-03 0. -1.
</event>
<event>
 8    1  0.2846344E+004  0.1043930E+01  0.7957747E-01            NaN
         13   -1    0    0    0    0  0.00000000000E+00  0.00000000000E+00  0.74505805969E-08  0.10566000000E+00  0.10566000000E+00 0.  1.
     999900   -1    0    0    0    0 -0.00000000000E+00 -0.00000000000E+00 -0.74505805969E-08  0.93827000000E+00  0.93827000000E+00 0. -1.
     999902    2    1    2    0    0  0.10398056862E-01  0.66500297448E-02 -0.45901055423E-02  0.10307614180E+01  0.10306772964E+01 0.  0.
     999903    2    3    3    0    0  0.73048839623E-01  0.58652394514E-01 -0.97164222791E-01  0.14216739729E+00  0.44659224226E-01 0.  0.
         14    1    1    2    0    0 -0.10398056862E-01 -0.66500297448E-02  0.45901055423E-02  0.13168581966E-01  0.00000000000E+00 0.  1.
     999901    1    3    3    0    0 -0.62650782761E-01 -0.52002364769E-01  0.92574117249E-01  0.88859402075E+00  0.88000000000E+00 0.  1.
        -11    1    4    4    0    0  0.19939993671E-01  0.44422180890E-01 -0.42490239446E-01  0.64626736509E-01  0.51100000000E-03 0.  1.
         11    1    4    4    0    0  0.53108845952E-01  0.14230213624E-01 -0.54673983345E-01  0.77540660778E-01  0.51100000000E-03 0. -1.
</event>
<event>
 8    1  0.2846344E+004  0.1043930E+01  0.7957747E-01            NaN
         13   -1    0    0    0    0  0.00000000000E+00  0.00000000000E+00  0.74505805969E-08  0.10566000000E+00  0.10566000000E+00 0. -1.
     999900   -1    0    0    0    0 -0.00000000000E+00 -0.00000000000E+00 -0.74505805969E-08  0.93827000000E+00  0.93827000000E+00 0.  1.
     999902    2    1    2    0    0 -0.58278590146E-02  0.12355062225E-01 -0.36957384259E-02  0.10297783222E+01  0.10296810782E+01 0.  0.
     999903    2    3    3    0    0 -0.12043123715E+00  0.34463260985E-01 -0.47199514923E-01  0.14100653744E+00  0.44313092365E-01 0.  0.
         14    1    1    2    0    0  0.58278590146E-02 -0.12355062225E-01  0.36957384259E-02  0.14151677843E-01  0.00000000000E+00 0. -1.
     999901    1    3    3    0    0  0.11460337813E+00 -0.22108198760E-01  0.43503776497E-01  0.88877178471E+00  0.88000000000E+00 0. -1.
        -11    1    4    4    0    0 -0.72207755081E-01  0.67973931708E-02 -0.45020680248E-01  0.85365609110E-01  0.51100000000E-03 0. -1.
         11    1    4    4    0    0 -0.48223482065E-01  0.27665867814E-01 -0.21788346747E-02  0.55640928334E-01  0.51100000000E-03 0.  1.
</event>
<event>
 8    1  0.2846344E+004  0.1043930E+01  0.7957747E-01            NaN
         13   -1    0    0    0    0  0.00000000000E+00  0.00000000000E+00  0.74505805969E-08  0.10566000000E+00  0.10566000000E+00 0. -1.
     999900   -1    0    0    0    0 -0.00000000000E+00 -0.00000000000E+00 -0.74505805969E-08  0.93827000000E+00  0.93827000000E+00 0.  1.
     999902    2    1    2    0    0  0.90032314562E-02 -0.10239769246E-01  0.17954947689E-02  0.10301773693E+01  0.10300855679E+01 0.  0.
     999903    2    3    3    0    0 -0.36456559361E-01  0.11330474568E+00  0.52812327446E-01  0.13892400631E+00  0.48411687476E-01 0.  0.
         14    1    1    2    0    0 -0.90032314562E-02  0.10239769246E-01 -0.17954947689E-02  0.13752630742E-01  0.00000000000E+00 0.  1.
     999901    1    3    3    0    0  0.45459790817E-01 -0.12354451493E+00 -0.51016832677E-01  0.89125336295E+00  0.88000000000E+00 0.  1.
        -11    1    4    4    0    0 -0.44943349059E-01  0.67191640867E-01  0.26040995692E-01  0.84929475476E-01  0.51100000000E-03 0.  1.
         11    1    4    4    0    0  0.84867896976E-02  0.46113104815E-01  0.26771331753E-01  0.53994530833E-01  0.51100000000E-03 0. -1.
</event>
<event>
 8    1  0.2846344E+004  0.1043930E+01  0.7957747E-01            NaN
         13   -1    0    0    0    0  0.00000000000E+00  0.00000000000E+00  0.74505805969E-08  0.10566000000E+00  0.10566000000E+00 0.  1.
     999900   -1    0    0    0    0 -0.00000000000E+00 -0.00000000000E+00 -0.74505805969E-08  0.93827000000E+00  0.93827000000E+00 0. -1.
     999902    2    1    2    0    0  0.97117025305E-02 -0.21872834265E-02 -0.10129471719E-01  0.10297276209E+01  0.10296296740E+01 0.  0.
     999903    2    3    3    0    0 -0.82590482982E-01  0.28670643631E-01  0.95461588390E-01  0.13808790830E+00  0.48084944365E-01 0.  0.
         14    1    1    2    0    0 -0.97117025305E-02  0.21872834265E-02  0.10129471719E-01  0.14202379101E-01  0.00000000000E+00 0.  1.
     999901    1    3    3    0    0  0.92302185512E-01 -0.30857927058E-01 -0.10559106011E+00  0.89163971260E+00  0.88000000000E+00 0. -1.
        -11    1    4    4    0    0 -0.42742521393E-01  0.35469166314E-01  0.36020977098E-01  0.66202392752E-01  0.51100000000E-03 0. -1.
         11    1    4    4    0    0 -0.39847961589E-01 -0.67985226825E-02  0.59440611292E-01  0.71885515545E-01  0.51100000000E-03 0.  1.
</event>
<event>
 8    1  0.2846344E+004  0.1043930E+01  0.7957747E-01            NaN
         13   -1    0    0    0    0  0.00000000000E+00  0.00000000000E+00  0.74505805969E-08  0.10566000000E+00  0.10566000000E+00 0.  1.
     999900   -1    0    0    0    0 -0.00000000000E+00 -0.00000000000E+00 -0.74505805969E-08  0.93827000000E+00  0.93827000000E+00 0.  1.
     999902    2    1    2    0    0  0.22243516671E-02  0.33624362559E-02 -0.13672540994E-01  0.10296754535E+01  0.10295767808E+01 0.  0.
     999903    2    3    3    0    0  0.34064111977E-01 -0.12719292141E+00  0.43767919557E-02  0.13929112630E+00  0.45215689499E-01 0.  0.
         14    1    1    2    0    0 -0.22243516671E-02 -0.33624362559E-02  0.13672540994E-01  0.14254546473E-01  0.00000000000E+00 0.  1.
     999901    1    3    3    0    0 -0.31839760310E-01  0.13055535766E+00 -0.18049332950E-01  0.89038432723E+00  0.88000000000E+00 0.  1.
        -11    1    4    4    0    0  0.36386951345E-01 -0.96944711241E-01 -0.12940970546E-01  0.10435524474E+00  0.51100000000E-03 0. -1.
         11    1    4    4    0    0 -0.23228393682E-02 -0.30248210167E-01  0.17317762502E-01  0.34935881556E-01  0.51100000000E-03 0.  1.
</event>
<event>
 8    1  0.2846344E+004  0.1043930E+01  0.7957747E-01            NaN
         13   -1    0    0    0    0  0.00000000000E+00  0.00000000000E+00  0.74505805969E-08  0.10566000000E+00  0.10566000000E+00 0. -1.
     999900   -1    0    0    0    0 -0.00000000000E+00 -0.00000000000E+00 -0.74505805969E-08  0.93827000000E+00  0.93827000000E+00 0. -1.
     999902    2    1    2    0    0  0.58541567272E-02 -0.16320734930E-01  0.22333506708E-02  0.10264478550E+01  0.10262989689E+01 0.  0.
     999903    2    3    3    0    0 -0.44430170947E-01  0.41640702169E-01  0.11223466221E+00  0.13628588637E+00  0.47636490805E-01 0.  0.
         14    1    1    2    0    0 -0.58541567272E-02  0.16320734930E-01 -0.22333506708E-02  0.17482145030E-01  0.00000000000E+00 0.  1.
     999901    1    3    3    0    0  0.50284327674E-01 -0.57961437099E-01 -0.11000131153E+00  0.89016196860E+00  0.88000000000E+00 0. -1.
        -11    1    4    4    0    0  0.81908005229E-02  0.17636260329E-01  0.26898379242E-01  0.33195042077E-01  0.51100000000E-03 0.  1.
         11    1    4    4    0    0 -0.52620971470E-01  0.24004441840E-01  0.85336282963E-01  0.10309084429E+00  0.51100000000E-03 0. -1.
</event>
<event>
 7    1  0.2846344E+004  0.1043930E+01  0.7957747E-01            NaN
         13   -1    0    0    0    0  0.00000000000E+00  0.00000000000E+00  0.74505805969E-08  0.10566000000E+00  0.10566000000E+00 0.  1.
     999900   -1    0    0    0    0 -0.00000000000E+00 -0.00000000000E+00 -0.74505805969E-08  0.93827000000E+00  0.93827000000E+00 0. -1.
     999903    2    1    2    0    0  0.47954718697E-01  0.97004441449E-01  0.27277656295E-01  0.12057795949E+00  0.45666804976E-01 0.  0.
         14    1    1    2    0    0 -0.30952413568E-01 -0.12529726823E-01  0.18095045605E-01  0.37979950440E-01  0.00000000000E+00 0. -1.
     999901    1    1    2    0    0 -0.17002305129E-01 -0.84474714625E-01 -0.45372701900E-01  0.88537209007E+00  0.88000000000E+00 0. -1.
        -11    1    3    3    0    0 -0.28689668765E-02  0.10351380066E-01  0.16290280827E-01  0.19519641662E-01  0.51100000000E-03 0.  1.
         11    1    3    3    0    0  0.50823685573E-01  0.86653061383E-01  0.10987375468E-01  0.10105831783E+00  0.51100000000E-03 0. -1.
</event>
<event>
 8    1  0.2846344E+004  0.1043930E+01  0.7957747E-01            NaN
         13   -1    0    0    0    0  0.00000000000E+00  0.00000000000E+00  0.74505805969E-08  0.10566000000E+00  0.10566000000E+00 0.  1.
     999900   -1    0    0    0    0 -0.00000000000E+00 -0.00000000000E+00 -0.74505805969E-08  0.93827000000E+00  0.93827000000E+00 0.  1.
     999902    2    1    2    0    0  0.92974196043E-02  0.76080387792E-02 -0.81774745632E-02  0.10293974381E+01  0.10292948510E+01 0.  0.
     999903    2    3    3    0    0 -0.68445916337E-02  0.12626386670E+00  0.40828085482E-01  0.13993618827E+00  0.43883843873E-01 0.  0.
         14    1    1    2    0    0 -0.92974196043E-02 -0.76080387792E-02  0.81774745632E-02  0.14532561908E-01  0.00000000000E+00 0.  1.
     999901    1    3    3    0    0  0.16142011238E-01 -0.11865582792E+00 -0.49005560045E-01  0.88946124983E+00  0.88000000000E+00 0.  1.
        -11    1    4    4    0    0 -0.16573719672E-02  0.56232711902E-01  0.41163475150E-01  0.69710527018E-01  0.51100000000E-03 0. -1.
         11    1    4    4    0    0 -0.51872196665E-02  0.70031154800E-01 -0.33538966800E-03  0.70225661248E-01  0.51100000000E-03 0.  1.
</event>
<event>
 8    1  0.2846344E+004  0.1043930E+01  0.7957747E-01            NaN
         13   -1    0    0    0    0  0.00000000000E+00  0.00000000000E+00  0.74505805969E-08  0.10566000000E+00  0.10566000000E+00 0.  1.
     999900   -1    0    0    0    0 -0.00000000000E+00 -0.00000000000E+00 -0.74505805969E-08  0.93827000000E+00  0.93827000000E+00 0.  1.
     999902    2    1    2    0    0 -0.41096549786E-02 -0.11553880308E-01  0.66216449025E-02  0.10299934439E+01  0.10298991538E+01 0.  0.
     999903    2    3    3    0    0  0.84774231054E-02  0.80964852041E-01 -0.10234995183E+00  0.13836966717E+00  0.45204846913E-01 0.  0.
         14    1    1    2    0    0  0.41096549786E-02  0.11553880308E-01 -0.66216449025E-02  0.13936556083E-01  0.00000000000E+00 0. -1.
     999901    1    3    3    0    0 -0.12587078084E-01 -0.92518732350E-01  0.10897159673E+00  0.89162377675E+00  0.88000000000E+00 0. -1.
        -11    1    4    4    0    0 -0.11353112298E-02  0.74893991363E-01 -0.64507089161E-01  0.98852539405E-01  0.51100000000E-03 0. -1.
         11    1    4    4    0    0  0.96127343352E-02  0.60708606786E-02 -0.37842862668E-01  0.39517127763E-01  0.51100000000E-03 0.  1.
</event>
<event>
 8    1  0.2846344E+004  0.1043930E+01  0.7957747E-01            NaN
         13   -1    0    0    0    0  0.00000000000E+00  0.00000000000E+00  0.74505805969E-08  0.10566000000E+00  0.10566000000E+00 0.  1.
     999900   -1    0    0    0    0 -0.00000000000E+00 -0.00000000000E+00 -0.74505805969E-08  0.93827000000E+00  0.93827000000E+00 0. -1.
     999902    2    1    2    0    0  0.11128864392E-01  0.45331554636E-02  0.68803990203E-02  0.10300829421E+01  0.10299898673E+01 0.  0.
     999903    2    3    3    0    0 -0.53196947226E-01 -0.10921776610E-01 -0.11933176801E+00  0.13862000062E+00  0.45013701442E-01 0.  0.
         14    1    1    2    0    0 -0.11128864392E-01 -0.45331554636E-02 -0.68803990203E-02  0.13847057875E-01  0.00000000000E+00 0. -1.
     999901    1    3    3    0    0  0.64325811619E-01  0.15454932074E-01  0.12621216703E+00  0.89146294150E+00  0.88000000000E+00 0.  1.
        -11    1    4    4    0    0 -0.53094366199E-01 -0.22781295171E-01 -0.10633284630E+00  0.12101625699E+00  0.51100000000E-03 0.  1.
         11    1    4    4    0    0 -0.10258102744E-03  0.11859518560E-01 -0.12998921707E-01  0.17603743633E-01  0.51100000000E-03 0. -1.
</event>
<event>
 8    1  0.2846344E+004  0.1043930E+01  0.7957747E-01            NaN
         13   -1    0    0    0    0  0.00000000000E+00  0.00000000000E+00  0.74505805969E-08  0.10566000000E+00  0.10566000000E+00 0.  1.
     999900   -1    0    0    0    0 -0.00000000000E+00 -0.00000000000E+00 -0.74505805969E-08  0.93827000000E+00  0.93827000000E+00 0. -1.
     999902    2    1    2    0    0  0.12664797681E-02 -0.23159935383E-02 -0.13625685965E-01  0.10300509829E+01  0.10299574750E+01 0.  0.
     999903    2    3    3    0    0 -0.12818379498E+00 -0.29637400744E-01 -0.17306611512E-01  0.14015358314E+00  0.45100412946E-01 0.  0.
         14    1    1    2    0    0 -0.12664797681E-02  0.23159935383E-02  0.13625685965E-01  0.13879017080E-01  0.00000000000E+00 0.  1.
     999901    1    3    3    0    0  0.12945027474E+00  0.27321407206E-01  0.36809255469E-02  0.88989739978E+00  0.88000000000E+00 0.  1.
        -11    1    4    4    0    0 -0.68552492386E-01  0.56134113910E-03  0.72558526763E-02  0.68939595555E-01  0.51100000000E-03 0.  1.
         11    1    4    4    0    0 -0.59631302589E-01 -0.30198741883E-01 -0.24562464188E-01  0.71213987586E-01  0.51100000000E-03 0. -1.
</event>
<event>
 8    1  0.2846344E+004  0.1043930E+01  0.7957747E-01            NaN
         13   -1    0    0    0    0  0.00000000000E+00  0.00000000000E+00  0.74505805969E-08  0.10566000000E+00  0.10566000000E+00 0. -1.
     999900   -1    0    0    0    0 -0.00000000000E+00 -0.00000000000E+00 -0.74505805969E-08  0.93827000000E+00  0.93827000000E+00 0. -1.
     999902    2    1    2    0    0  0.13170273627E-01 -0.10033796307E-01 -0.28197248798E-02  0.10271346428E+01  0.10269973176E+01 0.  0.
     999903    2    3    3    0    0 -0.34575904415E-01  0.78259413905E-01  0.95319848059E-01  0.13600796028E+00  0.45741259214E-01 0.  0.
         14    1    1    2    0    0 -0.13170273627E-01  0.10033796307E-01  0.28197248798E-02  0.16795357220E-01  0.00000000000E+00 0. -1.
     999901    1    3    3    0    0  0.47746178042E-01 -0.88293210213E-01 -0.98139572939E-01  0.89112668250E+00  0.88000000000E+00 0.  1.
        -11    1    4    4    0    0 -0.19776805329E-01  0.29758147562E-01  0.71603227441E-01  0.80024700413E-01  0.51100000000E-03 0. -1.
         11    1    4    4    0    0 -0.14799099085E-01  0.48501266344E-01  0.23716620619E-01  0.55983259866E-01  0.51100000000E-03 0.  1.
</event>
<event>
 8    1  0.2846344E+004  0.1043930E+01  0.7957747E-01            NaN
         13   -1    0    0    0    0  0.00000000000E+00  0.00000000000E+00  0.74505805969E-08  0.10566000000E+00  0.10566000000E+00 0. -1.
     999900   -1    0    0    0    0 -0.00000000000E+00 -0.00000000000E+00 -0.74505805969E-08  0.93827000000E+00  0.93827000000E+00 0.  1.
     999902    2    1    2    0    0 -0.63271830172E-02 -0.11367874001E-01 -0.53029551170E-02  0.10298806891E+01  0.10297848565E+01 0.  0.
     999903    2    3    3    0    0  0.74871236013E-01 -0.10604416698E+00 -0.31042626477E-01  0.14071292404E+00  0.44557995935E-01 0.  0.
         14    1    1    2    0    0  0.63271830172E-02  0.11367874001E-01  0.53029551170E-02  0.14049310916E-01  0.00000000000E+00 0. -1.
     999901    1    3    3    0    0 -0.81198419030E-01  0.94676292979E-01  0.25739671360E-01  0.88916776504E+00  0.88000000000E+00 0. -1.
        -11    1    4    4    0    0  0.58649963765E-01 -0.45993100243E-01 -0.22920449044E-01  0.77979430781E-01  0.51100000000E-03 0. -1.
         11    1    4    4    0    0  0.16221272247E-01 -0.60051066737E-01 -0.81221774330E-02  0.62733493262E-01  0.51100000000E-03 0.  1.
</event>
<event>
 8    1  0.2846344E+004  0.1043930E+01  0.7957747E-01            NaN
         13   -1    0    0    0    0  0.00000000000E+00  0.00000000000E+00  0.74505805969E-08  0.10566000000E+00  0.10566000000E+00 0. -1.
     999900   -1    0    0    0    0 -0.00000000000E+00 -0.00000000000E+00 -0.74505805969E-08  0.93827000000E+00  0.93827000000E+00 0.  1.
     999902    2    1    2    0    0 -0.72112398475E-02  0.11997916431E-01  0.87940794970E-03  0.10299041190E+01  0.10298086080E+01 0.  0.
     999903    2    3    3    0    0 -0.70086811721E-01  0.21071089796E-01 -0.11132425859E+00  0.14050807518E+00  0.44646126809E-01 0.  0.
         14    1    1    2    0    0  0.72112398475E-02 -0.11997916431E-01 -0.87940794970E-03  0.14025880977E-01  0.00000000000E+00 0. -1.
     999901    1    3    3    0    0  0.62875571873E-01 -0.90731733645E-02  0.11220366654E+00  0.88939604384E+00  0.88000000000E+00 0. -1.
        -11    1    4    4    0    0 -0.71985932950E-01  0.25906828581E-01 -0.88005128396E-01  0.11661175779E+00  0.51100000000E-03 0.  1.
         11    1    4    4    0    0  0.18991212292E-02 -0.48357387849E-02 -0.23319130193E-01  0.23896317394E-01  0.51100000000E-03 0. -1.
</event>
<event>
 8    1  0.2846344E+004  0.1043930E+01  0.7957747E-01            NaN
         13   -1    0    0    0    0  0.00000000000E+00  0.00000000000E+00  0.74505805969E-08  0.10566000000E+00  0.10566000000E+00 0. -1.
     999900   -1    0    0    0    0 -0.00000000000E+00 -0.00000000000E+00 -0.74505805969E-08  0.93827000000E+00  0.93827000000E+00 0.  1.
     999902    2    1    2    0    0  0.80472354952E-02  0.10836182756E-01 -0.60137688016E-02  0.10291534554E+01  0.10290473694E+01 0.  0.
     999903    2    3    3    0    0 -0.81906016036E-01 -0.68940491860E-01  0.73798557485E-01  0.13739905382E+00  0.44394662087E-01 0.  0.
         14    1    1    2    0    0 -0.80472354952E-02 -0.10836182756E-01  0.60137688016E-02  0.14776544624E-01  0.00000000000E+00 0.  1.
     999901    1    3    3    0    0  0.89953251531E-01  0.79776674616E-01 -0.79812326287E-01  0.89175440156E+00  0.88000000000E+00 0. -1.
        -11    1    4    4    0    0 -0.86623080128E-01 -0.64477496980E-01  0.63678724635E-01  0.12536405673E+00  0.51100000000E-03 0.  1.
         11    1    4    4    0    0  0.47170640918E-02 -0.44629948806E-02  0.10119832851E-01  0.12034997087E-01  0.51100000000E-03 0. -1.
</event>
<event>
 8    1  0.2846344E+004  0.1043930E+01  0.7957747E-01            NaN
         13   -1    0    0    0    0  0.00000000000E+00  0.00000000000E+00  0.74505805969E-08  0.10566000000E+00  0.10566000000E+00 0. -1.
     999900   -1    0    0    0    0 -0.00000000000E+00 -0.00000000000E+00 -0.74505805969E-08  0.93827000000E+00  0.93827000000E+00 0. -1.
     999902    2    1    2    0    0  0.11526157582E-01 -0.50659808077E-03 -0.37553671294E-03  0.10323866046E+01  0.10323220676E+01 0.  0.
     999903    2    3    3    0    0 -0.19454847967E-01  0.81001121500E-01 -0.10561196150E+00  0.14183731556E+00  0.44991831242E-01 0.  0.
         14    1    1    2    0    0 -0.11526157582E-01  0.50659808077E-03  0.37553671294E-03  0.11543395429E-01  0.00000000000E+00 0.  1.
     999901    1    3    3    0    0  0.30981005548E-01 -0.81507719581E-01  0.10523642479E+00  0.89054928901E+00  0.88000000000E+00 0.  1.
        -11    1    4    4    0    0 -0.91726848580E-02  0.71807735240E-02 -0.42817153902E-01  0.44376474006E-01  0.51100000000E-03 0.  1.
         11    1    4    4    0    0 -0.10282163109E-01  0.73820347976E-01 -0.62794807603E-01  0.97460841554E-01  0.51100000000E-03 0. -1.
</event>
<event>
 8    1  0.2846344E+004  0.1043930E+01  0.7957747E-01            NaN
         13   -1    0    0    0    0  0.00000000000E+00  0.00000000000E+00  0.74505805969E-08  0.10566000000E+00  0.10566000000E+00 0. -1.
     999900   -1    0    0    0    0 -0.00000000000E+00 -0.00000000000E+00 -0.74505805969E-08  0.93827000000E+00  0.93827000000E+00 0. -1.
     999902    2    1    2    0    0  0.52329133847E-02  0.33462776887E-02 -0.12825102525E-01  0.10296799399E+01  0.10295813297E+01 0.  0.
     999903    2    3    3    0    0 -0.47265034246E-01  0.11573398758E+00 -0.45014403654E-01  0.14039754219E+00  0.45352331517E-01 0.  0.
         14    1    1    2    0    0 -0.52329133847E-02 -0.33462776887E-02  0.12825102525E-01  0.14250060057E-01  0.00000000000E+00 0. -1.
     999901    1    3    3    0    0  0.52497947631E-01 -0.11238770989E+00  0.32189301129E-01  0.88928239775E+00  0.88000000000E+00 0.  1.
        -11    1    4    4    0    0  0.65006762420E-02  0.15422402282E-02 -0.13067408891E-02  0.68268579358E-02  0.51100000000E-03 0. -1.
         11    1    4    4    0    0 -0.53765710488E-01  0.11419174735E+00 -0.43707662765E-01  0.13357068426E+00  0.51100000000E-03 0.  1.
</event>
<event>
 8    1  0.2846344E+004  0.1043930E+01  0.7957747E-01            NaN
         13   -1    0    0    0    0  0.00000000000E+00  0.00000000000E+00  0.74505805969E-08  0.10566000000E+00  0.10566000000E+00 0. -1.
     999900   -1    0    0    0    0 -0.00000000000E+00 -0.00000000000E+00 -0.74505805969E-08  0.93827000000E+00  0.93827000000E+00 0.  1.
     999902    2    1    2    0    0  0.91467036431E-02 -0.89937709647E-02  0.18594176018E-02  0.10309682278E+01  0.10308867442E+01 0.  0.
     999903    2    3    3    0    0 -0.73329841085E-01  0.23112087037E-01  0.10819436579E+00  0.14015944490E+00  0.45024604894E-01 0.  0.
         14    1    1    2    0    0 -0.91467036431E-02  0.89937709647E-02 -0.18594176018E-02  0.12961772160E-01  0.00000000000E+00 0.  1.
     999901    1    3    3    0    0  0.82476544728E-01 -0.32105858002E-01 -0.10633494819E+00  0.89080878294E+00  0.88000000000E+00 0.  1.
        -11    1    4    4    0    0 -0.50920340913E-01  0.33851123912E-01  0.92092834150E-01  0.11054470106E+00  0.51100000000E-03 0. -1.
         11    1    4    4    0    0 -0.22409500172E-01 -0.10739036875E-01  0.16101531643E-01  0.29614743849E-01  0.51100000000E-03 0.  1.
</event>
<event>
 8    1  0.2846344E+004  0.1043930E+01  0.7957747E-01            NaN
         13   -1    0    0    0    0  0.00000000000E+00  0.00000000000E+00  0.74505805969E-08  0.10566000000E+00  0.10566000000E+00 0.  1.
     999900   -1    0    0    0    0 -0.00000000000E+00 -0.00000000000E+00 -0.74505805969E-08  0.93827000000E+00  0.93827000000E+00 0.  1.
     999902    2    1    2    0    0 -0.11132694095E-01 -0.59100162382E-02  0.20705831391E-02  0.10311568843E+01  0.10310777699E+01 0.  0.
     999903    2    3    3    0    0  0.12488385170E-01 -0.10116842298E+00 -0.86554795163E-01  0.14127679289E+00  0.45567423344E-01 0.  0.
         14    1    1    2    0    0  0.11132694095E-01  0.59100162382E-02 -0.20705831391E-02  0.12773115684E-01  0.00000000000E+00 0.  1.
     999901    1    3    3    0    0 -0.23621079265E-01  0.95258406743E-01  0.88625378302E-01  0.88988009143E+00  0.88000000000E+00 0. -1.
        -11    1    4    4    0    0 -0.12783563889E-01 -0.39132457011E-01 -0.16515386781E-01  0.44359754496E-01  0.51100000000E-03 0.  1.
         11    1    4    4    0    0  0.25271949059E-01 -0.62035965971E-01 -0.70039408382E-01  0.96917038392E-01  0.51100000000E-03 0. -1.
</event>
<event>
 8    1  0.2846344E+004  0.1043930E+01  0.7957747E-01            NaN
         13   -1    0    0    0    0  0.00000000000E+00  0.00000000000E+00  0.74505805969E-08  0.10566000000E+00  0.10566000000E+00 0. -1.
     999900   -1    0    0    0    0 -0.00000000000E+00 -0.00000000000E+00 -0.74505805969E-08  0.93827000000E+00  0.93827000000E+00 0.  1.
     999902    2    1    2    0    0  0.13281691194E-01  0.14740328908E-03 -0.69192322242E-03  0.10306294810E+01  0.10305436542E+01 0.  0.
     999903    2    3    3    0    0  0.12748863630E+00 -0.40648257447E-01  0.14191030239E-01  0.14218757823E+00  0.45937880259E-01 0.  0.
         14    1    1    2    0    0 -0.13281691194E-01 -0.14740328908E-03  0.69192322242E-03  0.13300519030E-01  0.00000000000E+00 0.  1.
     999901    1    3    3    0    0 -0.11420694511E+00  0.40795660736E-01 -0.14882953462E-01  0.88844190274E+00  0.88000000000E+00 0. -1.
        -11    1    4    4    0    0  0.28334683134E-01 -0.10275849472E-01 -0.16068926455E-01  0.34160194219E-01  0.51100000000E-03 0. -1.
         11    1    4    4    0    0  0.99153953170E-01 -0.30372407976E-01  0.30259956694E-01  0.10802738401E+00  0.51100000000E-03 0.  1.
</event>
<event>
 8    1  0.2846344E+004  0.1043930E+01  0.7957747E-01            NaN
         13   -1    0    0    0    0  0.00000000000E+00  0.00000000000E+00  0.74505805969E-08  0.10566000000E+00  0.10566000000E+00 0.  1.
     999900   -1    0    0    0    0 -0.00000000000E+00 -0.00000000000E+00 -0.74505805969E-08  0.93827000000E+00  0.93827000000E+00 0. -1.
     999902    2    1    2    0    0 -0.88975805020E-02  0.24057644924E-02  0.11766988349E-01  0.10289828713E+01  0.10288743037E+01 0.  0.
     999903    2    3    3    0    0 -0.19578891899E-01  0.10823309378E+00 -0.71335227885E-01  0.13869106948E+00  0.45263256852E-01 0.  0.
         14    1    1    2    0    0  0.88975805020E-02 -0.24057644924E-02 -0.11766988349E-01  0.14947128701E-01  0.00000000000E+00 0. -1.
     999901    1    3    3    0    0  0.10681311397E-01 -0.10582732928E+00  0.83102216235E-01  0.89029180182E+00  0.88000000000E+00 0.  1.
        -11    1    4    4    0    0 -0.89186415227E-02  0.16358333390E-01 -0.34344013957E-01  0.39075691339E-01  0.51100000000E-03 0.  1.
         11    1    4    4    0    0 -0.10660250376E-01  0.91874760386E-01 -0.36991213928E-01  0.99615378145E-01  0.51100000000E-03 0. -1.
</event>
<event>
 8    1  0.2846344E+004  0.1043930E+01  0.7957747E-01            NaN
         13   -1    0    0    0    0  0.00000000000E+00  0.00000000000E+00  0.74505805969E-08  0.10566000000E+00  0.10566000000E+00 0.  1.
     999900   -1    0    0    0    0 -0.00000000000E+00 -0.00000000000E+00 -0.74505805969E-08  0.93827000000E+00  0.93827000000E+00 0. -1.
     999902    2    1    2    0    0  0.47740505880E-02  0.14322262433E-01  0.22423484683E-03  0.10288313563E+01  0.10287205601E+01 0.  0.
     999903    2    3    3    0    0  0.94705199958E-02  0.51511639740E-01 -0.12179386920E+00  0.13962186224E+00  0.43787875764E-01 0.  0.
         14    1    1    2    0    0 -0.47740505880E-02 -0.14322262433E-01 -0.22423484683E-03  0.15098643696E-01  0.00000000000E+00 0.  1.
     999901    1    3    3    0    0 -0.46964694078E-02 -0.37189377307E-01  0.12201810405E+00  0.88920949406E+00  0.88000000000E+00 0.  1.
        -11    1    4    4    0    0 -0.26908559775E-02  0.17159018977E-01 -0.88723188775E-01  0.90408727375E-01  0.51100000000E-03 0.  1.
         11    1    4    4    0    0  0.12161375973E-01  0.34352620762E-01 -0.33070680426E-01  0.49213134869E-01  0.51100000000E-03 0. -1.
</event>
<event>
 8    1  0.2846344E+004  0.1043930E+01  0.7957747E-01            NaN
         13   -1    0    0    0    0  0.00000000000E+00  0.00000000000E+00  0.74505805969E-08  0.10566000000E+00  0.10566000000E+00 0. -1.
     999900   -1    0    0    0    0 -0.00000000000E+00 -0.00000000000E+00 -0.74505805969E-08  0.93827000000E+00  0.93827000000E+00 0.  1.
     999902    2    1    2    0    0 -0.13094737398E-02 -0.72910188597E-02  0.11605902307E-01  0.10301615344E+01  0.10300695201E+01 0.  0.
     999903    2    3    3    0    0  0.83379853605E-01  0.20143748678E-01  0.10326485740E+00  0.14093360370E+00  0.42903138352E-01 0.  0.
         14    1    1    2    0    0  0.13094737398E-02  0.72910188597E-02 -0.11605902307E-01  0.13768465632E-01  0.00000000000E+00 0.  1.
     999901    1    3    3    0    0 -0.84689327345E-01 -0.27434767537E-01 -0.91658955088E-01  0.88922793067E+00  0.88000000000E+00 0. -1.
        -11    1    4    4    0    0  0.41799877670E-01  0.27232114469E-01  0.75281763128E-01  0.90312916088E-01  0.51100000000E-03 0. -1.
         11    1    4    4    0    0  0.41579975935E-01 -0.70883657911E-02  0.27983094267E-01  0.50620687610E-01  0.51100000000E-03 0.  1.
</event>
<event>
 8    1  0.2846344E+004  0.1043930E+01  0.7957747E-01            NaN
         13   -1    0    0    0    0  0.00000000000E+00  0.00000000000E+00  0.74505805969E-08  0.10566000000E+00  0.10566000000E+00 0.  1.
     999900   -1    0    0    0    0 -0.00000000000E+00 -0.00000000000E+00 -0.74505805969E-08  0.93827000000E+00  0.93827000000E+00 0.  1.
     999902    2    1    2    0    0 -0.12218284802E-01 -0.11107054734E-01 -0.25233579085E-02  0.10272260938E+01  0.10270902722E+01 0.  0.
     999903    2    3    3    0    0 -0.35596262518E-01 -0.11821380433E+00 -0.46016694322E-01  0.13935782878E+00  0.45403423302E-01 0.  0.
         14    1    1    2    0    0  0.12218284802E-01  0.11107054734E-01  0.25233579085E-02  0.16703906235E-01  0.00000000000E+00 0.  1.
     999901    1    3    3    0    0  0.23377977716E-01  0.10710674959E+00  0.43493336414E-01  0.88786826498E+00  0.88000000000E+00 0. -1.
        -11    1    4    4    0    0 -0.27770592166E-01 -0.24106337489E-01 -0.85153919915E-02  0.37750421430E-01  0.51100000000E-03 0.  1.
         11    1    4    4    0    0 -0.78256703523E-02 -0.94107466839E-01 -0.37501302331E-01  0.10160740735E+00  0.51100000000E-03 0. -1.
</event>
<event>
 8    1  0.2846344E+004  0.1043930E+01  0.7957747E-01            NaN
         13   -1    0    0    0    0  0.00000000000E+00  0.00000000000E+00  0.74505805969E-08  0.10566000000E+00  0.10566000000E+00 0.  1.
     999900   -1    0    0    0    0 -0.00000000000E+00 -0.00000000000E+00 -0.74505805969E-08  0.93827000000E+00  0.93827000000E+00 0.  1.
     999902    2    1    2    0    0 -0.12430458304E-01  0.56300886188E-02  0.58479004069E-02  0.10290837166E+01  0.10289766196E+01 0.  0.
     999903    2    3    3    0    0 -0.12704207142E-01 -0.12456981014E+00  0.33677102061E-01  0.13906879929E+00  0.50268770170E-01 0.  0.
         14    1    1    2    0    0  0.12430458304E-01 -0.56300886188E-02 -0.58479004069E-02  0.14846283396E-01  0.00000000000E+00 0. -1.
     999901    1    3    3    0    0  0.27374883792E-03  0.13019989876E+00 -0.27829201654E-01  0.89001491731E+00  0.88000000000E+00 0. -1.
        -11    1    4    4    0    0 -0.15210969719E-01 -0.13925895275E-01  0.17829587457E-01  0.27266453177E-01  0.51100000000E-03 0.  1.
         11    1    4    4    0    0  0.25067625766E-02 -0.11064391487E+00  0.15847514604E-01  0.11180234611E+00  0.51100000000E-03 0. -1.
</event>
<event>
 8    1  0.2846344E+004  0.1043930E+01  0.7957747E-01            NaN
         13   -1    0    0    0    0  0.00000000000E+00  0.00000000000E+00  0.74505805969E-08  0.10566000000E+00  0.10566000000E+00 0. -1.
     999900   -1    0    0    0    0 -0.00000000000E+00 -0.00000000000E+00 -0.74505805969E-08  0.93827000000E+00  0.93827000000E+00 0. -1.
     999902    2    1    2    0    0 -0.63872984834E-02 -0.80412297480E-02  0.84416444181E-02  0.10306363805E+01  0.10305506434E+01 0.  0.
     999903    2    3    3    0    0  0.69534896615E-01  0.71486703475E-01 -0.85297539708E-01  0.13885394827E+00  0.45379489298E-01 0.  0.
         14    1    1    2    0    0  0.63872984834E-02  0.80412297480E-02 -0.84416444181E-02  0.13293619457E-01  0.00000000000E+00 0.  1.
     999901    1    3    3    0    0 -0.75922195098E-01 -0.79527933223E-01  0.93739184126E-01  0.89178243227E+00  0.88000000000E+00 0.  1.
        -11    1    4    4    0    0  0.11917808449E-01  0.44246179245E-01 -0.34955201071E-01  0.57635802579E-01  0.51100000000E-03 0.  1.
         11    1    4    4    0    0  0.57617088166E-01  0.27240524230E-01 -0.50342338636E-01  0.81218145691E-01  0.51100000000E-03 0. -1.
</event>
<event>
 8    1  0.2846344E+004  0.1043930E+01  0.7957747E-01            NaN
         13   -1    0    0    0    0  0.00000000000E+00  0.00000000000E+00  0.74505805969E-08  0.10566000000E+00  0.10566000000E+00 0.  1.
     999900   -1    0    0    0    0 -0.00000000000E+00 -0.00000000000E+00 -0.74505805969E-08  0.93827000000E+00  0.93827000000E+00 0.  1.
     999902    2    1    2    0    0 -0.50507862846E-02 -0.65888216155E-02  0.11193906130E-01  0.10299934815E+01  0.10298991919E+01 0.  0.
     999903    2    3    3    0    0 -0.11146761725E+00 -0.45740326832E-01 -0.55820143465E-01  0.14019110735E+00  0.44949426799E-01 0.  0.
         14    1    1    2    0    0  0.50507862846E-02  0.65888216155E-02 -0.11193906130E-01  0.13936518461E-01  0.00000000000E+00 0. -1.
     999901    1    3    3    0    0  0.10641683096E+00  0.39151505216E-01  0.67014049595E-01  0.88980237419E+00  0.88000000000E+00 0. -1.
        -11    1    4    4    0    0 -0.54568193587E-01 -0.46362920415E-01 -0.33664771468E-01  0.79125129382E-01  0.51100000000E-03 0.  1.
         11    1    4    4    0    0 -0.56899423660E-01  0.62259358286E-03 -0.22155371997E-01  0.61065977966E-01  0.51100000000E-03 0. -1.
</event>
<event>
 8    1  0.2846344E+004  0.1043930E+01  0.7957747E-01            NaN
         13   -1    0    0    0    0  0.00000000000E+00  0.00000000000E+00  0.74505805969E-08  0.10566000000E+00  0.10566000000E+00 0.  1.
     999900   -1    0    0    0    0 -0.00000000000E+00 -0.00000000000E+00 -0.74505805969E-08  0.93827000000E+00  0.93827000000E+00 0.  1.
     999902    2    1    2    0    0 -0.73239355682E-02 -0.12731496066E-01  0.50151698278E-02  0.10284095956E+01  0.10282924746E+01 0.  0.
     999903    2    3    3    0    0  0.94452892621E-01 -0.81102913218E-01  0.51040601043E-01  0.13871778730E+00  0.33740926212E-01 0.  0.
         14    1    1    2    0    0  0.73239355682E-02  0.12731496066E-01 -0.50151698278E-02  0.15520404398E-01  0.00000000000E+00 0. -1.
     999901    1    3    3    0    0 -0.10177682819E+00  0.68371417152E-01 -0.46025431215E-01  0.88969180830E+00  0.88000000000E+00 0. -1.
        -11    1    4    4    0    0  0.36030722540E-01 -0.45278434505E-01  0.37223674849E-01  0.68805615238E-01  0.51100000000E-03 0.  1.
         11    1    4    4    0    0  0.58422170081E-01 -0.35824478714E-01  0.13816926194E-01  0.69912172063E-01  0.51100000000E-03 0. -1.
</event>
<event>
 8    1  0.2846344E+004  0.1043930E+01  0.7957747E-01            NaN
         13   -1    0    0    0    0  0.00000000000E+00  0.00000000000E+00  0.74505805969E-08  0.10566000000E+00  0.10566000000E+00 0.  1.
     999900   -1    0    0    0    0 -0.00000000000E+00 -0.00000000000E+00 -0.74505805969E-08  0.93827000000E+00  0.93827000000E+00 0.  1.
     999902    2    1    2    0    0 -0.10936293032E-01  0.96270388913E-02 -0.11350768399E-02  0.10293159389E+01  0.10292121896E+01 0.  0.
     999903    2    3    3    0    0  0.37655813436E-01  0.60642272489E-01 -0.11147413037E+00  0.13963147031E+00  0.44441200052E-01 0.  0.
         14    1    1    2    0    0  0.10936293032E-01 -0.96270388913E-02  0.11350768399E-02  0.14614061124E-01  0.00000000000E+00 0.  1.
     999901    1    3    3    0    0 -0.48592106469E-01 -0.51015233598E-01  0.11033905353E+00  0.88968446856E+00  0.88000000000E+00 0. -1.
        -11    1    4    4    0    0 -0.14468482078E-02  0.25680304749E-01 -0.14896815721E-01  0.29727893658E-01  0.51100000000E-03 0.  1.
         11    1    4    4    0    0  0.39102661644E-01  0.34961967740E-01 -0.96577314647E-01  0.10990357665E+00  0.51100000000E-03 0. -1.
</event>
<event>
 8    1  0.2846344E+004  0.1043930E+01  0.7957747E-01            NaN
         13   -1    0    0    0    0  0.00000000000E+00  0.00000000000E+00  0.74505805969E-08  0.10566000000E+00  0.10566000000E+00 0. -1.
     999900   -1    0    0    0    0 -0.00000000000E+00 -0.00000000000E+00 -0.74505805969E-08  0.93827000000E+00  0.93827000000E+00 0. -1.
     999902    2    1    2    0    0 -0.77560063702E-02  0.11371350982E-01  0.57932448732E-02  0.10289959803E+01  0.10288876044E+01 0.  0.
     999903    2    3    3    0    0 -0.61633599533E-01  0.10196268315E+00 -0.58592923098E-01  0.14037054564E+00  0.45559522604E-01 0.  0.
         14    1    1    2    0    0  0.77560063702E-02 -0.11371350982E-01 -0.57932448732E-02  0.14934019691E-01  0.00000000000E+00 0. -1.
     999901    1    3    3    0    0  0.53877593163E-01 -0.90591332170E-01  0.64386167972E-01  0.88862543467E+00  0.88000000000E+00 0. -1.
        -11    1    4    4    0    0 -0.57359522221E-01  0.55962305541E-01 -0.27692376911E-01  0.84788108193E-01  0.51100000000E-03 0. -1.
         11    1    4    4    0    0 -0.42740773120E-02  0.46000377611E-01 -0.30900546187E-01  0.55582437450E-01  0.51100000000E-03 0.  1.
</event>
<event>
 8    1  0.2846344E+004  0.1043930E+01  0.7957747E-01            NaN
         13   -1    0    0    0    0  0.00000000000E+00  0.00000000000E+00  0.74505805969E-08  0.10566000000E+00  0.10566000000E+00 0. -1.
     999900   -1    0    0    0    0 -0.00000000000E+00 -0.00000000000E+00 -0.74505805969E-08  0.93827000000E+00  0.93827000000E+00 0. -1.
     999902    2    1    2    0    0 -0.95274360247E-02  0.10315191104E-01 -0.72564243358E-03  0.10298693542E+01  0.10297733658E+01 0.  0.
     999903    2    3    3    0    0  0.42700384296E-01  0.87363261010E-01  0.90647579040E-01  0.14025527159E+00  0.44709008368E-01 0.  0.
         14    1    1    2    0    0  0.95274360247E-02 -0.10315191104E-01  0.72564243358E-03  0.14060645848E-01  0.00000000000E+00 0. -1.
     999901    1    3    3    0    0 -0.52227820320E-01 -0.77048069906E-01 -0.91373221474E-01  0.88961408256E+00  0.88000000000E+00 0. -1.
        -11    1    4    4    0    0  0.12151434404E-01  0.70144917503E-01  0.52639948567E-01  0.88539212305E-01  0.51100000000E-03 0. -1.
         11    1    4    4    0    0  0.30548949892E-01  0.17218343508E-01  0.38007630473E-01  0.51716059284E-01  0.51100000000E-03 0.  1.
</event>
<event>
 8    1  0.2846344E+004  0.1043930E+01  0.7957747E-01            NaN
         13   -1    0    0    0    0  0.00000000000E+00  0.00000000000E+00  0.74505805969E-08  0.10566000000E+00  0.10566000000E+00 0.  1.
     999900   -1    0    0    0    0 -0.00000000000E+00 -0.00000000000E+00 -0.74505805969E-08  0.93827000000E+00  0.93827000000E+00 0.  1.
     999902    2    1    2    0    0 -0.48011598002E-02  0.89624342900E-02  0.93538067260E-02  0.10301144268E+01  0.10300217775E+01 0.  0.
     999903    2    3    3    0    0 -0.49571169636E-01  0.77793103898E-01  0.97510654082E-01  0.14190631792E+00  0.46043539543E-01 0.  0.
         14    1    1    2    0    0  0.48011598002E-02 -0.89624342900E-02 -0.93538067260E-02  0.13815573245E-01  0.00000000000E+00 0. -1.
     999901    1    3    3    0    0  0.44770009835E-01 -0.68830669608E-01 -0.88156847356E-01  0.88820810883E+00  0.88000000000E+00 0.  1.
        -11    1    4    4    0    0 -0.17362695365E-01  0.41034878108E-02  0.37600248331E-01  0.41621407930E-01  0.51100000000E-03 0. -1.
         11    1    4    4    0    0 -0.32208474271E-01  0.73689616087E-01  0.59910405752E-01  0.10028490999E+00  0.51100000000E-03 0.  1.
</event>
<event>
 8    1  0.2846344E+004  0.1043930E+01  0.7957747E-01            NaN
         13   -1    0    0    0    0  0.00000000000E+00  0.00000000000E+00  0.74505805969E-08  0.10566000000E+00  0.10566000000E+00 0.  1.
     999900   -1    0    0    0    0 -0.00000000000E+00 -0.00000000000E+00 -0.74505805969E-08  0.93827000000E+00  0.93827000000E+00 0.  1.
     999902    2    1    2    0    0 -0.99271338669E-02 -0.10761984254E-01 -0.70682947782E-03  0.10292716270E+01  0.10291672431E+01 0.  0.
     999903    2    3    3    0    0 -0.22525862337E-01 -0.80411044700E-02 -0.12941788166E+00  0.13981523900E+00  0.47193634404E-01 0.  0.
         14    1    1    2    0    0  0.99271338669E-02  0.10761984254E-01  0.70682947782E-03  0.14658373027E-01  0.00000000000E+00 0.  1.
     999901    1    3    3    0    0  0.12598728470E-01 -0.27208797843E-02  0.12871105218E+00  0.88945638797E+00  0.88000000000E+00 0. -1.
        -11    1    4    4    0    0  0.10036594732E-01  0.11162486702E-01 -0.40392385391E-01  0.43094550256E-01  0.51100000000E-03 0. -1.
         11    1    4    4    0    0 -0.32562457068E-01 -0.19203591172E-01 -0.89025496271E-01  0.96720688747E-01  0.51100000000E-03 0.  1.
</event>
<event>
 8    1  0.2846344E+004  0.1043930E+01  0.7957747E-01            NaN
         13   -1    0    0    0    0  0.00000000000E+00  0.00000000000E+00  0.74505805969E-08  0.10566000000E+00  0.10566000000E+00 0. -1.
     999900   -1    0    0    0    0 -0.00000000000E+00 -0.00000000000E+00 -0.74505805969E-08  0.93827000000E+00  0.93827000000E+00 0. -1.
     999902    2    1    2    0    0 -0.45802294812E-02  0.61479065943E-02  0.11847024772E-01  0.10298187544E+01  0.10297220691E+01 0.  0.
     999903    2    3    3    0    0  0.53018043446E-01  0.55283828189E-01  0.10953248436E+00  0.14118252459E+00  0.45474449218E-01 0.  0.
         14    1    1    2    0    0  0.45802294812E-02 -0.61479065943E-02 -0.11847024772E-01  0.14111245641E-01  0.00000000000E+00 0.  1.
     999901    1    3    3    0    0 -0.57598272927E-01 -0.49135921594E-01 -0.97685459584E-01  0.88863622976E+00  0.88000000000E+00 0. -1.
        -11    1    4    4    0    0  0.14774639349E-01  0.24029827295E-01  0.97605144918E-02  0.29853832784E-01  0.51100000000E-03 0. -1.
         11    1    4    4    0    0  0.38243404097E-01  0.31254000894E-01  0.99771969864E-01  0.11132869181E+00  0.51100000000E-03 0.  1.
</event>
<event>
 8    1  0.2846344E+004  0.1043930E+01  0.7957747E-01            NaN
         13   -1    0    0    0    0  0.00000000000E+00  0.00000000000E+00  0.74505805969E-08  0.10566000000E+00  0.10566000000E+00 0.  1.
     999900   -1    0    0    0    0 -0.00000000000E+00 -0.00000000000E+00 -0.74505805969E-08  0.93827000000E+00  0.93827000000E+00 0.  1.
     999902    2    1    2    0    0  0.16785376716E-02 -0.49171778083E-02  0.12149831946E-01  0.10307158204E+01  0.10306311114E+01 0.  0.
     999903    2    3    3    0    0  0.10072551813E+00  0.33556331216E-01  0.83049884164E-01  0.14149293909E+00  0.43026865855E-01 0.  0.
         14    1    1    2    0    0 -0.16785376716E-02  0.49171778083E-02 -0.12149831946E-01  0.13214179604E-01  0.00000000000E+00 0.  1.
     999901    1    3    3    0    0 -0.99046980458E-01 -0.38473509024E-01 -0.70900052219E-01  0.88922288131E+00  0.88000000000E+00 0.  1.
        -11    1    4    4    0    0  0.14306050460E-01  0.23546815975E-01  0.19939906287E-01  0.34014358822E-01  0.51100000000E-03 0. -1.
         11    1    4    4    0    0  0.86419467669E-01  0.10009515240E-01  0.63109977877E-01  0.10747858027E+00  0.51100000000E-03 0.  1.
</event>
<event>
 8    1  0.2846344E+004  0.1043930E+01  0.7957747E-01            NaN
         13   -1    0    0    0    0  0.00000000000E+00  0.00000000000E+00  0.74505805969E-08  0.10566000000E+00  0.10566000000E+00 0. -1.
     999900   -1    0    0    0    0 -0.00000000000E+00 -0.00000000000E+00 -0.74505805969E-08  0.93827000000E+00  0.93827000000E+00 0. -1.
     999902    2    1    2    0    0 -0.29442715457E-02 -0.13058067674E-01 -0.45081130390E-02  0.10298053779E+01  0.10297085080E+01 0.  0.
     999903    2    3    3    0    0 -0.93771805237E-01 -0.84214211495E-01  0.44481279861E-01  0.14092248443E+00  0.44669648372E-01 0.  0.
         14    1    1    2    0    0  0.29442715457E-02  0.13058067674E-01  0.45081130390E-02  0.14124622101E-01  0.00000000000E+00 0. -1.
     999901    1    3    3    0    0  0.90827533691E-01  0.71156143821E-01 -0.48989392900E-01  0.88888289347E+00  0.88000000000E+00 0.  1.
        -11    1    4    4    0    0 -0.77412471738E-01 -0.66680028218E-01  0.53457076228E-01  0.11531191206E+00  0.51100000000E-03 0.  1.
         11    1    4    4    0    0 -0.16359333499E-01 -0.17534183278E-01 -0.89757963670E-02  0.25610572371E-01  0.51100000000E-03 0. -1.
</event>
<event>
 8    1  0.2846344E+004  0.1043930E+01  0.7957747E-01            NaN
         13   -1    0    0    0    0  0.00000000000E+00  0.00000000000E+00  0.74505805969E-08  0.10566000000E+00  0.10566000000E+00 0.  1.
     999900   -1    0    0    0    0 -0.00000000000E+00 -0.00000000000E+00 -0.74505805969E-08  0.93827000000E+00  0.93827000000E+00 0.  1.
     999902    2    1    2    0    0  0.87231881068E-02 -0.10385320290E-01  0.49932636174E-04  0.10303671323E+01  0.10302778634E+01 0.  0.
     999903    2    3    3    0    0  0.87328756300E-01 -0.57687613008E-01 -0.84205921367E-01  0.14159528797E+00  0.44770704839E-01 0.  0.
         14    1    1    2    0    0 -0.87231881068E-02  0.10385320290E-01 -0.49932636174E-04  0.13562867748E-01  0.00000000000E+00 0.  1.
     999901    1    3    3    0    0 -0.78605568193E-01  0.47302292718E-01  0.84255854003E-01  0.88877184428E+00  0.88000000000E+00 0. -1.
        -11    1    4    4    0    0  0.35033199269E-01 -0.28486740277E-02 -0.12615884681E-01  0.37347846819E-01  0.51100000000E-03 0.  1.
         11    1    4    4    0    0  0.52295557031E-01 -0.54838938981E-01 -0.71590036686E-01  0.10424744116E+00  0.51100000000E-03 0. -1.
</event>
<event>
 8    1  0.2846344E+004  0.1043930E+01  0.7957747E-01            NaN
         13   -1    0    0    0    0  0.00000000000E+00  0.00000000000E+00  0.74505805969E-08  0.10566000000E+00  0.10566000000E+00 0. -1.
     999900   -1    0    0    0    0 -0.00000000000E+00 -0.00000000000E+00 -0.74505805969E-08  0.93827000000E+00  0.93827000000E+00 0. -1.
     999902    2    1    2    0    0 -0.15940823494E-02  0.11728147891E-01  0.65027954075E-02  0.10304253008E+01  0.10303368011E+01 0.  0.
     999903    2    3    3    0    0  0.14766106161E-01 -0.62478574911E-01 -0.11477591820E+00  0.13886328961E+00  0.44585777877E-01 0.  0.
         14    1    1    2    0    0  0.15940823494E-02 -0.11728147891E-01 -0.65027954075E-02  0.13504699167E-01  0.00000000000E+00 0. -1.
     999901    1    3    3    0    0 -0.16360188510E-01  0.74206722801E-01  0.12127871361E+00  0.89156201122E+00  0.88000000000E+00 0.  1.
        -11    1    4    4    0    0 -0.37001369429E-02 -0.24696067240E-02 -0.44094261314E-01  0.44321044354E-01  0.51100000000E-03 0. -1.
         11    1    4    4    0    0  0.18466243104E-01 -0.60008968187E-01 -0.70681656887E-01  0.94542245259E-01  0.51100000000E-03 0.  1.
</event>
<event>
 8    1  0.2846344E+004  0.1043930E+01  0.7957747E-01            NaN
         13   -1    0    0    0    0  0.00000000000E+00  0.00000000000E+00  0.74505805969E-08  0.10566000000E+00  0.10566000000E+00 0.  1.
     999900   -1    0    0    0    0 -0.00000000000E+00 -0.00000000000E+00 -0.74505805969E-08  0.93827000000E+00  0.93827000000E+00 0.  1.
     999902    2    1    2    0    0  0.11614838946E-02  0.80978354824E-02  0.10286607587E-01  0.10307870064E+01  0.10307032135E+01 0.  0.
     999903    2    3    3    0    0  0.10430186572E+00 -0.60862921214E-01  0.57276128283E-01  0.14084232310E+00  0.44416559229E-01 0.  0.
         14    1    1    2    0    0 -0.11614838946E-02 -0.80978354824E-02 -0.10286607587E-01  0.13142993570E-01  0.00000000000E+00 0. -1.
     999901    1    3    3    0    0 -0.10314038183E+00  0.68960756697E-01 -0.46989520696E-01  0.88994468333E+00  0.88000000000E+00 0.  1.
        -11    1    4    4    0    0  0.63908097745E-01 -0.24981294733E-01  0.10582784140E-01  0.69430299474E-01  0.51100000000E-03 0.  1.
         11    1    4    4    0    0  0.40393767978E-01 -0.35881626481E-01  0.46693344143E-01  0.71412023628E-01  0.51100000000E-03 0. -1.
</event>
<event>
 8    1  0.2846344E+004  0.1043930E+01  0.7957747E-01            NaN
         13   -1    0    0    0    0  0.00000000000E+00  0.00000000000E+00  0.74505805969E-08  0.10566000000E+00  0.10566000000E+00 0. -1.
     999900   -1    0    0    0    0 -0.00000000000E+00 -0.00000000000E+00 -0.74505805969E-08  0.93827000000E+00  0.93827000000E+00 0. -1.
     999902    2    1    2    0    0 -0.15263618786E-02 -0.69830727382E-02 -0.70155553955E-02  0.10339144569E+01  0.10338659454E+01 0.  0.
     999903    2    3    3    0    0 -0.11874546802E-01 -0.12560738236E+00  0.52286868632E-01  0.14391693488E+00  0.45386651667E-01 0.  0.
         14    1    1    2    0    0  0.15263618786E-02  0.69830727382E-02  0.70155553955E-02  0.10015543069E-01  0.00000000000E+00 0.  1.
     999901    1    3    3    0    0  0.10348184923E-01  0.11862430962E+00 -0.59302424028E-01  0.88999752205E+00  0.88000000000E+00 0. -1.
        -11    1    4    4    0    0 -0.25238680376E-01 -0.77883673293E-01  0.18508191590E-01  0.83938500283E-01  0.51100000000E-03 0.  1.
         11    1    4    4    0    0  0.13364133574E-01 -0.47723709063E-01  0.33778677042E-01  0.59978434597E-01  0.51100000000E-03 0. -1.
</event>
<event>
 8    1  0.2846344E+004  0.1043930E+01  0.7957747E-01            NaN
         13   -1    0    0    0    0  0.00000000000E+00  0.00000000000E+00  0.74505805969E-08  0.10566000000E+00  0.10566000000E+00 0.  1.
     999900   -1    0    0    0    0 -0.00000000000E+00 -0.00000000000E+00 -0.74505805969E-08  0.93827000000E+00  0.93827000000E+00 0. -1.
     999902    2    1    2    0    0 -0.83376578618E-02 -0.16350415674E-02  0.10796681690E-01  0.10301910686E+01  0.10300994513E+01 0.  0.
     999903    2    3    3    0    0  0.43789950513E-01  0.12443427918E+00  0.81429234266E-02  0.13967559790E+00  0.45183136743E-01 0.  0.
         14    1    1    2    0    0  0.83376578618E-02  0.16350415674E-02 -0.10796681690E-01  0.13738931365E-01  0.00000000000E+00 0. -1.
     999901    1    3    3    0    0 -0.52127608374E-01 -0.12606932075E+00  0.26537582632E-02  0.89051547074E+00  0.88000000000E+00 0. -1.
        -11    1    4    4    0    0  0.14926890034E-02  0.68169985576E-01 -0.37274946142E-02  0.68290046061E-01  0.51100000000E-03 0. -1.
         11    1    4    4    0    0  0.42297261509E-01  0.56264293602E-01  0.11870418041E-01  0.71385551838E-01  0.51100000000E-03 0.  1.
</event>
<event>
 8    1  0.2846344E+004  0.1043930E+01  0.7957747E-01            NaN
         13   -1    0    0    0    0  0.00000000000E+00  0.00000000000E+00  0.74505805969E-08  0.10566000000E+00  0.10566000000E+00 0.  1.
     999900   -1    0    0    0    0 -0.00000000000E+00 -0.00000000000E+00 -0.74505805969E-08  0.93827000000E+00  0.93827000000E+00 0.  1.
     999902    2    1    2    0    0  0.10308514365E-01 -0.92313405524E-02 -0.58430032947E-02  0.10289092209E+01  0.10287995728E+01 0.  0.
     999903    2    3    3    0    0 -0.11548196082E+00 -0.69296917887E-02 -0.60685801956E-01  0.13827109362E+00  0.45299281100E-01 0.  0.
         14    1    1    2    0    0 -0.10308514365E-01  0.92313405524E-02  0.58430032947E-02  0.15020779084E-01  0.00000000000E+00 0. -1.
     999901    1    3    3    0    0  0.12579047518E+00 -0.23016487637E-02  0.54842798661E-01  0.89063812730E+00  0.88000000000E+00 0. -1.
        -11    1    4    4    0    0 -0.53483801794E-01  0.19106294398E-01 -0.23880791758E-01  0.61612668145E-01  0.51100000000E-03 0.  1.
         11    1    4    4    0    0 -0.61998159025E-01 -0.26035986186E-01 -0.36805010198E-01  0.76658425472E-01  0.51100000000E-03 0. -1.
</event>
<event>
 8    1  0.2846344E+004  0.1043930E+01  0.7957747E-01            NaN
         13   -1    0    0    0    0  0.00000000000E+00  0.00000000000E+00  0.74505805969E-08  0.10566000000E+00  0.10566000000E+00 0. -1.
     999900   -1    0    0    0    0 -0.00000000000E+00 -0.00000000000E+00 -0.74505805969E-08  0.93827000000E+00  0.93827000000E+00 0.  1.
     999902    2    1    2    0    0  0.10309216558E-01 -0.90593113708E-02 -0.51781776303E-03  0.10301961293E+01  0.10301045800E+01 0.  0.
     999903    2    3    3    0    0 -0.11182948894E+00 -0.49369011825E-01 -0.50477200446E-01  0.13944438206E+00  0.44200158357E-01 0.  0.
         14    1    1    2    0    0 -0.10309216558E-01  0.90593113708E-02  0.51781776303E-03  0.13733870677E-01  0.00000000000E+00 0.  1.
     999901    1    3    3    0    0  0.12213870550E+00  0.40309700455E-01  0.49959382683E-01  0.89075174726E+00  0.88000000000E+00 0. -1.
        -11    1    4    4    0    0 -0.11053140631E+00 -0.36260866405E-01 -0.41560358214E-01  0.12352961875E+00  0.51100000000E-03 0. -1.
         11    1    4    4    0    0 -0.12980826315E-02 -0.13108145420E-01 -0.89168422320E-02  0.15914763311E-01  0.51100000000E-03 0.  1.
</event>
<event>
 8    1  0.2846344E+004  0.1043930E+01  0.7957747E-01            NaN
         13   -1    0    0    0    0  0.00000000000E+00  0.00000000000E+00  0.74505805969E-08  0.10566000000E+00  0.10566000000E+00 0. -1.
     999900   -1    0    0    0    0 -0.00000000000E+00 -0.00000000000E+00 -0.74505805969E-08  0.93827000000E+00  0.93827000000E+00 0. -1.
     999902    2    1    2    0    0 -0.65825367872E-02  0.90556769196E-02 -0.73133637036E-02  0.10305576268E+01  0.10304708642E+01 0.  0.
     999903    2    3    3    0    0  0.18998168592E-01 -0.52264867378E-01 -0.12098073162E+00  0.14076278973E+00  0.45664852762E-01 0.  0.
         14    1    1    2    0    0  0.65825367872E-02 -0.90556769196E-02  0.73133637036E-02  0.13372373151E-01  0.00000000000E+00 0. -1.
     999901    1    3    3    0    0 -0.25580705379E-01  0.61320544297E-01  0.11366736791E+00  0.88979483712E+00  0.88000000000E+00 0.  1.
        -11    1    4    4    0    0 -0.11936115318E-02 -0.35056593644E-01 -0.10273751469E+00  0.10856172213E+00  0.51100000000E-03 0. -1.
         11    1    4    4    0    0  0.20191780123E-01 -0.17208273734E-01 -0.18243216921E-01  0.32201067592E-01  0.51100000000E-03 0.  1.
</event>
<event>
 8    1  0.2846344E+004  0.1043930E+01  0.7957747E-01            NaN
         13   -1    0    0    0    0  0.00000000000E+00  0.00000000000E+00  0.74505805969E-08  0.10566000000E+00  0.10566000000E+00 0. -1.
     999900   -1    0    0    0    0 -0.00000000000E+00 -0.00000000000E+00 -0.74505805969E-08  0.93827000000E+00  0.93827000000E+00 0. -1.
     999902    2    1    2    0    0  0.56581082772E-02 -0.60427160993E-02  0.11300976165E-01  0.10299214073E+01  0.10298261332E+01 0.  0.
     999903    2    3    3    0    0  0.37852954182E-01 -0.10925935520E+00  0.68157453189E-01  0.14148297856E+00  0.44738595822E-01 0.  0.
         14    1    1    2    0    0 -0.56581082772E-02  0.60427160993E-02 -0.11300976165E-01  0.14008592699E-01  0.00000000000E+00 0.  1.
     999901    1    3    3    0    0 -0.32194845905E-01  0.10321663910E+00 -0.56856477024E-01  0.88843842874E+00  0.88000000000E+00 0. -1.
        -11    1    4    4    0    0  0.93936055524E-02 -0.78076693952E-01  0.28758073452E-01  0.83734687397E-01  0.51100000000E-03 0.  1.
         11    1    4    4    0    0  0.28459348630E-01 -0.31182661251E-01  0.39399379737E-01  0.57748291159E-01  0.51100000000E-03 0. -1.
</event>
<event>
 8    1  0.2846344E+004  0.1043930E+01  0.7957747E-01            NaN
         13   -1    0    0    0    0  0.00000000000E+00  0.00000000000E+00  0.74505805969E-08  0.10566000000E+00  0.10566000000E+00 0.  1.
     999900   -1    0    0    0    0 -0.00000000000E+00 -0.00000000000E+00 -0.74505805969E-08  0.93827000000E+00  0.93827000000E+00 0.  1.
     999902    2    1    2    0    0  0.15006104572E-01  0.59280382402E-03  0.76791847040E-02  0.10270627397E+01  0.10269242265E+01 0.  0.
     999903    2    3    3    0    0 -0.27780552974E-01  0.59883835585E-01 -0.11040581555E+00  0.13616982149E+00  0.44664788027E-01 0.  0.
         14    1    1    2    0    0 -0.15006104572E-01 -0.59280382402E-03 -0.76791847040E-02  0.16867260255E-01  0.00000000000E+00 0.  1.
     999901    1    3    3    0    0  0.42786657545E-01 -0.59291031761E-01  0.11808500025E+00  0.89089291825E+00  0.88000000000E+00 0. -1.
        -11    1    4    4    0    0  0.10304425197E-01  0.12953415439E-01 -0.11165777031E-01  0.19972677534E-01  0.51100000000E-03 0. -1.
         11    1    4    4    0    0 -0.38084978170E-01  0.46930420145E-01 -0.99240038520E-01  0.11619714396E+00  0.51100000000E-03 0.  1.
</event>
<event>
 8    1  0.2846344E+004  0.1043930E+01  0.7957747E-01            NaN
         13   -1    0    0    0    0  0.00000000000E+00  0.00000000000E+00  0.74505805969E-08  0.10566000000E+00  0.10566000000E+00 0.  1.
     999900   -1    0    0    0    0 -0.00000000000E+00 -0.00000000000E+00 -0.74505805969E-08  0.93827000000E+00  0.93827000000E+00 0. -1.
     999902    2    1    2    0    0  0.51313656393E-02 -0.11568729298E-01 -0.61698561511E-02  0.10298504568E+01  0.10297542085E+01 0.  0.
     999903    2    3    3    0    0  0.95058978990E-01  0.34325322740E-01  0.86995995675E-01  0.13919164696E+00  0.39894536623E-01 0.  0.
         14    1    1    2    0    0 -0.51313656393E-02  0.11568729298E-01  0.61698561511E-02  0.14079543168E-01  0.00000000000E+00 0.  1.
     999901    1    3    3    0    0 -0.89927613351E-01 -0.45894052038E-01 -0.93165851826E-01  0.89065880987E+00  0.88000000000E+00 0. -1.
        -11    1    4    4    0    0  0.58726249754E-01  0.39383253267E-01  0.46934301481E-01  0.84869917076E-01  0.51100000000E-03 0.  1.
         11    1    4    4    0    0  0.36332729236E-01 -0.50579305267E-02  0.40061694193E-01  0.54321729884E-01  0.51100000000E-03 0. -1.
</event>
<event>
 8    1  0.2846344E+004  0.1043930E+01  0.7957747E-01            NaN
         13   -1    0    0    0    0  0.00000000000E+00  0.00000000000E+00  0.74505805969E-08  0.10566000000E+00  0.10566000000E+00 0.  1.
     999900   -1    0    0    0    0 -0.00000000000E+00 -0.00000000000E+00 -0.74505805969E-08  0.93827000000E+00  0.93827000000E+00 0.  1.
     999902    2    1    2    0    0 -0.57303689650E-02 -0.10389935112E-01  0.72389571730E-02  0.10300307057E+01  0.10299369225E+01 0.  0.
     999903    2    3    3    0    0 -0.68404647504E-01 -0.71261831254E-01  0.91797372654E-01  0.14167065567E+00  0.43432391793E-01 0.  0.
         14    1    1    2    0    0  0.57303689650E-02  0.10389935112E-01 -0.72389571730E-02  0.13899294265E-01  0.00000000000E+00 0. -1.
     999901    1    3    3    0    0  0.62674278539E-01  0.60871896142E-01 -0.84558415481E-01  0.88836005007E+00  0.88000000000E+00 0.  1.
        -11    1    4    4    0    0 -0.47899250772E-01 -0.38964820486E-01  0.81122063633E-01  0.10194923143E+00  0.51100000000E-03 0. -1.
         11    1    4    4    0    0 -0.20505396731E-01 -0.32297010768E-01  0.10675309021E-01  0.39721424236E-01  0.51100000000E-03 0.  1.
</event>
<event>
 8    1  0.2846344E+004  0.1043930E+01  0.7957747E-01            NaN
         13   -1    0    0    0    0  0.00000000000E+00  0.00000000000E+00  0.74505805969E-08  0.10566000000E+00  0.10566000000E+00 0.  1.
     999900   -1    0    0    0    0 -0.00000000000E+00 -0.00000000000E+00 -0.74505805969E-08  0.93827000000E+00  0.93827000000E+00 0.  1.
     999902    2    1    2    0    0  0.12163559210E-01  0.54094022009E-02 -0.54482057954E-02  0.10295460940E+01  0.10294456095E+01 0.  0.
     999903    2    3    3    0    0 -0.40432210289E-01 -0.11951205258E+00  0.33938380126E-01  0.13829809936E+00  0.45350372654E-01 0.  0.
         14    1    1    2    0    0 -0.12163559210E-01 -0.54094022009E-02  0.54482057954E-02  0.14383905979E-01  0.00000000000E+00 0.  1.
     999901    1    3    3    0    0  0.52595769499E-01  0.12492145478E+00 -0.39386585921E-01  0.89124799466E+00  0.88000000000E+00 0.  1.
        -11    1    4    4    0    0 -0.29652365135E-01 -0.65030406490E-01 -0.30997244639E-02  0.71540799122E-01  0.51100000000E-03 0.  1.
         11    1    4    4    0    0 -0.10779845154E-01 -0.54481646093E-01  0.37038104590E-01  0.66757300239E-01  0.51100000000E-03 0. -1.
</event>
<event>
 8    1  0.2846344E+004  0.1043930E+01  0.7957747E-01            NaN
         13   -1    0    0    0    0  0.00000000000E+00  0.00000000000E+00  0.74505805969E-08  0.10566000000E+00  0.10566000000E+00 0.  1.
     999900   -1    0    0    0    0 -0.00000000000E+00 -0.00000000000E+00 -0.74505805969E-08  0.93827000000E+00  0.93827000000E+00 0.  1.
     999902    2    1    2    0    0  0.13386787378E-01 -0.11411101178E-02  0.14294923890E-02  0.10304188321E+01  0.10303302470E+01 0.  0.
     999903    2    3    3    0    0 -0.65478734296E-02 -0.11867232633E+00 -0.60483802839E-01  0.14022546347E+00  0.43346216882E-01 0.  0.
         14    1    1    2    0    0 -0.13386787378E-01  0.11411101178E-02 -0.14294923890E-02  0.13511167866E-01  0.00000000000E+00 0. -1.
     999901    1    3    3    0    0  0.19934660808E-01  0.11753121621E+00  0.61913295228E-01  0.89019336866E+00  0.88000000000E+00 0. -1.
        -11    1    4    4    0    0  0.95147526144E-02 -0.89056898340E-01 -0.29086709575E-01  0.94169843656E-01  0.51100000000E-03 0.  1.
         11    1    4    4    0    0 -0.16062626044E-01 -0.29615427985E-01 -0.31397093263E-01  0.46055619815E-01  0.51100000000E-03 0. -1.
</event>
<event>
 8    1  0.2846344E+004  0.1043930E+01  0.7957747E-01            NaN
         13   -1    0    0    0    0  0.00000000000E+00  0.00000000000E+00  0.74505805969E-08  0.10566000000E+00  0.10566000000E+00 0. -1.
     999900   -1    0    0    0    0 -0.00000000000E+00 -0.00000000000E+00 -0.74505805969E-08  0.93827000000E+00  0.93827000000E+00 0. -1.
     999902    2    1    2    0    0 -0.11931995992E-01 -0.38524760896E-02 -0.13931957400E-02  0.10313143314E+01  0.10312371672E+01 0.  0.
     999903    2    3    3    0    0 -0.80012983605E-01 -0.55224585431E-01 -0.93703564409E-01  0.14238502111E+00  0.45180790962E-01 0.  0.
         14    1    1    2    0    0  0.11931995992E-01  0.38524760896E-02  0.13931957400E-02  0.12615668621E-01  0.00000000000E+00 0. -1.
     999901    1    3    3    0    0  0.68080987613E-01  0.51372109341E-01  0.92310368669E-01  0.88892931027E+00  0.88000000000E+00 0. -1.
        -11    1    4    4    0    0 -0.69233162658E-01 -0.28895619015E-01 -0.49731650361E-01  0.90009364949E-01  0.51100000000E-03 0.  1.
         11    1    4    4    0    0 -0.10779820947E-01 -0.26328966416E-01 -0.43971914048E-01  0.52375656161E-01  0.51100000000E-03 0. -1.
</event>
<event>
 8    1  0.2846344E+004  0.1043930E+01  0.7957747E-01            NaN
         13   -1    0    0    0    0  0.00000000000E+00  0.00000000000E+00  0.74505805969E-08  0.10566000000E+00  0.10566000000E+00 0.  1.
     999900   -1    0    0    0    0 -0.00000000000E+00 -0.00000000000E+00 -0.74505805969E-08  0.93827000000E+00  0.93827000000E+00 0. -1.
     999902    2    1    2    0    0 -0.91407409806E-02 -0.64139843833E-02 -0.70926779311E-02  0.10307013031E+01  0.10306164067E+01 0.  0.
     999903    2    3    3    0    0  0.69997604075E-01 -0.11292897143E+00 -0.77609878011E-02  0.14075255921E+00  0.45808654493E-01 0.  0.
         14    1    1    2    0    0  0.91407409806E-02  0.64139843833E-02  0.70926779311E-02  0.13228696896E-01  0.00000000000E+00 0.  1.
     999901    1    3    3    0    0 -0.79138345056E-01  0.10651498705E+00  0.66830986991E-03  0.88994874390E+00  0.88000000000E+00 0.  1.
        -11    1    4    4    0    0  0.10882203576E-01 -0.46919480823E-01  0.12689317073E-01  0.49811042190E-01  0.51100000000E-03 0. -1.
         11    1    4    4    0    0  0.59115400499E-01 -0.66009490611E-01 -0.20450304874E-01  0.90941517017E-01  0.51100000000E-03 0.  1.
</event>
<event>
 8    1  0.2846344E+004  0.1043930E+01  0.7957747E-01            NaN
         13   -1    0    0    0    0  0.00000000000E+00  0.00000000000E+00  0.74505805969E-08  0.10566000000E+00  0.10566000000E+00 0.  1.
     999900   -1    0    0    0    0 -0.00000000000E+00 -0.00000000000E+00 -0.74505805969E-08  0.93827000000E+00  0.93827000000E+00 0.  1.
     999902    2    1    2    0    0 -0.11419625003E-01 -0.67576916965E-02 -0.32948186464E-02  0.10302577631E+01  0.10301670390E+01 0.  0.
     999903    2    3    3    0    0 -0.49494626752E-01 -0.48328034676E-01 -0.11357646875E+00  0.14158468398E+00  0.48593121656E-01 0.  0.
         14    1    1    2    0    0  0.11419625003E-01  0.67576916965E-02  0.32948186464E-02  0.13672236912E-01  0.00000000000E+00 0.  1.
     999901    1    3    3    0    0  0.38075001750E-01  0.41570342979E-01  0.11028165010E+00  0.88867307910E+00  0.88000000000E+00 0. -1.
        -11    1    4    4    0    0 -0.54094649414E-01 -0.23032360459E-01 -0.80615932895E-01  0.99779308883E-01  0.51100000000E-03 0. -1.
         11    1    4    4    0    0  0.46000226619E-02 -0.25295674216E-01 -0.32960535855E-01  0.41805375102E-01  0.51100000000E-03 0.  1.
</event>
<event>
 8    1  0.2846344E+004  0.1043930E+01  0.7957747E-01            NaN
         13   -1    0    0    0    0  0.00000000000E+00  0.00000000000E+00  0.74505805969E-08  0.10566000000E+00  0.10566000000E+00 0. -1.
     999900   -1    0    0    0    0 -0.00000000000E+00 -0.00000000000E+00 -0.74505805969E-08  0.93827000000E+00  0.93827000000E+00 0. -1.
     999902    2    1    2    0    0 -0.66174032571E-02  0.10821727641E-01  0.11191454486E-01  0.10270140765E+01  0.10268747562E+01 0.  0.
     999903    2    3    3    0    0 -0.17260660193E-01 -0.13084958032E-01  0.12937727083E+00  0.13872769489E+00  0.45141428904E-01 0.  0.
         14    1    1    2    0    0  0.66174032571E-02 -0.10821727641E-01 -0.11191454486E-01  0.16915923520E-01  0.00000000000E+00 0.  1.
     999901    1    3    3    0    0  0.10643256936E-01  0.23906685674E-01 -0.11818581635E+00  0.88828638159E+00  0.88000000000E+00 0. -1.
        -11    1    4    4    0    0  0.77476337978E-02  0.10516440333E-01  0.58564770700E-01  0.60005956661E-01  0.51100000000E-03 0.  1.
         11    1    4    4    0    0 -0.25008293991E-01 -0.23601398366E-01  0.70812500133E-01  0.78721738226E-01  0.51100000000E-03 0. -1.
</event>
<event>
 8    1  0.2846344E+004  0.1043930E+01  0.7957747E-01            NaN
         13   -1    0    0    0    0  0.00000000000E+00  0.00000000000E+00  0.74505805969E-08  0.10566000000E+00  0.10566000000E+00 0.  1.
     999900   -1    0    0    0    0 -0.00000000000E+00 -0.00000000000E+00 -0.74505805969E-08  0.93827000000E+00  0.93827000000E+00 0.  1.
     999902    2    1    2    0    0 -0.16423547536E-02 -0.13445003296E-01 -0.21503807223E-02  0.10302154245E+01  0.10301241340E+01 0.  0.
     999903    2    3    3    0    0 -0.10073675408E+00  0.74538325815E-01  0.40326011734E-01  0.13928051665E+00  0.45486475569E-01 0.  0.
         14    1    1    2    0    0  0.16423547536E-02  0.13445003296E-01  0.21503807223E-02  0.13714575459E-01  0.00000000000E+00 0.  1.
     999901    1    3    3    0    0  0.99094399322E-01 -0.87983329111E-01 -0.42476392456E-01  0.89093490789E+00  0.88000000000E+00 0.  1.
        -11    1    4    4    0    0 -0.99226738381E-01  0.55639182402E-01  0.29850843762E-01  0.11761376715E+00  0.51100000000E-03 0.  1.
         11    1    4    4    0    0 -0.15100156951E-02  0.18899143413E-01  0.10475167972E-01  0.21666749507E-01  0.51100000000E-03 0. -1.
</event>
<event>
 8    1  0.2846344E+004  0.1043930E+01  0.7957747E-01            NaN
         13   -1    0    0    0    0  0.00000000000E+00  0.00000000000E+00  0.74505805969E-08  0.10566000000E+00  0.10566000000E+00 0. -1.
     999900   -1    0    0    0    0 -0.00000000000E+00 -0.00000000000E+00 -0.74505805969E-08  0.93827000000E+00  0.93827000000E+00 0.  1.
     999902    2    1    2    0    0 -0.29836392424E-02  0.59668175269E-04  0.18512729227E-01  0.10251782852E+01  0.10250067754E+01 0.  0.
     999903    2    3    3    0    0 -0.97010269418E-01 -0.80725677054E-01 -0.20296907717E-01  0.13564275075E+00  0.45380216605E-01 0.  0.
         14    1    1    2    0    0  0.29836392424E-02 -0.59668175269E-04 -0.18512729227E-01  0.18751714771E-01  0.00000000000E+00 0.  1.
     999901    1    3    3    0    0  0.94026630175E-01  0.80785345230E-01  0.38809636944E-01  0.88953553448E+00  0.88000000000E+00 0. -1.
        -11    1    4    4    0    0 -0.71000891375E-01 -0.78370296737E-01 -0.26013758964E-01  0.10890365817E+00  0.51100000000E-03 0.  1.
         11    1    4    4    0    0 -0.26009378043E-01 -0.23553803169E-02  0.57168512465E-02  0.26739092576E-01  0.51100000000E-03 0. -1.
</event>
<event>
 8    1  0.2846344E+004  0.1043930E+01  0.7957747E-01            NaN
         13   -1    0    0    0    0  0.00000000000E+00  0.00000000000E+00  0.74505805969E-08  0.10566000000E+00  0.10566000000E+00 0.  1.
     999900   -1    0    0    0    0 -0.00000000000E+00 -0.00000000000E+00 -0.74505805969E-08  0.93827000000E+00  0.93827000000E+00 0. -1.
     999902    2    1    2    0    0 -0.30808059683E-02 -0.52465500297E-02  0.11466413023E-01  0.10309493883E+01  0.10308676661E+01 0.  0.
     999903    2    3    3    0    0 -0.12297477826E+00  0.41496548432E-01 -0.30232251357E-01  0.14061335035E+00  0.44870543301E-01 0.  0.
         14    1    1    2    0    0  0.30808059683E-02  0.52465500297E-02 -0.11466413023E-01  0.12980611705E-01  0.00000000000E+00 0. -1.
     999901    1    3    3    0    0  0.11989397229E+00 -0.46743098462E-01  0.41698664380E-01  0.89033603794E+00  0.88000000000E+00 0.  1.
        -11    1    4    4    0    0 -0.15496197066E-01 -0.54467981744E-02  0.65587600976E-02  0.17694015624E-01  0.51100000000E-03 0. -1.
         11    1    4    4    0    0 -0.10747858119E+00  0.46943346606E-01 -0.36791011455E-01  0.12291933473E+00  0.51100000000E-03 0.  1.
</event>
<event>
 8    1  0.2846344E+004  0.1043930E+01  0.7957747E-01            NaN
         13   -1    0    0    0    0  0.00000000000E+00  0.00000000000E+00  0.74505805969E-08  0.10566000000E+00  0.10566000000E+00 0.  1.
     999900   -1    0    0    0    0 -0.00000000000E+00 -0.00000000000E+00 -0.74505805969E-08  0.93827000000E+00  0.93827000000E+00 0. -1.
     999902    2    1    2    0    0  0.58556208290E-02  0.27787591868E-02  0.12491542668E-01  0.10298570317E+01  0.10297608739E+01 0.  0.
     999903    2    3    3    0    0  0.24233894605E-01 -0.12759532286E+00 -0.23427563425E-01  0.13933732706E+00  0.44701140018E-01 0.  0.
         14    1    1    2    0    0 -0.58556208290E-02 -0.27787591868E-02 -0.12491542668E-01  0.14072968277E-01  0.00000000000E+00 0.  1.
     999901    1    3    3    0    0 -0.18378273776E-01  0.13037408205E+00  0.35919106093E-01  0.89051970467E+00  0.88000000000E+00 0. -1.
        -11    1    4    4    0    0  0.10082626388E-01 -0.75710669871E-01  0.84028758070E-02  0.76841618476E-01  0.51100000000E-03 0. -1.
         11    1    4    4    0    0  0.14151268217E-01 -0.51884652991E-01 -0.31830439232E-01  0.62495708580E-01  0.51100000000E-03 0.  1.
</event>
<event>
 8    1  0.2846344E+004  0.1043930E+01  0.7957747E-01            NaN
         13   -1    0    0    0    0  0.00000000000E+00  0.00000000000E+00  0.74505805969E-08  0.10566000000E+00  0.10566000000E+00 0.  1.
     999900   -1    0    0    0    0 -0.00000000000E+00 -0.00000000000E+00 -0.74505805969E-08  0.93827000000E+00  0.93827000000E+00 0. -1.
     999902    2    1    2    0    0 -0.72132138786E-02  0.15729557932E-02 -0.10836997301E-01  0.10308172141E+01  0.10307338083E+01 0.  0.
     999903    2    3    3    0    0  0.10609242476E+00  0.77228695770E-01  0.33758693946E-02  0.14021968189E+00  0.49297957900E-01 0.  0.
         14    1    1    2    0    0  0.72132138786E-02 -0.15729557932E-02  0.10836997301E-01  0.13112785932E-01  0.00000000000E+00 0.  1.
     999901    1    3    3    0    0 -0.11330563864E+00 -0.75655739976E-01 -0.14212866696E-01  0.89059753218E+00  0.88000000000E+00 0.  1.
        -11    1    4    4    0    0  0.91588003370E-01  0.39517999932E-01  0.34950210172E-02  0.99812378856E-01  0.51100000000E-03 0. -1.
         11    1    4    4    0    0  0.14504421393E-01  0.37710695837E-01 -0.11915162263E-03  0.40407303035E-01  0.51100000000E-03 0.  1.
</event>
<event>
 8    1  0.2846344E+004  0.1043930E+01  0.7957747E-01            NaN
         13   -1    0    0    0    0  0.00000000000E+00  0.00000000000E+00  0.74505805969E-08  0.10566000000E+00  0.10566000000E+00 0. -1.
     999900   -1    0    0    0    0 -0.00000000000E+00 -0.00000000000E+00 -0.74505805969E-08  0.93827000000E+00  0.93827000000E+00 0.  1.
     999902    2    1    2    0    0 -0.24381885987E-02 -0.12314663576E-01  0.62009249522E-02  0.10299283154E+01  0.10298331358E+01 0.  0.
     999903    2    3    3    0    0  0.71015842545E-01  0.66018477240E-01 -0.87874106930E-01  0.13842302246E+00  0.45137404088E-01 0.  0.
         14    1    1    2    0    0  0.24381885987E-02  0.12314663576E-01 -0.62009249522E-02  0.14001684645E-01  0.00000000000E+00 0.  1.
     999901    1    3    3    0    0 -0.73454031144E-01 -0.78333140816E-01  0.94075031883E-01  0.89150529290E+00  0.88000000000E+00 0. -1.
        -11    1    4    4    0    0  0.24378733547E-01  0.47033450706E-01 -0.62824993077E-01  0.82180952846E-01  0.51100000000E-03 0. -1.
         11    1    4    4    0    0  0.46637108998E-01  0.18985026534E-01 -0.25049113854E-01  0.56242069610E-01  0.51100000000E-03 0.  1.
</event>
<event>
 8    1  0.2846344E+004  0.1043930E+01  0.7957747E-01            NaN
         13   -1    0    0    0    0  0.00000000000E+00  0.00000000000E+00  0.74505805969E-08  0.10566000000E+00  0.10566000000E+00 0.  1.
     999900   -1    0    0    0    0 -0.00000000000E+00 -0.00000000000E+00 -0.74505805969E-08  0.93827000000E+00  0.93827000000E+00 0. -1.
     999902    2    1    2    0    0 -0.19929238008E-02 -0.10151221591E-01 -0.95478510202E-02  0.10298523402E+01  0.10297561178E+01 0.  0.
     999903    2    3    3    0    0  0.55215744516E-01  0.31010952573E-03 -0.12182844033E+00  0.14081398229E+00  0.44017429777E-01 0.  0.
         14    1    1    2    0    0  0.19929238008E-02  0.10151221591E-01  0.95478510202E-02  0.14077659755E-01  0.00000000000E+00 0.  1.
     999901    1    3    3    0    0 -0.57208668317E-01 -0.10461331117E-01  0.11228058931E+00  0.88903835796E+00  0.88000000000E+00 0.  1.
        -11    1    4    4    0    0  0.21341186120E-01 -0.21500988275E-01 -0.50491336933E-01  0.58884420249E-01  0.51100000000E-03 0. -1.
         11    1    4    4    0    0  0.33874558396E-01  0.21811097800E-01 -0.71337103400E-01  0.81929562041E-01  0.51100000000E-03 0.  1.
</event>
<event>
 8    1  0.2846344E+004  0.1043930E+01  0.7957747E-01            NaN
         13   -1    0    0    0    0  0.00000000000E+00  0.00000000000E+00  0.74505805969E-08  0.10566000000E+00  0.10566000000E+00 0.  1.
     999900   -1    0    0    0    0 -0.00000000000E+00 -0.00000000000E+00 -0.74505805969E-08  0.93827000000E+00  0.93827000000E+00 0. -1.
     999902    2    1    2    0    0  0.84076550294E-02  0.73063625841E-02  0.91935572023E-02  0.10294872478E+01  0.10293859336E+01 0.  0.
     999903    2    3    3    0    0 -0.29040444846E-01 -0.47503540061E-01 -0.11729374153E+00  0.13796858711E+00  0.46664499045E-01 0.  0.
         14    1    1    2    0    0 -0.84076550294E-02 -0.73063625841E-02 -0.91935572023E-02  0.14442752208E-01  0.00000000000E+00 0. -1.
     999901    1    3    3    0    0  0.37448099876E-01  0.54809902645E-01  0.12648729873E+00  0.89151866069E+00  0.88000000000E+00 0.  1.
        -11    1    4    4    0    0 -0.22643368432E-01 -0.43309167887E-01 -0.48865672414E-01  0.69112381079E-01  0.51100000000E-03 0. -1.
         11    1    4    4    0    0 -0.63970764141E-02 -0.41943721735E-02 -0.68428069115E-01  0.68856206026E-01  0.51100000000E-03 0.  1.
</event>
<event>
 8    1  0.2846344E+004  0.1043930E+01  0.7957747E-01            NaN
         13   -1    0    0    0    0  0.00000000000E+00  0.00000000000E+00  0.74505805969E-08  0.10566000000E+00  0.10566000000E+00 0. -1.
     999900   -1    0    0    0    0 -0.00000000000E+00 -0.00000000000E+00 -0.74505805969E-08  0.93827000000E+00  0.93827000000E+00 0.  1.
     999902    2    1    2    0    0 -0.10052618419E-01 -0.50858402113E-02 -0.77656550390E-02  0.10302469336E+01  0.10301560648E+01 0.  0.
     999903    2    3    3    0    0 -0.10338342688E+00 -0.16997469406E-01 -0.84625858940E-01  0.14190014453E+00  0.44688567852E-01 0.  0.
         14    1    1    2    0    0  0.10052618419E-01  0.50858402113E-02  0.77656550390E-02  0.13683066393E-01  0.00000000000E+00 0.  1.
     999901    1    3    3    0    0  0.93330808462E-01  0.11911629195E-01  0.76860203901E-01  0.88834678908E+00  0.88000000000E+00 0. -1.
        -11    1    4    4    0    0 -0.68802870139E-01  0.12197611524E-02 -0.74709332297E-01  0.10157296988E+00  0.51100000000E-03 0. -1.
         11    1    4    4    0    0 -0.34580556742E-01 -0.18217230558E-01 -0.99165266431E-02  0.40327174653E-01  0.51100000000E-03 0.  1.
</event>
<event>
 8    1  0.2846344E+004  0.1043930E+01  0.7957747E-01            NaN
         13   -1    0    0    0    0  0.00000000000E+00  0.00000000000E+00  0.74505805969E-08  0.10566000000E+00  0.10566000000E+00 0.  1.
     999900   -1    0    0    0    0 -0.00000000000E+00 -0.00000000000E+00 -0.74505805969E-08  0.93827000000E+00  0.93827000000E+00 0. -1.
     999902    2    1    2    0    0  0.11466094758E-01  0.10629659705E-01  0.78713586194E-02  0.10264251641E+01  0.10262758879E+01 0.  0.
     999903    2    3    3    0    0 -0.18276420550E-01  0.10020489984E+00  0.81534145337E-01  0.13831788057E+00  0.45923520430E-01 0.  0.
         14    1    1    2    0    0 -0.11466094758E-01 -0.10629659705E-01 -0.78713586194E-02  0.17504835930E-01  0.00000000000E+00 0.  1.
     999901    1    3    3    0    0  0.29742515308E-01 -0.89575240136E-01 -0.73662786718E-01  0.88810728350E+00  0.88000000000E+00 0. -1.
        -11    1    4    4    0    0 -0.31223710570E-01  0.52480727768E-01  0.34859552507E-01  0.70317824275E-01  0.51100000000E-03 0.  1.
         11    1    4    4    0    0  0.12947290020E-01  0.47724172073E-01  0.46674592830E-01  0.68000056293E-01  0.51100000000E-03 0. -1.
</event>
<event>
 8    1  0.2846344E+004  0.1043930E+01  0.7957747E-01            NaN
         13   -1    0    0    0    0  0.00000000000E+00  0.00000000000E+00  0.74505805969E-08  0.10566000000E+00  0.10566000000E+00 0. -1.
     999900   -1    0    0    0    0 -0.00000000000E+00 -0.00000000000E+00 -0.74505805969E-08  0.93827000000E+00  0.93827000000E+00 0.  1.
     999902    2    1    2    0    0  0.17860712472E-01  0.72746265675E-02 -0.11195380525E-01  0.10216306326E+01  0.10213872369E+01 0.  0.
     999903    2    3    3    0    0 -0.34750243168E-01  0.26856954844E-01 -0.11771218017E+00  0.13343177601E+00  0.44933351365E-01 0.  0.
         14    1    1    2    0    0 -0.17860712472E-01 -0.72746265675E-02  0.11195380525E-01  0.22299367408E-01  0.00000000000E+00 0. -1.
     999901    1    3    3    0    0  0.52610955639E-01 -0.19582328276E-01  0.10651679964E+00  0.88819885659E+00  0.88000000000E+00 0. -1.
        -11    1    4    4    0    0 -0.21070649760E-01 -0.39032242596E-02 -0.80248917024E-01  0.83062369612E-01  0.51100000000E-03 0.  1.
         11    1    4    4    0    0 -0.13679593407E-01  0.30760179104E-01 -0.37463263142E-01  0.50369406395E-01  0.51100000000E-03 0. -1.
</event>
<event>
 8    1  0.2846344E+004  0.1043930E+01  0.7957747E-01            NaN
         13   -1    0    0    0    0  0.00000000000E+00  0.00000000000E+00  0.74505805969E-08  0.10566000000E+00  0.10566000000E+00 0. -1.
     999900   -1    0    0    0    0 -0.00000000000E+00 -0.00000000000E+00 -0.74505805969E-08  0.93827000000E+00  0.93827000000E+00 0.  1.
     999902    2    1    2    0    0 -0.11650206471E-01  0.17492730266E-02  0.40698647954E-02  0.10314660092E+01  0.10313907005E+01 0.  0.
     999903    2    3    3    0    0 -0.17428172800E-01  0.29593092927E-01 -0.12941593148E+00  0.14094530703E+00  0.44018222331E-01 0.  0.
         14    1    1    2    0    0  0.11650206471E-01 -0.17492730266E-02 -0.40698647954E-02  0.12463990789E-01  0.00000000000E+00 0.  1.
     999901    1    3    3    0    0  0.57779663297E-02 -0.27843819900E-01  0.13348579628E+00  0.89052070218E+00  0.88000000000E+00 0. -1.
        -11    1    4    4    0    0  0.13789811171E-01  0.11880020053E-01 -0.61330817794E-01  0.63976746563E-01  0.51100000000E-03 0.  1.
         11    1    4    4    0    0 -0.31217983971E-01  0.17713072874E-01 -0.68085113687E-01  0.76968560469E-01  0.51100000000E-03 0. -1.
</event>
<event>
 8    1  0.2846344E+004  0.1043930E+01  0.7957747E-01            NaN
         13   -1    0    0    0    0  0.00000000000E+00  0.00000000000E+00  0.74505805969E-08  0.10566000000E+00  0.10566000000E+00 0. -1.
     999900   -1    0    0    0    0 -0.00000000000E+00 -0.00000000000E+00 -0.74505805969E-08  0.93827000000E+00  0.93827000000E+00 0.  1.
     999902    2    1    2    0    0 -0.86157029621E-02 -0.41261321840E-02 -0.84059945087E-02  0.10312053763E+01  0.10311268652E+01 0.  0.
     999903    2    3    3    0    0  0.71578469131E-01 -0.11253447968E+00  0.35075009792E-02  0.14085409372E+00  0.45167319966E-01 0.  0.
         14    1    1    2    0    0  0.86157029621E-02  0.41261321840E-02  0.84059945087E-02  0.12724623688E-01  0.00000000000E+00 0. -1.
     999901    1    3    3    0    0 -0.80194172093E-01  0.10840834750E+00 -0.11913495488E-01  0.89035128260E+00  0.88000000000E+00 0.  1.
        -11    1    4    4    0    0  0.17589851733E-01 -0.40524880244E-01  0.21399805398E-01  0.49090544862E-01  0.51100000000E-03 0.  1.
         11    1    4    4    0    0  0.53988617398E-01 -0.72009599438E-01 -0.17892304419E-01  0.91763548854E-01  0.51100000000E-03 0. -1.
</event>
<event>
 8    1  0.2846344E+004  0.1043930E+01  0.7957747E-01            NaN
         13   -1    0    0    0    0  0.00000000000E+00  0.00000000000E+00  0.74505805969E-08  0.10566000000E+00  0.10566000000E+00 0. -1.
     999900   -1    0    0    0    0 -0.00000000000E+00 -0.00000000000E+00 -0.74505805969E-08  0.93827000000E+00  0.93827000000E+00 0.  1.
     999902    2    1    2    0    0  0.92316541466E-02  0.92524089030E-02 -0.25656082974E-02  0.10306103583E+01  0.10305242830E+01 0.  0.
     999903    2    3    3    0    0 -0.95768788027E-01  0.62647829778E-01 -0.67412084406E-01  0.14039621032E+00  0.45500499020E-01 0.  0.
         14    1    1    2    0    0 -0.92316541466E-02 -0.92524089030E-02  0.25656082974E-02  0.13319641689E-01  0.00000000000E+00 0. -1.
     999901    1    3    3    0    0  0.10500044217E+00 -0.53395420875E-01  0.64846476108E-01  0.89021414800E+00  0.88000000000E+00 0. -1.
        -11    1    4    4    0    0 -0.13255584873E-01 -0.69452508536E-02 -0.11156404615E-01  0.18672801736E-01  0.51100000000E-03 0.  1.
         11    1    4    4    0    0 -0.82513203154E-01  0.69593080632E-01 -0.56255679791E-01  0.12172340858E+00  0.51100000000E-03 0. -1.
</event>
<event>
 8    1  0.2846344E+004  0.1043930E+01  0.7957747E-01            NaN
         13   -1    0    0    0    0  0.00000000000E+00  0.00000000000E+00  0.74505805969E-08  0.10566000000E+00  0.10566000000E+00 0. -1.
     999900   -1    0    0    0    0 -0.00000000000E+00 -0.00000000000E+00 -0.74505805969E-08  0.93827000000E+00  0.93827000000E+00 0.  1.
     999902    2    1    2    0    0  0.75313429800E-02  0.11529668559E-01  0.83793069636E-03  0.10301330253E+01  0.10300406270E+01 0.  0.
     999903    2    3    3    0    0 -0.49218914865E-01  0.12470104203E+00  0.17539238817E-03  0.14107240275E+00  0.43915152182E-01 0.  0.
         14    1    1    2    0    0 -0.75313429800E-02 -0.11529668559E-01 -0.83793069636E-03  0.13796974741E-01  0.00000000000E+00 0.  1.
     999901    1    3    3    0    0  0.56750257845E-01 -0.11317137347E+00  0.66253830820E-03  0.88906062251E+00  0.88000000000E+00 0. -1.
        -11    1    4    4    0    0 -0.37214641856E-01  0.72210690018E-01 -0.19839206203E-01  0.83625166936E-01  0.51100000000E-03 0.  1.
         11    1    4    4    0    0 -0.12004273009E-01  0.52490352012E-01  0.20014598591E-01  0.57447235814E-01  0.51100000000E-03 0. -1.
</event>
<event>
 8    1  0.2846344E+004  0.1043930E+01  0.7957747E-01            NaN
         13   -1    0    0    0    0  0.00000000000E+00  0.00000000000E+00  0.74505805969E-08  0.10566000000E+00  0.10566000000E+00 0. -1.
     999900   -1    0    0    0    0 -0.00000000000E+00 -0.00000000000E+00 -0.74505805969E-08  0.93827000000E+00  0.93827000000E+00 0.  1.
     999902    2    1    2    0    0  0.10074023853E-01  0.84422683874E-02 -0.18176005307E-02  0.10306611823E+01  0.10305757668E+01 0.  0.
     999903    2    3    3    0    0  0.48270901442E-01  0.83485412946E-01 -0.93559528403E-01  0.14189402698E+00  0.45613982909E-01 0.  0.
         14    1    1    2    0    0 -0.10074023853E-01 -0.84422683874E-02  0.18176005307E-02  0.13268817725E-01  0.00000000000E+00 0.  1.
     999901    1    3    3    0    0 -0.38196877589E-01 -0.75043144559E-01  0.91741927872E-01  0.88876715530E+00  0.88000000000E+00 0.  1.
        -11    1    4    4    0    0  0.34464706779E-01  0.73974405353E-01 -0.94783148841E-01  0.12507651692E+00  0.51100000000E-03 0.  1.
         11    1    4    4    0    0  0.13806194662E-01  0.95110075937E-02  0.12236204381E-02  0.16817510056E-01  0.51100000000E-03 0. -1.
</event>
<event>
 8    1  0.2846344E+004  0.1043930E+01  0.7957747E-01            NaN
         13   -1    0    0    0    0  0.00000000000E+00  0.00000000000E+00  0.74505805969E-08  0.10566000000E+00  0.10566000000E+00 0. -1.
     999900   -1    0    0    0    0 -0.00000000000E+00 -0.00000000000E+00 -0.74505805969E-08  0.93827000000E+00  0.93827000000E+00 0.  1.
     999902    2    1    2    0    0 -0.10317391284E-01  0.54504763043E-03  0.15914427747E-02  0.10334763724E+01  0.10334235018E+01 0.  0.
     999903    2    3    3    0    0 -0.74149647476E-01  0.10268506086E+00 -0.50717431698E-01  0.14373295007E+00  0.45216270446E-01 0.  0.
         14    1    1    2    0    0  0.10317391284E-01 -0.54504763043E-03 -0.15914427747E-02  0.10453627597E-01  0.00000000000E+00 0. -1.
     999901    1    3    3    0    0  0.63832256192E-01 -0.10214001323E+00  0.52308874473E-01  0.88974342233E+00  0.88000000000E+00 0. -1.
        -11    1    4    4    0    0 -0.31610501566E-01  0.72689253406E-01 -0.45553009855E-01  0.91423679634E-01  0.51100000000E-03 0.  1.
         11    1    4    4    0    0 -0.42539145910E-01  0.29995807456E-01 -0.51644218435E-02  0.52309270438E-01  0.51100000000E-03 0. -1.
</event>
<event>
 8    1  0.2846344E+004  0.1043930E+01  0.7957747E-01            NaN
         13   -1    0    0    0    0  0.00000000000E+00  0.00000000000E+00  0.74505805969E-08  0.10566000000E+00  0.10566000000E+00 0. -1.
     999900   -1    0    0    0    0 -0.00000000000E+00 -0.00000000000E+00 -0.74505805969E-08  0.93827000000E+00  0.93827000000E+00 0.  1.
     999902    2    1    2    0    0  0.12108108904E-01  0.74459154809E-02  0.27106952483E-02  0.10294594842E+01  0.10293577774E+01 0.  0.
     999903    2    3    3    0    0 -0.46656719290E-01  0.46246902529E-01 -0.11350772541E+00  0.13902950778E+00  0.46147316896E-01 0.  0.
         14    1    1    2    0    0 -0.12108108904E-01 -0.74459154809E-02 -0.27106952483E-02  0.14470515793E-01  0.00000000000E+00 0. -1.
     999901    1    3    3    0    0  0.58764828195E-01 -0.38800987048E-01  0.11621842066E+00  0.89042997643E+00  0.88000000000E+00 0. -1.
        -11    1    4    4    0    0 -0.38950201518E-01  0.61843058452E-02 -0.57995967049E-01  0.70136703316E-01  0.51100000000E-03 0. -1.
         11    1    4    4    0    0 -0.77065177717E-02  0.40062596684E-01 -0.55511758358E-01  0.68892804459E-01  0.51100000000E-03 0.  1.
</event>
<event>
 8    1  0.2846344E+004  0.1043930E+01  0.7957747E-01            NaN
         13   -1    0    0    0    0  0.00000000000E+00  0.00000000000E+00  0.74505805969E-08  0.10566000000E+00  0.10566000000E+00 0.  1.
     999900   -1    0    0    0    0 -0.00000000000E+00 -0.00000000000E+00 -0.74505805969E-08  0.93827000000E+00  0.93827000000E+00 0. -1.
     999902    2    1    2    0    0 -0.95176853419E-02  0.90572215312E-02  0.46422362364E-03  0.10307833236E+01  0.10306994834E+01 0.  0.
     999903    2    3    3    0    0 -0.27470281207E-01 -0.81927134354E-02 -0.13030764415E+00  0.14077144879E+00  0.44886320476E-01 0.  0.
         14    1    1    2    0    0  0.95176853419E-02 -0.90572215312E-02 -0.46422362364E-03  0.13146676375E-01  0.00000000000E+00 0. -1.
     999901    1    3    3    0    0  0.17952595865E-01  0.17249934967E-01  0.13077186777E+00  0.89001187484E+00  0.88000000000E+00 0.  1.
        -11    1    4    4    0    0 -0.16211982333E-02  0.47829640036E-03 -0.99945610075E-01  0.99961208203E-01  0.51100000000E-03 0.  1.
         11    1    4    4    0    0 -0.25849082974E-01 -0.86710098358E-02 -0.30362034076E-01  0.40810240582E-01  0.51100000000E-03 0. -1.
</event>
<event>
 8    1  0.2846344E+004  0.1043930E+01  0.7957747E-01            NaN
         13   -1    0    0    0    0  0.00000000000E+00  0.00000000000E+00  0.74505805969E-08  0.10566000000E+00  0.10566000000E+00 0. -1.
     999900   -1    0    0    0    0 -0.00000000000E+00 -0.00000000000E+00 -0.74505805969E-08  0.93827000000E+00  0.93827000000E+00 0. -1.
     999902    2    1    2    0    0  0.28729577251E-02 -0.59206505738E-02 -0.12371945352E-01  0.10299166842E+01  0.10298213453E+01 0.  0.
     999903    2    3    3    0    0  0.12093766982E+00  0.52332564346E-01  0.11407525102E-01  0.13980535600E+00  0.45285634185E-01 0.  0.
         14    1    1    2    0    0 -0.28729577251E-02  0.59206505738E-02  0.12371945352E-01  0.14013315849E-01  0.00000000000E+00 0. -1.
     999901    1    3    3    0    0 -0.11806471210E+00 -0.58253214919E-01 -0.23779470454E-01  0.89011132815E+00  0.88000000000E+00 0.  1.
        -11    1    4    4    0    0  0.85112754136E-01  0.39019585530E-01  0.28588682567E-01  0.97899350679E-01  0.51100000000E-03 0.  1.
         11    1    4    4    0    0  0.35824915687E-01  0.13312978815E-01 -0.17181157464E-01  0.41906005318E-01  0.51100000000E-03 0. -1.
</event>
<event>
 8    1  0.2846344E+004  0.1043930E+01  0.7957747E-01            NaN
         13   -1    0    0    0    0  0.00000000000E+00  0.00000000000E+00  0.74505805969E-08  0.10566000000E+00  0.10566000000E+00 0. -1.
     999900   -1    0    0    0    0 -0.00000000000E+00 -0.00000000000E+00 -0.74505805969E-08  0.93827000000E+00  0.93827000000E+00 0. -1.
     999902    2    1    2    0    0 -0.59655094760E-02  0.31659399191E-02  0.12028447537E-01  0.10301352898E+01  0.10300429221E+01 0.  0.
     999903    2    3    3    0    0 -0.11092869552E+00  0.53853863673E-02  0.76017056073E-01  0.14158774557E+00  0.43980893633E-01 0.  0.
         14    1    1    2    0    0  0.59655094760E-02 -0.31659399191E-02 -0.12028447537E-01  0.13794710183E-01  0.00000000000E+00 0.  1.
     999901    1    3    3    0    0  0.10496318605E+00 -0.22194464482E-02 -0.63988608536E-01  0.88854754425E+00  0.88000000000E+00 0. -1.
        -11    1    4    4    0    0 -0.46579359360E-01 -0.14480737199E-01  0.48642350179E-01  0.68888807655E-01  0.51100000000E-03 0.  1.
         11    1    4    4    0    0 -0.64349336161E-01  0.19866123566E-01  0.27374705894E-01  0.72698937914E-01  0.51100000000E-03 0. -1.
</event>
<event>
 8    1  0.2846344E+004  0.1043930E+01  0.7957747E-01            NaN
         13   -1    0    0    0    0  0.00000000000E+00  0.00000000000E+00  0.74505805969E-08  0.10566000000E+00  0.10566000000E+00 0. -1.
     999900   -1    0    0    0    0 -0.00000000000E+00 -0.00000000000E+00 -0.74505805969E-08  0.93827000000E+00  0.93827000000E+00 0.  1.
     999902    2    1    2    0    0 -0.64163430249E-02  0.92911361686E-02 -0.56804493204E-02  0.10312902938E+01  0.10312128334E+01 0.  0.
     999903    2    3    3    0    0 -0.20288125871E-01 -0.11637555474E+00 -0.61197290888E-01  0.14052283631E+00  0.45240262157E-01 0.  0.
         14    1    1    2    0    0  0.64163430249E-02 -0.92911361686E-02  0.56804493204E-02  0.12639706231E-01  0.00000000000E+00 0.  1.
     999901    1    3    3    0    0  0.13871782846E-01  0.12566669091E+00  0.55516841568E-01  0.89076745746E+00  0.88000000000E+00 0.  1.
        -11    1    4    4    0    0 -0.24818640084E-01 -0.47780402290E-01 -0.44311119309E-01  0.69732834118E-01  0.51100000000E-03 0.  1.
         11    1    4    4    0    0  0.45305142127E-02 -0.68595152455E-01 -0.16886171579E-01  0.70790002196E-01  0.51100000000E-03 0. -1.
</event>
<event>
 8    1  0.2846344E+004  0.1043930E+01  0.7957747E-01            NaN
         13   -1    0    0    0    0  0.00000000000E+00  0.00000000000E+00  0.74505805969E-08  0.10566000000E+00  0.10566000000E+00 0. -1.
     999900   -1    0    0    0    0 -0.00000000000E+00 -0.00000000000E+00 -0.74505805969E-08  0.93827000000E+00  0.93827000000E+00 0. -1.
     999902    2    1    2    0    0  0.11769142176E-01  0.50882440991E-02  0.20873575301E-02  0.10309392342E+01  0.10308573832E+01 0.  0.
     999903    2    3    3    0    0  0.12556285770E+00 -0.43173632222E-01  0.23296171645E-01  0.14204777161E+00  0.44775708311E-01 0.  0.
         14    1    1    2    0    0 -0.11769142176E-01 -0.50882440991E-02 -0.20873575301E-02  0.12990765837E-01  0.00000000000E+00 0. -1.
     999901    1    3    3    0    0 -0.11379371552E+00  0.48261876321E-01 -0.21208814115E-01  0.88889146255E+00  0.88000000000E+00 0. -1.
        -11    1    4    4    0    0  0.94256453616E-01 -0.43807280811E-01  0.16058786842E-02  0.10395285887E+00  0.51100000000E-03 0.  1.
         11    1    4    4    0    0  0.31306404081E-01  0.63364858927E-03  0.21690292961E-01  0.38094912741E-01  0.51100000000E-03 0. -1.
</event>
<event>
 8    1  0.2846344E+004  0.1043930E+01  0.7957747E-01            NaN
         13   -1    0    0    0    0  0.00000000000E+00  0.00000000000E+00  0.74505805969E-08  0.10566000000E+00  0.10566000000E+00 0.  1.
     999900   -1    0    0    0    0 -0.00000000000E+00 -0.00000000000E+00 -0.74505805969E-08  0.93827000000E+00  0.93827000000E+00 0. -1.
     999902    2    1    2    0    0 -0.89662573844E-02  0.12937700126E-01  0.56295553256E-02  0.10272126513E+01  0.10270766092E+01 0.  0.
     999903    2    3    3    0    0  0.53419833204E-01  0.11945941216E+00  0.17949259863E-02  0.13858809396E+00  0.45598336558E-01 0.  0.
         14    1    1    2    0    0  0.89662573844E-02 -0.12937700126E-01 -0.56295553256E-02  0.16717348749E-01  0.00000000000E+00 0. -1.
     999901    1    3    3    0    0 -0.62386090588E-01 -0.10652171203E+00  0.38346293393E-02  0.88862455729E+00  0.88000000000E+00 0. -1.
        -11    1    4    4    0    0  0.36946539492E-01  0.36718893949E-01 -0.11046298295E-01  0.53250406387E-01  0.51100000000E-03 0. -1.
         11    1    4    4    0    0  0.16473293711E-01  0.82740518207E-01  0.12841224282E-01  0.85337687576E-01  0.51100000000E-03 0.  1.
</event>
<event>
 8    1  0.2846344E+004  0.1043930E+01  0.7957747E-01            NaN
         13   -1    0    0    0    0  0.00000000000E+00  0.00000000000E+00  0.74505805969E-08  0.10566000000E+00  0.10566000000E+00 0. -1.
     999900   -1    0    0    0    0 -0.00000000000E+00 -0.00000000000E+00 -0.74505805969E-08  0.93827000000E+00  0.93827000000E+00 0. -1.
     999902    2    1    2    0    0 -0.33323143331E-02 -0.56850006028E-02 -0.12742054513E-01  0.10295848439E+01  0.10294849039E+01 0.  0.
     999903    2    3    3    0    0 -0.12878070263E+00 -0.12187664875E-01 -0.30287473382E-01  0.14049124674E+00  0.45688629018E-01 0.  0.
         14    1    1    2    0    0  0.33323143331E-02  0.56850006028E-02  0.12742054513E-01  0.14345156112E-01  0.00000000000E+00 0. -1.
     999901    1    3    3    0    0  0.12544838830E+00  0.65026642723E-02  0.17545418869E-01  0.88909359715E+00  0.88000000000E+00 0.  1.
        -11    1    4    4    0    0 -0.10840252506E+00  0.35500845769E-02 -0.12471642793E-01  0.10917652465E+00  0.51100000000E-03 0. -1.
         11    1    4    4    0    0 -0.20378177569E-01 -0.15737749452E-01 -0.17815830589E-01  0.31314722088E-01  0.51100000000E-03 0.  1.
</event>
<event>
 8    1  0.2846344E+004  0.1043930E+01  0.7957747E-01            NaN
         13   -1    0    0    0    0  0.00000000000E+00  0.00000000000E+00  0.74505805969E-08  0.10566000000E+00  0.10566000000E+00 0.  1.
     999900   -1    0    0    0    0 -0.00000000000E+00 -0.00000000000E+00 -0.74505805969E-08  0.93827000000E+00  0.93827000000E+00 0.  1.
     999902    2    1    2    0    0  0.10424370244E-01 -0.27857205468E-02 -0.71278468728E-02  0.10309981040E+01  0.10309169978E+01 0.  0.
     999903    2    3    3    0    0  0.58481113710E-01 -0.10732420919E+00 -0.58027207709E-01  0.14205013522E+00  0.43273057945E-01 0.  0.
         14    1    1    2    0    0 -0.10424370244E-01  0.27857205468E-02  0.71278468728E-02  0.12931896032E-01  0.00000000000E+00 0.  1.
     999901    1    3    3    0    0 -0.48056743467E-01  0.10453848864E+00  0.50899360836E-01  0.88894796874E+00  0.88000000000E+00 0. -1.
        -11    1    4    4    0    0  0.30340308754E-01 -0.33204341204E-01 -0.21091218620E-02  0.45030790867E-01  0.51100000000E-03 0. -1.
         11    1    4    4    0    0  0.28140804956E-01 -0.74119867985E-01 -0.55918085847E-01  0.97019344357E-01  0.51100000000E-03 0.  1.
</event>
<event>
 8    1  0.2846344E+004  0.1043930E+01  0.7957747E-01            NaN
         13   -1    0    0    0    0  0.00000000000E+00  0.00000000000E+00  0.74505805969E-08  0.10566000000E+00  0.10566000000E+00 0. -1.
     999900   -1    0    0    0    0 -0.00000000000E+00 -0.00000000000E+00 -0.74505805969E-08  0.93827000000E+00  0.93827000000E+00 0. -1.
     999902    2    1    2    0    0  0.81697454338E-02 -0.78655611382E-02  0.81137764984E-02  0.10299856405E+01  0.10298912440E+01 0.  0.
     999903    2    3    3    0    0 -0.29627677348E-01 -0.95506993532E-01 -0.86565330446E-01  0.13977566577E+00  0.45213883123E-01 0.  0.
         14    1    1    2    0    0 -0.81697454338E-02  0.78655611382E-02 -0.81137764984E-02  0.13944359488E-01  0.00000000000E+00 0.  1.
     999901    1    3    3    0    0  0.37797422782E-01  0.87641432394E-01  0.94679106944E-01  0.89020997474E+00  0.88000000000E+00 0.  1.
        -11    1    4    4    0    0  0.73344830323E-02 -0.42780866084E-01 -0.22303739648E-01  0.48802818233E-01  0.51100000000E-03 0.  1.
         11    1    4    4    0    0 -0.36962160381E-01 -0.52726127449E-01 -0.64261590798E-01  0.90972847535E-01  0.51100000000E-03 0. -1.
</event>
<event>
 8    1  0.2846344E+004  0.1043930E+01  0.7957747E-01            NaN
         13   -1    0    0    0    0  0.00000000000E+00  0.00000000000E+00  0.74505805969E-08  0.10566000000E+00  0.10566000000E+00 0.  1.
     999900   -1    0    0    0    0 -0.00000000000E+00 -0.00000000000E+00 -0.74505805969E-08  0.93827000000E+00  0.93827000000E+00 0.  1.
     999902    2    1    2    0    0  0.98111696286E-02  0.69745381638E-02 -0.70521494252E-02  0.10299787978E+01  0.10298843080E+01 0.  0.
     999903    2    3    3    0    0  0.11369817913E+00 -0.69896950329E-01 -0.24366024199E-02  0.14052782118E+00  0.43923477689E-01 0.  0.
         14    1    1    2    0    0 -0.98111696286E-02 -0.69745381638E-02  0.70521494252E-02  0.13951202228E-01  0.00000000000E+00 0.  1.
     999901    1    3    3    0    0 -0.10388700950E+00  0.76871488493E-01 -0.46155470053E-02  0.88945097659E+00  0.88000000000E+00 0.  1.
        -11    1    4    4    0    0  0.41003248426E-01 -0.21163272102E-02  0.10327965963E-02  0.41073994353E-01  0.51100000000E-03 0.  1.
         11    1    4    4    0    0  0.72694930702E-01 -0.67780623119E-01 -0.34693990162E-02  0.99453826827E-01  0.51100000000E-03 0. -1.
</event>
<event>
 8    1  0.2846344E+004  0.1043930E+01  0.7957747E-01            NaN
         13   -1    0    0    0    0  0.00000000000E+00  0.00000000000E+00  0.74505805969E-08  0.10566000000E+00  0.10566000000E+00 0. -1.
     999900   -1    0    0    0    0 -0.00000000000E+00 -0.00000000000E+00 -0.74505805969E-08  0.93827000000E+00  0.93827000000E+00 0. -1.
     999902    2    1    2    0    0 -0.76008975287E-02  0.88182194002E-02  0.72433043774E-02  0.10302186873E+01  0.10301274405E+01 0.  0.
     999903    2    3    3    0    0  0.11006928333E+00  0.27136383351E-01 -0.69010991754E-01  0.13892942774E+00  0.41076008527E-01 0.  0.
         14    1    1    2    0    0  0.76008975287E-02 -0.88182194002E-02 -0.72433043774E-02  0.13711312663E-01  0.00000000000E+00 0.  1.
     999901    1    3    3    0    0 -0.11767018085E+00 -0.18318163951E-01  0.76254296132E-01  0.89128925960E+00  0.88000000000E+00 0.  1.
        -11    1    4    4    0    0  0.64310328512E-01  0.10610776457E-01 -0.61655720889E-01  0.89722327041E-01  0.51100000000E-03 0. -1.
         11    1    4    4    0    0  0.45758954813E-01  0.16525606894E-01 -0.73552708657E-02  0.49207100700E-01  0.51100000000E-03 0.  1.
</event>
<event>
 8    1  0.2846344E+004  0.1043930E+01  0.7957747E-01            NaN
         13   -1    0    0    0    0  0.00000000000E+00  0.00000000000E+00  0.74505805969E-08  0.10566000000E+00  0.10566000000E+00 0. -1.
     999900   -1    0    0    0    0 -0.00000000000E+00 -0.00000000000E+00 -0.74505805969E-08  0.93827000000E+00  0.93827000000E+00 0.  1.
     999902    2    1    2    0    0 -0.10465292492E-01  0.93141848752E-02 -0.15402430475E-01  0.10231090670E+01  0.10228971853E+01 0.  0.
     999903    2    3    3    0    0 -0.11758789537E-01  0.27946441684E-01 -0.12477588727E+00  0.13614154381E+00  0.45235220499E-01 0.  0.
         14    1    1    2    0    0  0.10465292492E-01 -0.93141848752E-02  0.15402430475E-01  0.20820933010E-01  0.00000000000E+00 0. -1.
     999901    1    3    3    0    0  0.12934970449E-02 -0.18632256809E-01  0.10937345679E+00  0.88696752318E+00  0.88000000000E+00 0. -1.
        -11    1    4    4    0    0  0.97608865480E-03  0.35832250091E-01 -0.62157843431E-01  0.71754871031E-01  0.51100000000E-03 0. -1.
         11    1    4    4    0    0 -0.12734878192E-01 -0.78858084068E-02 -0.62618043835E-01  0.64386672778E-01  0.51100000000E-03 0.  1.
</event>
<event>
 8    1  0.2846344E+004  0.1043930E+01  0.7957747E-01            NaN
         13   -1    0    0    0    0  0.00000000000E+00  0.00000000000E+00  0.74505805969E-08  0.10566000000E+00  0.10566000000E+00 0.  1.
     999900   -1    0    0    0    0 -0.00000000000E+00 -0.00000000000E+00 -0.74505805969E-08  0.93827000000E+00  0.93827000000E+00 0. -1.
     999902    2    1    2    0    0  0.38200978555E-02 -0.54462652051E-02 -0.14125997302E-01  0.10283159438E+01  0.10281973942E+01 0.  0.
     999903    2    3    3    0    0 -0.12898860518E+00  0.11406012968E-01 -0.17848565204E-01  0.13818336466E+00  0.44809748828E-01 0.  0.
         14    1    1    2    0    0 -0.38200978555E-02  0.54462652051E-02  0.14125997302E-01  0.15614056234E-01  0.00000000000E+00 0.  1.
     999901    1    3    3    0    0  0.13280870303E+00 -0.16852278173E-01  0.37225679027E-02  0.89013257911E+00  0.88000000000E+00 0.  1.
        -11    1    4    4    0    0 -0.12635331897E+00  0.15775589835E-01 -0.24615484870E-01  0.12969276643E+00  0.51100000000E-03 0.  1.
         11    1    4    4    0    0 -0.26352862105E-02 -0.43695768667E-02  0.67669196658E-02  0.84905982221E-02  0.51100000000E-03 0. -1.
</event>
<event>
 8    1  0.2846344E+004  0.1043930E+01  0.7957747E-01            NaN
         13   -1    0    0    0    0  0.00000000000E+00  0.00000000000E+00  0.74505805969E-08  0.10566000000E+00  0.10566000000E+00 0.  1.
     999900   -1    0    0    0    0 -0.00000000000E+00 -0.00000000000E+00 -0.74505805969E-08  0.93827000000E+00  0.93827000000E+00 0. -1.
     999902    2    1    2    0    0  0.13494179861E-02 -0.22611009391E-02 -0.13143607350E-01  0.10305252277E+01  0.10304380413E+01 0.  0.
     999903    2    3    3    0    0  0.69561251353E-01  0.58395890534E-01  0.95382315867E-01  0.13917232293E+00  0.44970007430E-01 0.  0.
         14    1    1    2    0    0 -0.13494179861E-02  0.22611009391E-02  0.13143607350E-01  0.13404772305E-01  0.00000000000E+00 0.  1.
     999901    1    3    3    0    0 -0.68211833366E-01 -0.60656991473E-01 -0.10852592322E+00  0.89135290477E+00  0.88000000000E+00 0. -1.
        -11    1    4    4    0    0  0.29836488079E-01  0.33889549645E-01  0.76472782935E-01  0.88809150693E-01  0.51100000000E-03 0.  1.
         11    1    4    4    0    0  0.39724763274E-01  0.24506340889E-01  0.18909532932E-01  0.50363172235E-01  0.51100000000E-03 0. -1.
</event>
<event>
 8    1  0.2846344E+004  0.1043930E+01  0.7957747E-01            NaN
         13   -1    0    0    0    0  0.00000000000E+00  0.00000000000E+00  0.74505805969E-08  0.10566000000E+00  0.10566000000E+00 0. -1.
     999900   -1    0    0    0    0 -0.00000000000E+00 -0.00000000000E+00 -0.74505805969E-08  0.93827000000E+00  0.93827000000E+00 0. -1.
     999902    2    1    2    0    0 -0.10804908790E-01 -0.52871122131E-02 -0.69650589304E-02  0.10300299405E+01  0.10299361468E+01 0.  0.
     999903    2    3    3    0    0  0.20502058457E-01 -0.38204837935E-01 -0.12560157289E+00  0.14090771865E+00  0.46896545927E-01 0.  0.
         14    1    1    2    0    0  0.10804908790E-01  0.52871122131E-02  0.69650589304E-02  0.13900059547E-01  0.00000000000E+00 0.  1.
     999901    1    3    3    0    0 -0.31306967247E-01  0.32917725722E-01  0.11863651396E+00  0.88912222181E+00  0.88000000000E+00 0.  1.
        -11    1    4    4    0    0  0.29754317419E-01 -0.60011150122E-02 -0.59368906658E-01  0.66680289330E-01  0.51100000000E-03 0. -1.
         11    1    4    4    0    0 -0.92522589622E-02 -0.32203722923E-01 -0.66232666230E-01  0.74227429317E-01  0.51100000000E-03 0.  1.
</event>
<event>
 8    1  0.2846344E+004  0.1043930E+01  0.7957747E-01            NaN
         13   -1    0    0    0    0  0.00000000000E+00  0.00000000000E+00  0.74505805969E-08  0.10566000000E+00  0.10566000000E+00 0.  1.
     999900   -1    0    0    0    0 -0.00000000000E+00 -0.00000000000E+00 -0.74505805969E-08  0.93827000000E+00  0.93827000000E+00 0.  1.
     999902    2    1    2    0    0  0.71661959271E-02  0.87079742014E-02 -0.47926439573E-02  0.10316763224E+01  0.10316035486E+01 0.  0.
     999903    2    3    3    0    0 -0.10827902959E+00  0.79062955346E-01  0.10284634828E-02  0.14133295674E+00  0.44706238568E-01 0.  0.
         14    1    1    2    0    0 -0.71661959271E-02 -0.87079742014E-02  0.47926439573E-02  0.12253677605E-01  0.00000000000E+00 0.  1.
     999901    1    3    3    0    0  0.11544522552E+00 -0.70354981144E-01 -0.58211074401E-02  0.89034336565E+00  0.88000000000E+00 0. -1.
        -11    1    4    4    0    0 -0.60064295482E-01  0.68673264393E-01 -0.63654781330E-02  0.91457734867E-01  0.51100000000E-03 0. -1.
         11    1    4    4    0    0 -0.48214734112E-01  0.10389690953E-01  0.73939416158E-02  0.49875221876E-01  0.51100000000E-03 0.  1.
</event>
<event>
 8    1  0.2846344E+004  0.1043930E+01  0.7957747E-01            NaN
         13   -1    0    0    0    0  0.00000000000E+00  0.00000000000E+00  0.74505805969E-08  0.10566000000E+00  0.10566000000E+00 0. -1.
     999900   -1    0    0    0    0 -0.00000000000E+00 -0.00000000000E+00 -0.74505805969E-08  0.93827000000E+00  0.93827000000E+00 0.  1.
     999902    2    1    2    0    0 -0.13115229919E-01 -0.36573898659E-02  0.20589877228E-02  0.10301595539E+01  0.10300675129E+01 0.  0.
     999903    2    3    3    0    0  0.62154559872E-02  0.11097660480E+00 -0.71271864563E-01  0.13949011908E+00  0.44981951241E-01 0.  0.
         14    1    1    2    0    0  0.13115229919E-01  0.36573898659E-02 -0.20589877228E-02  0.13770446141E-01  0.00000000000E+00 0.  1.
     999901    1    3    3    0    0 -0.19330685907E-01 -0.11463399466E+00  0.73330852285E-01  0.89066943478E+00  0.88000000000E+00 0. -1.
        -11    1    4    4    0    0  0.54880727503E-02  0.10550500157E+00 -0.77593863323E-01  0.13108200885E+00  0.51100000000E-03 0.  1.
         11    1    4    4    0    0  0.72738323691E-03  0.54716032276E-02  0.63219987608E-02  0.84081102267E-02  0.51100000000E-03 0. -1.
</event>
<event>
 8    1  0.2846344E+004  0.1043930E+01  0.7957747E-01            NaN
         13   -1    0    0    0    0  0.00000000000E+00  0.00000000000E+00  0.74505805969E-08  0.10566000000E+00  0.10566000000E+00 0. -1.
     999900   -1    0    0    0    0 -0.00000000000E+00 -0.00000000000E+00 -0.74505805969E-08  0.93827000000E+00  0.93827000000E+00 0.  1.
     999902    2    1    2    0    0 -0.15438993174E-02 -0.12132916299E-01 -0.39488828628E-02  0.10310775699E+01  0.10309974637E+01 0.  0.
     999903    2    3    3    0    0  0.35535517264E-01 -0.39295611950E-01 -0.12374653853E+00  0.14177212550E+00  0.44488331785E-01 0.  0.
         14    1    1    2    0    0  0.15438993174E-02  0.12132916299E-01  0.39488828628E-02  0.12852430077E-01  0.00000000000E+00 0. -1.
     999901    1    3    3    0    0 -0.37079416581E-01  0.27162695651E-01  0.11979765567E+00  0.88930544442E+00  0.88000000000E+00 0. -1.
        -11    1    4    4    0    0  0.32973575139E-01 -0.54037899557E-02 -0.77313239038E-01  0.84226217147E-01  0.51100000000E-03 0.  1.
         11    1    4    4    0    0  0.25619421249E-02 -0.33891821995E-01 -0.46433299495E-01  0.57545908356E-01  0.51100000000E-03 0. -1.
</event>
<event>
 8    1  0.2846344E+004  0.1043930E+01  0.7957747E-01            NaN
         13   -1    0    0    0    0  0.00000000000E+00  0.00000000000E+00  0.74505805969E-08  0.10566000000E+00  0.10566000000E+00 0. -1.
     999900   -1    0    0    0    0 -0.00000000000E+00 -0.00000000000E+00 -0.74505805969E-08  0.93827000000E+00  0.93827000000E+00 0. -1.
     999902    2    1    2    0    0  0.61996642831E-02  0.12481672764E-01  0.29033706066E-02  0.10296942158E+01  0.10295958044E+01 0.  0.
     999903    2    3    3    0    0  0.99001853195E-01 -0.85307694679E-01 -0.14820376745E-01  0.13925099024E+00  0.45743032337E-01 0.  0.
         14    1    1    2    0    0 -0.61996642831E-02 -0.12481672764E-01 -0.29033706066E-02  0.14235784245E-01  0.00000000000E+00 0. -1.
     999901    1    3    3    0    0 -0.92802188912E-01  0.97789367442E-01  0.17723747351E-01  0.89044322552E+00  0.88000000000E+00 0. -1.
        -11    1    4    4    0    0  0.57139342314E-01 -0.21484383865E-01 -0.15240170304E-01  0.62920641303E-01  0.51100000000E-03 0.  1.
         11    1    4    4    0    0  0.41862510881E-01 -0.63823310814E-01  0.41979355957E-03  0.76330348933E-01  0.51100000000E-03 0. -1.
</event>
<event>
 8    1  0.2846344E+004  0.1043930E+01  0.7957747E-01            NaN
         13   -1    0    0    0    0  0.00000000000E+00  0.00000000000E+00  0.74505805969E-08  0.10566000000E+00  0.10566000000E+00 0.  1.
     999900   -1    0    0    0    0 -0.00000000000E+00 -0.00000000000E+00 -0.74505805969E-08  0.93827000000E+00  0.93827000000E+00 0. -1.
     999902    2    1    2    0    0  0.34253914937E-02 -0.68119541625E-02  0.11237068093E-01  0.10303503194E+01  0.10302608276E+01 0.  0.
     999903    2    3    3    0    0 -0.60556482006E-01 -0.14026254591E-01 -0.11580959478E+00  0.13889836845E+00  0.44911815635E-01 0.  0.
         14    1    1    2    0    0 -0.34253914937E-02  0.68119541625E-02 -0.11237068093E-01  0.13579680619E-01  0.00000000000E+00 0.  1.
     999901    1    3    3    0    0  0.63981873500E-01  0.72143004284E-02  0.12704666288E+00  0.89145195093E+00  0.88000000000E+00 0.  1.
        -11    1    4    4    0    0 -0.98922706060E-02  0.58698943324E-02 -0.59409624638E-01  0.60515099750E-01  0.51100000000E-03 0. -1.
         11    1    4    4    0    0 -0.50664211400E-01 -0.19896148923E-01 -0.56399970147E-01  0.78383268701E-01  0.51100000000E-03 0.  1.
</event>
<event>
 8    1  0.2846344E+004  0.1043930E+01  0.7957747E-01            NaN
         13   -1    0    0    0    0  0.00000000000E+00  0.00000000000E+00  0.74505805969E-08  0.10566000000E+00  0.10566000000E+00 0.  1.
     999900   -1    0    0    0    0 -0.00000000000E+00 -0.00000000000E+00 -0.74505805969E-08  0.93827000000E+00  0.93827000000E+00 0.  1.
     999902    2    1    2    0    0  0.12082000306E-01 -0.65237366419E-02 -0.39615735384E-02  0.10296391660E+01  0.10295399867E+01 0.  0.
     999903    2    3    3    0    0  0.19871189900E-01  0.36081824032E-01  0.12511012025E+00  0.13916995969E+00  0.44932986510E-01 0.  0.
         14    1    1    2    0    0 -0.12082000306E-01  0.65237366419E-02  0.39615735384E-02  0.14290833988E-01  0.00000000000E+00 0. -1.
     999901    1    3    3    0    0 -0.77891895941E-02 -0.42605560674E-01 -0.12907169379E+00  0.89046920632E+00  0.88000000000E+00 0.  1.
        -11    1    4    4    0    0  0.32337728352E-01  0.13317308477E-01  0.73610692785E-01  0.81497696859E-01  0.51100000000E-03 0.  1.
         11    1    4    4    0    0 -0.12466538452E-01  0.22764515555E-01  0.51499427466E-01  0.57672262828E-01  0.51100000000E-03 0. -1.
</event>
<event>
 8    1  0.2846344E+004  0.1043930E+01  0.7957747E-01            NaN
         13   -1    0    0    0    0  0.00000000000E+00  0.00000000000E+00  0.74505805969E-08  0.10566000000E+00  0.10566000000E+00 0. -1.
     999900   -1    0    0    0    0 -0.00000000000E+00 -0.00000000000E+00 -0.74505805969E-08  0.93827000000E+00  0.93827000000E+00 0. -1.
     999902    2    1    2    0    0  0.15667676886E-03  0.68078037285E-02 -0.12450831638E-01  0.10297386665E+01  0.10296408730E+01 0.  0.
     999903    2    3    3    0    0 -0.71419078888E-01  0.10178534244E+00  0.45292545911E-01  0.13986332726E+00  0.45270242258E-01 0.  0.
         14    1    1    2    0    0 -0.15667676886E-03 -0.68078037285E-02  0.12450831638E-01  0.14191333542E-01  0.00000000000E+00 0. -1.
     999901    1    3    3    0    0  0.71575755657E-01 -0.94977538707E-01 -0.57743377549E-01  0.88987533920E+00  0.88000000000E+00 0.  1.
        -11    1    4    4    0    0 -0.37457000036E-01  0.29742857952E-01  0.35603207720E-01  0.59628130709E-01  0.51100000000E-03 0. -1.
         11    1    4    4    0    0 -0.33962078852E-01  0.72042484484E-01  0.96893381907E-02  0.80235196555E-01  0.51100000000E-03 0.  1.
</event>
<event>
 8    1  0.2846344E+004  0.1043930E+01  0.7957747E-01            NaN
         13   -1    0    0    0    0  0.00000000000E+00  0.00000000000E+00  0.74505805969E-08  0.10566000000E+00  0.10566000000E+00 0. -1.
     999900   -1    0    0    0    0 -0.00000000000E+00 -0.00000000000E+00 -0.74505805969E-08  0.93827000000E+00  0.93827000000E+00 0.  1.
     999902    2    1    2    0    0 -0.22738069520E-02  0.63357911997E-02 -0.11754846238E-01  0.10303841941E+01  0.10302951512E+01 0.  0.
     999903    2    3    3    0    0 -0.93762508991E-01  0.18166862474E-01  0.91415387616E-01  0.13956757209E+00  0.44731321252E-01 0.  0.
         14    1    1    2    0    0  0.22738069520E-02 -0.63357911997E-02  0.11754846238E-01  0.13545805929E-01  0.00000000000E+00 0. -1.
     999901    1    3    3    0    0  0.91488702039E-01 -0.11831071274E-01 -0.10317023385E+00  0.89081662198E+00  0.88000000000E+00 0.  1.
        -11    1    4    4    0    0 -0.49028659528E-01  0.26350092060E-01  0.69617025802E-01  0.89134326772E-01  0.51100000000E-03 0. -1.
         11    1    4    4    0    0 -0.44733849463E-01 -0.81832295856E-02  0.21798361814E-01  0.50433245315E-01  0.51100000000E-03 0.  1.
</event>
<event>
 8    1  0.2846344E+004  0.1043930E+01  0.7957747E-01            NaN
         13   -1    0    0    0    0  0.00000000000E+00  0.00000000000E+00  0.74505805969E-08  0.10566000000E+00  0.10566000000E+00 0. -1.
     999900   -1    0    0    0    0 -0.00000000000E+00 -0.00000000000E+00 -0.74505805969E-08  0.93827000000E+00  0.93827000000E+00 0. -1.
     999902    2    1    2    0    0  0.13974007470E-01  0.41842943350E-02 -0.10531960329E-02  0.10293050068E+01  0.10292011012E+01 0.  0.
     999903    2    3    3    0    0  0.45550233531E-01  0.12504861979E+00  0.82091855444E-02  0.14043435541E+00  0.44073079826E-01 0.  0.
         14    1    1    2    0    0 -0.13974007470E-01 -0.41842943350E-02  0.10531960329E-02  0.14624993187E-01  0.00000000000E+00 0.  1.
     999901    1    3    3    0    0 -0.31576226061E-01 -0.12086432545E+00 -0.92623815774E-02  0.88887065141E+00  0.88000000000E+00 0.  1.
        -11    1    4    4    0    0  0.45266260323E-02  0.55971514305E-01 -0.12360708394E-01  0.57500860774E-01  0.51100000000E-03 0.  1.
         11    1    4    4    0    0  0.41023607498E-01  0.69077105484E-01  0.20569893939E-01  0.82933494632E-01  0.51100000000E-03 0. -1.
</event>
<event>
 8    1  0.2846344E+004  0.1043930E+01  0.7957747E-01            NaN
         13   -1    0    0    0    0  0.00000000000E+00  0.00000000000E+00  0.74505805969E-08  0.10566000000E+00  0.10566000000E+00 0.  1.
     999900   -1    0    0    0    0 -0.00000000000E+00 -0.00000000000E+00 -0.74505805969E-08  0.93827000000E+00  0.93827000000E+00 0. -1.
     999902    2    1    2    0    0  0.13489315285E-01  0.24411930051E-02 -0.74054270186E-03  0.10302015823E+01  0.10301101061E+01 0.  0.
     999903    2    3    3    0    0 -0.11822076296E+00 -0.93878130366E-02 -0.55196207117E-01  0.13865635655E+00  0.45985694548E-01 0.  0.
         14    1    1    2    0    0 -0.13489315285E-01 -0.24411930051E-02  0.74054270186E-03  0.13728417740E-01  0.00000000000E+00 0.  1.
     999901    1    3    3    0    0  0.13171007825E+00  0.11829006042E-01  0.54455664415E-01  0.89154522571E+00  0.88000000000E+00 0.  1.
        -11    1    4    4    0    0 -0.60962683196E-01  0.14431119895E-01 -0.41491552595E-01  0.75143303239E-01  0.51100000000E-03 0. -1.
         11    1    4    4    0    0 -0.57258079767E-01 -0.23818932932E-01 -0.13704654522E-01  0.63513053313E-01  0.51100000000E-03 0.  1.
</event>
<event>
 8    1  0.2846344E+004  0.1043930E+01  0.7957747E-01            NaN
         13   -1    0    0    0    0  0.00000000000E+00  0.00000000000E+00  0.74505805969E-08  0.10566000000E+00  0.10566000000E+00 0.  1.
     999900   -1    0    0    0    0 -0.00000000000E+00 -0.00000000000E+00 -0.74505805969E-08  0.93827000000E+00  0.93827000000E+00 0. -1.
     999902    2    1    2    0    0  0.43364097883E-02  0.14501291662E-01  0.17867045570E-01  0.10205136974E+01  0.10202450114E+01 0.  0.
     999903    2    3    3    0    0 -0.12798951887E-01  0.12448894326E+00  0.11489557289E-01  0.13347842388E+00  0.44979657077E-01 0.  0.
         14    1    1    2    0    0 -0.43364097883E-02 -0.14501291662E-01 -0.17867045570E-01  0.23416302593E-01  0.00000000000E+00 0. -1.
     999901    1    3    3    0    0  0.17135361675E-01 -0.10998765160E+00  0.63774882811E-02  0.88703527353E+00  0.88000000000E+00 0. -1.
        -11    1    4    4    0    0 -0.11652841463E-01  0.12407725116E+00  0.27655032576E-02  0.12465497222E+00  0.51100000000E-03 0. -1.
         11    1    4    4    0    0 -0.11461104239E-02  0.41169210368E-03  0.87240540316E-02  0.88234516623E-02  0.51100000000E-03 0.  1.
</event>
<event>
 8    1  0.2846344E+004  0.1043930E+01  0.7957747E-01            NaN
         13   -1    0    0    0    0  0.00000000000E+00  0.00000000000E+00  0.74505805969E-08  0.10566000000E+00  0.10566000000E+00 0. -1.
     999900   -1    0    0    0    0 -0.00000000000E+00 -0.00000000000E+00 -0.74505805969E-08  0.93827000000E+00  0.93827000000E+00 0.  1.
     999902    2    1    2    0    0 -0.14005483852E-01 -0.95776786147E-03  0.23294379503E-02  0.10296998497E+01  0.10296015167E+01 0.  0.
     999903    2    3    3    0    0  0.23470213089E-01  0.12786339590E+00  0.21459029217E-01  0.13932618578E+00  0.45292352485E-01 0.  0.
         14    1    1    2    0    0  0.14005483852E-01  0.95776786147E-03 -0.23294379503E-02  0.14230150329E-01  0.00000000000E+00 0. -1.
     999901    1    3    3    0    0 -0.37475696941E-01 -0.12882116377E+00 -0.19129591267E-01  0.89037366389E+00  0.88000000000E+00 0. -1.
        -11    1    4    4    0    0 -0.86050233286E-02  0.76534406147E-01  0.14858144536E-01  0.78438430191E-01  0.51100000000E-03 0.  1.
         11    1    4    4    0    0  0.32075236417E-01  0.51328989757E-01  0.66008846814E-02  0.60887755586E-01  0.51100000000E-03 0. -1.
</event>
<event>
 8    1  0.2846344E+004  0.1043930E+01  0.7957747E-01            NaN
         13   -1    0    0    0    0  0.00000000000E+00  0.00000000000E+00  0.74505805969E-08  0.10566000000E+00  0.10566000000E+00 0. -1.
     999900   -1    0    0    0    0 -0.00000000000E+00 -0.00000000000E+00 -0.74505805969E-08  0.93827000000E+00  0.93827000000E+00 0.  1.
     999902    2    1    2    0    0  0.10127661700E-03  0.39196291821E-02 -0.13317790946E-01  0.10300470138E+01  0.10299534520E+01 0.  0.
     999903    2    3    3    0    0  0.75879485280E-01 -0.10469864987E+00 -0.29144043403E-01  0.13999603902E+00  0.45055655649E-01 0.  0.
         14    1    1    2    0    0 -0.10127661700E-03 -0.39196291821E-02  0.13317790946E-01  0.13882986191E-01  0.00000000000E+00 0. -1.
     999901    1    3    3    0    0 -0.75778208663E-01  0.10861827905E+00  0.15826252456E-01  0.89005097479E+00  0.88000000000E+00 0. -1.
        -11    1    4    4    0    0  0.29179103459E-01 -0.70327753714E-01 -0.25083308265E-02  0.76183763793E-01  0.51100000000E-03 0. -1.
         11    1    4    4    0    0  0.46700381820E-01 -0.34370896153E-01 -0.26635712576E-01  0.63812275229E-01  0.51100000000E-03 0.  1.
</event>
<event>
 8    1  0.2846344E+004  0.1043930E+01  0.7957747E-01            NaN
         13   -1    0    0    0    0  0.00000000000E+00  0.00000000000E+00  0.74505805969E-08  0.10566000000E+00  0.10566000000E+00 0. -1.
     999900   -1    0    0    0    0 -0.00000000000E+00 -0.00000000000E+00 -0.74505805969E-08  0.93827000000E+00  0.93827000000E+00 0.  1.
     999902    2    1    2    0    0  0.48520634538E-02 -0.13631000991E-01  0.81708750990E-02  0.10273134448E+01  0.10271790515E+01 0.  0.
     999903    2    3    3    0    0  0.38050655560E-01  0.10144935976E+00  0.68902117562E-01  0.13712586917E+00  0.48126678730E-01 0.  0.
         14    1    1    2    0    0 -0.48520634538E-02  0.13631000991E-01 -0.81708750990E-02  0.16616555228E-01  0.00000000000E+00 0.  1.
     999901    1    3    3    0    0 -0.33198592106E-01 -0.11508036075E+00 -0.60731242463E-01  0.89018757560E+00  0.88000000000E+00 0. -1.
        -11    1    4    4    0    0  0.53836394530E-02 -0.17844592913E-02  0.15257606585E-01  0.16285685384E-01  0.51100000000E-03 0. -1.
         11    1    4    4    0    0  0.32667016107E-01  0.10323381905E+00  0.53644510976E-01  0.12084018378E+00  0.51100000000E-03 0.  1.
</event>
<event>
 8    1  0.2846344E+004  0.1043930E+01  0.7957747E-01            NaN
         13   -1    0    0    0    0  0.00000000000E+00  0.00000000000E+00  0.74505805969E-08  0.10566000000E+00  0.10566000000E+00 0.  1.
     999900   -1    0    0    0    0 -0.00000000000E+00 -0.00000000000E+00 -0.74505805969E-08  0.93827000000E+00  0.93827000000E+00 0. -1.
     999902    2    1    2    0    0  0.70110785023E-02  0.13343491811E-02 -0.98730045026E-02  0.10317475566E+01  0.10316756315E+01 0.  0.
     999903    2    3    3    0    0 -0.12198876225E+00 -0.12373257580E-01 -0.53916016149E-01  0.14114739699E+00  0.44511742964E-01 0.  0.
         14    1    1    2    0    0 -0.70110785023E-02 -0.13343491811E-02  0.98730045026E-02  0.12182443409E-01  0.00000000000E+00 0. -1.
     999901    1    3    3    0    0  0.12899984076E+00  0.13707606761E-01  0.44043011647E-01  0.89060015960E+00  0.88000000000E+00 0. -1.
        -11    1    4    4    0    0 -0.10869816253E+00 -0.16739520791E-01 -0.30952402971E-01  0.11425329083E+00  0.51100000000E-03 0. -1.
         11    1    4    4    0    0 -0.13290599723E-01  0.43662632111E-02 -0.22963613178E-01  0.26894106169E-01  0.51100000000E-03 0.  1.
</event>
<event>
 8    1  0.2846344E+004  0.1043930E+01  0.7957747E-01            NaN
         13   -1    0    0    0    0  0.00000000000E+00  0.00000000000E+00  0.74505805969E-08  0.10566000000E+00  0.10566000000E+00 0.  1.
     999900   -1    0    0    0    0 -0.00000000000E+00 -0.00000000000E+00 -0.74505805969E-08  0.93827000000E+00  0.93827000000E+00 0. -1.
     999902    2    1    2    0    0  0.22271517394E-02 -0.57747728235E-02 -0.12744964036E-01  0.10297616439E+01  0.10296641690E+01 0.  0.
     999903    2    3    3    0    0 -0.11516214776E-01 -0.12046385033E+00  0.53527052562E-01  0.13974229310E+00  0.44928840251E-01 0.  0.
         14    1    1    2    0    0 -0.22271517394E-02  0.57747728235E-02  0.12744964036E-01  0.14168356091E-01  0.00000000000E+00 0.  1.
     999901    1    3    3    0    0  0.13743366515E-01  0.11468907751E+00 -0.66272016598E-01  0.89001935080E+00  0.88000000000E+00 0. -1.
        -11    1    4    4    0    0 -0.11052428582E-01 -0.11529123742E+00  0.60785409442E-01  0.13080272446E+00  0.51100000000E-03 0. -1.
         11    1    4    4    0    0 -0.46378619346E-03 -0.51726129082E-02 -0.72583568796E-02  0.89395686430E-02  0.51100000000E-03 0.  1.
</event>
<event>
 8    1  0.2846344E+004  0.1043930E+01  0.7957747E-01            NaN
         13   -1    0    0    0    0  0.00000000000E+00  0.00000000000E+00  0.74505805969E-08  0.10566000000E+00  0.10566000000E+00 0.  1.
     999900   -1    0    0    0    0 -0.00000000000E+00 -0.00000000000E+00 -0.74505805969E-08  0.93827000000E+00  0.93827000000E+00 0.  1.
     999902    2    1    2    0    0 -0.96005406154E-02  0.11490530241E-02 -0.96278485643E-02  0.10302849947E+01  0.10301946341E+01 0.  0.
     999903    2    3    3    0    0 -0.88476468220E-01 -0.35577003068E-01  0.94373231384E-01  0.13989943784E+00  0.39645142576E-01 0.  0.
         14    1    1    2    0    0  0.96005406154E-02 -0.11490530241E-02  0.96278485643E-02  0.13645005348E-01  0.00000000000E+00 0.  1.
     999901    1    3    3    0    0  0.78875927604E-01  0.36726056093E-01 -0.10400107995E+00  0.89038555681E+00  0.88000000000E+00 0.  1.
        -11    1    4    4    0    0 -0.41724598796E-01 -0.19383766854E-01  0.19093268919E-01  0.49814521991E-01  0.51100000000E-03 0. -1.
         11    1    4    4    0    0 -0.46751869424E-01 -0.16193236214E-01  0.75279962465E-01  0.90084915848E-01  0.51100000000E-03 0.  1.
</event>
<event>
 8    1  0.2846344E+004  0.1043930E+01  0.7957747E-01            NaN
         13   -1    0    0    0    0  0.00000000000E+00  0.00000000000E+00  0.74505805969E-08  0.10566000000E+00  0.10566000000E+00 0. -1.
     999900   -1    0    0    0    0 -0.00000000000E+00 -0.00000000000E+00 -0.74505805969E-08  0.93827000000E+00  0.93827000000E+00 0.  1.
     999902    2    1    2    0    0 -0.11513332688E-01  0.49136427316E-02  0.61245907666E-02  0.10299940276E+01  0.10298997454E+01 0.  0.
     999903    2    3    3    0    0 -0.71458330204E-02  0.11548105414E+00 -0.65403240020E-01  0.14018480193E+00  0.44578673076E-01 0.  0.
         14    1    1    2    0    0  0.11513332688E-01 -0.49136427316E-02 -0.61245907666E-02  0.13935972393E-01  0.00000000000E+00 0.  1.
     999901    1    3    3    0    0 -0.43674996675E-02 -0.11056741141E+00  0.71527830787E-01  0.88980922567E+00  0.88000000000E+00 0.  1.
        -11    1    4    4    0    0  0.19864179970E-02  0.54631152327E-01 -0.65905520286E-02  0.55065462479E-01  0.51100000000E-03 0.  1.
         11    1    4    4    0    0 -0.91322510173E-02  0.60849901812E-01 -0.58812687992E-01  0.85119339453E-01  0.51100000000E-03 0. -1.
</event>
<event>
 8    1  0.2846344E+004  0.1043930E+01  0.7957747E-01            NaN
         13   -1    0    0    0    0  0.00000000000E+00  0.00000000000E+00  0.74505805969E-08  0.10566000000E+00  0.10566000000E+00 0.  1.
     999900   -1    0    0    0    0 -0.00000000000E+00 -0.00000000000E+00 -0.74505805969E-08  0.93827000000E+00  0.93827000000E+00 0.  1.
     999902    2    1    2    0    0 -0.10090194204E-01  0.80672237142E-02 -0.48607821128E-02  0.10301271264E+01  0.10300346485E+01 0.  0.
     999903    2    3    3    0    0 -0.63191889489E-01 -0.11640425236E+00 -0.46678118581E-02  0.13978282464E+00  0.44432923974E-01 0.  0.
         14    1    1    2    0    0  0.10090194204E-01 -0.80672237142E-02  0.48607821128E-02  0.13802873624E-01  0.00000000000E+00 0.  1.
     999901    1    3    3    0    0  0.53101695285E-01  0.12447147607E+00 -0.19297025476E-03  0.89034430174E+00  0.88000000000E+00 0.  1.
        -11    1    4    4    0    0 -0.59198109098E-01 -0.80154643642E-01 -0.17394948927E-01  0.10115348925E+00  0.51100000000E-03 0. -1.
         11    1    4    4    0    0 -0.39937803915E-02 -0.36249608714E-01  0.12727137069E-01  0.38629335390E-01  0.51100000000E-03 0.  1.
</event>
<event>
 8    1  0.2846344E+004  0.1043930E+01  0.7957747E-01            NaN
         13   -1    0    0    0    0  0.00000000000E+00  0.00000000000E+00  0.74505805969E-08  0.10566000000E+00  0.10566000000E+00 0.  1.
     999900   -1    0    0    0    0 -0.00000000000E+00 -0.00000000000E+00 -0.74505805969E-08  0.93827000000E+00  0.93827000000E+00 0.  1.
     999902    2    1    2    0    0  0.17495461639E-02  0.73200337699E-02 -0.12817576416E-01  0.10290661488E+01  0.10289587964E+01 0.  0.
     999903    2    3    3    0    0  0.74161045367E-01  0.44067739793E-01  0.98334712797E-01  0.13836493602E+00  0.45092276937E-01 0.  0.
         14    1    1    2    0    0 -0.17495461639E-02 -0.73200337699E-02  0.12817576416E-01  0.14863851161E-01  0.00000000000E+00 0. -1.
     999901    1    3    3    0    0 -0.72411499203E-01 -0.36747706023E-01 -0.11115228921E+00  0.89070121282E+00  0.88000000000E+00 0.  1.
        -11    1    4    4    0    0  0.18388428136E-01  0.18553181287E-01  0.48763823858E-02  0.26578093448E-01  0.51100000000E-03 0.  1.
         11    1    4    4    0    0  0.55772617231E-01  0.25514558506E-01  0.93458330411E-01  0.11178684257E+00  0.51100000000E-03 0. -1.
</event>
<event>
 8    1  0.2846344E+004  0.1043930E+01  0.7957747E-01            NaN
         13   -1    0    0    0    0  0.00000000000E+00  0.00000000000E+00  0.74505805969E-08  0.10566000000E+00  0.10566000000E+00 0.  1.
     999900   -1    0    0    0    0 -0.00000000000E+00 -0.00000000000E+00 -0.74505805969E-08  0.93827000000E+00  0.93827000000E+00 0. -1.
     999902    2    1    2    0    0  0.93798347166E-02 -0.34877443943E-02  0.97677516096E-02  0.10299459151E+01  0.10298509763E+01 0.  0.
     999903    2    3    3    0    0  0.22344696784E-01 -0.10053949149E+00  0.85555617843E-01  0.14127784995E+00  0.45079843834E-01 0.  0.
         14    1    1    2    0    0 -0.93798347166E-02  0.34877443943E-02 -0.97677516096E-02  0.13984084946E-01  0.00000000000E+00 0. -1.
     999901    1    3    3    0    0 -0.12964862067E-01  0.97051747092E-01 -0.75787866234E-01  0.88866806510E+00  0.88000000000E+00 0.  1.
        -11    1    4    4    0    0  0.19780341226E-01 -0.14334593079E-01  0.29989298858E-01  0.38682833722E-01  0.51100000000E-03 0.  1.
         11    1    4    4    0    0  0.25643555580E-02 -0.86204898408E-01  0.55566318985E-01  0.10259501623E+00  0.51100000000E-03 0. -1.
</event>
<event>
 8    1  0.2846344E+004  0.1043930E+01  0.7957747E-01            NaN
         13   -1    0    0    0    0  0.00000000000E+00  0.00000000000E+00  0.74505805969E-08  0.10566000000E+00  0.10566000000E+00 0. -1.
     999900   -1    0    0    0    0 -0.00000000000E+00 -0.00000000000E+00 -0.74505805969E-08  0.93827000000E+00  0.93827000000E+00 0.  1.
     999902    2    1    2    0    0  0.23379375408E-02  0.10326943421E-01 -0.86280256600E-02  0.10302715030E+01  0.10301809625E+01 0.  0.
     999903    2    3    3    0    0  0.11656896557E-01  0.13231406983E+00 -0.20835484911E-01  0.14172396685E+00  0.44818177521E-01 0.  0.
         14    1    1    2    0    0 -0.23379375408E-02 -0.10326943421E-01  0.86280256600E-02  0.13658496958E-01  0.00000000000E+00 0. -1.
     999901    1    3    3    0    0 -0.93189590159E-02 -0.12198712641E+00  0.12207459251E-01  0.88854753619E+00  0.88000000000E+00 0. -1.
        -11    1    4    4    0    0  0.10684258220E-02  0.12825591415E+00 -0.22598085042E-01  0.13023692109E+00  0.51100000000E-03 0.  1.
         11    1    4    4    0    0  0.10588470735E-01  0.40581556851E-02  0.17626001309E-02  0.11487045760E-01  0.51100000000E-03 0. -1.
</event>
<event>
 8    1  0.2846344E+004  0.1043930E+01  0.7957747E-01            NaN
         13   -1    0    0    0    0  0.00000000000E+00  0.00000000000E+00  0.74505805969E-08  0.10566000000E+00  0.10566000000E+00 0.  1.
     999900   -1    0    0    0    0 -0.00000000000E+00 -0.00000000000E+00 -0.74505805969E-08  0.93827000000E+00  0.93827000000E+00 0.  1.
     999902    2    1    2    0    0  0.63543037262E-02  0.85309541872E-02 -0.82792630942E-02  0.10304503653E+01  0.10303621959E+01 0.  0.
     999903    2    3    3    0    0  0.49336831912E-01  0.12503569070E+00 -0.13091397257E-02  0.14170437570E+00  0.44837142121E-01 0.  0.
         14    1    1    2    0    0 -0.63543037262E-02 -0.85309541872E-02  0.82792630942E-02  0.13479634734E-01  0.00000000000E+00 0.  1.
     999901    1    3    3    0    0 -0.42982528186E-01 -0.11650473651E+00 -0.69701233686E-02  0.88874598957E+00  0.88000000000E+00 0.  1.
        -11    1    4    4    0    0  0.43821339963E-01  0.12193127255E+00  0.86906660005E-02  0.12985889981E+00  0.51100000000E-03 0. -1.
         11    1    4    4    0    0  0.55154919494E-02  0.31044181414E-02 -0.99998057262E-02  0.11845475888E-01  0.51100000000E-03 0.  1.
</event>
<event>
 8    1  0.2846344E+004  0.1043930E+01  0.7957747E-01            NaN
         13   -1    0    0    0    0  0.00000000000E+00  0.00000000000E+00  0.74505805969E-08  0.10566000000E+00  0.10566000000E+00 0.  1.
     999900   -1    0    0    0    0 -0.00000000000E+00 -0.00000000000E+00 -0.74505805969E-08  0.93827000000E+00  0.93827000000E+00 0.  1.
     999902    2    1    2    0    0 -0.21599955221E-02 -0.16084717971E-01 -0.16898146699E-02  0.10276131619E+01  0.10274836112E+01 0.  0.
     999903    2    3    3    0    0 -0.10682103106E+00  0.14512112758E-01  0.73010509513E-01  0.13774225166E+00  0.44956193107E-01 0.  0.
         14    1    1    2    0    0  0.21599955221E-02  0.16084717971E-01  0.16898146699E-02  0.16316838128E-01  0.00000000000E+00 0. -1.
     999901    1    3    3    0    0  0.10466103554E+00 -0.30596830729E-01 -0.74700324183E-01  0.88987091021E+00  0.88000000000E+00 0.  1.
        -11    1    4    4    0    0 -0.85465320174E-01  0.45715353491E-03  0.35961286346E-01  0.92725428974E-01  0.51100000000E-03 0. -1.
         11    1    4    4    0    0 -0.21355710888E-01  0.14054959223E-01  0.37049223167E-01  0.45016822684E-01  0.51100000000E-03 0.  1.
</event>
<event>
 8    1  0.2846344E+004  0.1043930E+01  0.7957747E-01            NaN
         13   -1    0    0    0    0  0.00000000000E+00  0.00000000000E+00  0.74505805969E-08  0.10566000000E+00  0.10566000000E+00 0.  1.
     999900   -1    0    0    0    0 -0.00000000000E+00 -0.00000000000E+00 -0.74505805969E-08  0.93827000000E+00  0.93827000000E+00 0. -1.
     999902    2    1    2    0    0 -0.11602711517E-01 -0.31921151590E-02  0.10460169332E-02  0.10318508169E+01  0.10317801130E+01 0.  0.
     999903    2    3    3    0    0  0.61413183996E-01 -0.11871722907E+00  0.21990835864E-02  0.14130115374E+00  0.45780131415E-01 0.  0.
         14    1    1    2    0    0  0.11602711517E-01  0.31921151590E-02 -0.10460169332E-02  0.12079183133E-01  0.00000000000E+00 0.  1.
     999901    1    3    3    0    0 -0.73015895513E-01  0.11552511391E+00 -0.11530666532E-02  0.89054966313E+00  0.88000000000E+00 0. -1.
        -11    1    4    4    0    0  0.62770525395E-02 -0.40647469134E-01 -0.15764153107E-01  0.44049832914E-01  0.51100000000E-03 0.  1.
         11    1    4    4    0    0  0.55136131456E-01 -0.78069759933E-01  0.17963236693E-01  0.97251320821E-01  0.51100000000E-03 0. -1.
</event>
<event>
 8    1  0.2846344E+004  0.1043930E+01  0.7957747E-01            NaN
         13   -1    0    0    0    0  0.00000000000E+00  0.00000000000E+00  0.74505805969E-08  0.10566000000E+00  0.10566000000E+00 0.  1.
     999900   -1    0    0    0    0 -0.00000000000E+00 -0.00000000000E+00 -0.74505805969E-08  0.93827000000E+00  0.93827000000E+00 0. -1.
     999902    2    1    2    0    0 -0.10118774645E-01 -0.48526028631E-02 -0.59959642165E-02  0.10312064415E+01  0.10311279436E+01 0.  0.
     999903    2    3    3    0    0 -0.13328486365E+00 -0.17526849540E-01 -0.16733469488E-01  0.14247373923E+00  0.44121559757E-01 0.  0.
         14    1    1    2    0    0  0.10118774645E-01  0.48526028631E-02  0.59959642165E-02  0.12723558534E-01  0.00000000000E+00 0.  1.
     999901    1    3    3    0    0  0.12316608900E+00  0.12674246677E-01  0.10737505271E-01  0.88873270224E+00  0.88000000000E+00 0. -1.
        -11    1    4    4    0    0 -0.78662727031E-01 -0.31606188094E-01 -0.54872389264E-02  0.84953791333E-01  0.51100000000E-03 0. -1.
         11    1    4    4    0    0 -0.54622136619E-01  0.14079338554E-01 -0.11246230561E-01  0.57519947895E-01  0.51100000000E-03 0.  1.
</event>
<event>
 8    1  0.2846344E+004  0.1043930E+01  0.7957747E-01            NaN
         13   -1    0    0    0    0  0.00000000000E+00  0.00000000000E+00  0.74505805969E-08  0.10566000000E+00  0.10566000000E+00 0. -1.
     999900   -1    0    0    0    0 -0.00000000000E+00 -0.00000000000E+00 -0.74505805969E-08  0.93827000000E+00  0.93827000000E+00 0.  1.
     999902    2    1    2    0    0  0.64885874985E-02  0.87473314218E-02 -0.13649950761E-01  0.10264675050E+01  0.10263189563E+01 0.  0.
     999903    2    3    3    0    0 -0.32265767132E-01 -0.68479924631E-01  0.10177155520E+00  0.13473432009E+00  0.45445657180E-01 0.  0.
         14    1    1    2    0    0 -0.64885874985E-02 -0.87473314218E-02  0.13649950761E-01  0.17462494968E-01  0.00000000000E+00 0. -1.
     999901    1    3    3    0    0  0.38754354630E-01  0.77227256053E-01 -0.11542150596E+00  0.89173318494E+00  0.88000000000E+00 0.  1.
        -11    1    4    4    0    0 -0.35762548056E-01 -0.23731173625E-01  0.42723111439E-01  0.60561157660E-01  0.51100000000E-03 0.  1.
         11    1    4    4    0    0  0.34967809244E-02 -0.44748751006E-01  0.59048443765E-01  0.74173162434E-01  0.51100000000E-03 0. -1.
</event>
<event>
 8    1  0.2846344E+004  0.1043930E+01  0.7957747E-01            NaN
         13   -1    0    0    0    0  0.00000000000E+00  0.00000000000E+00  0.74505805969E-08  0.10566000000E+00  0.10566000000E+00 0.  1.
     999900   -1    0    0    0    0 -0.00000000000E+00 -0.00000000000E+00 -0.74505805969E-08  0.93827000000E+00  0.93827000000E+00 0.  1.
     999902    2    1    2    0    0  0.56384090062E-02 -0.59104803197E-02 -0.11104867960E-01  0.10301443725E+01  0.10300521271E+01 0.  0.
     999903    2    3    3    0    0 -0.39903785722E-01  0.75452736846E-01  0.10087376806E+00  0.13816159264E+00  0.40344528567E-01 0.  0.
         14    1    1    2    0    0 -0.56384090062E-02  0.59104803197E-02  0.11104867960E-01  0.13785627521E-01  0.00000000000E+00 0.  1.
     999901    1    3    3    0    0  0.45542194728E-01 -0.81363217165E-01 -0.11197863602E+00  0.89198277984E+00  0.88000000000E+00 0.  1.
        -11    1    4    4    0    0 -0.21249353831E-01  0.45332869593E-01  0.28579226852E-01  0.57650996802E-01  0.51100000000E-03 0. -1.
         11    1    4    4    0    0 -0.18654431891E-01  0.30119867252E-01  0.72294541208E-01  0.80510595836E-01  0.51100000000E-03 0.  1.
</event>
<event>
 8    1  0.2846344E+004  0.1043930E+01  0.7957747E-01            NaN
         13   -1    0    0    0    0  0.00000000000E+00  0.00000000000E+00  0.74505805969E-08  0.10566000000E+00  0.10566000000E+00 0.  1.
     999900   -1    0    0    0    0 -0.00000000000E+00 -0.00000000000E+00 -0.74505805969E-08  0.93827000000E+00  0.93827000000E+00 0. -1.
     999902    2    1    2    0    0 -0.83663869947E-02  0.27098443368E-02 -0.13626543446E-01  0.10277120355E+01  0.10275840625E+01 0.  0.
     999903    2    3    3    0    0  0.51146565802E-01 -0.86126263999E-01  0.80596813971E-01  0.13624600314E+00  0.45093485171E-01 0.  0.
         14    1    1    2    0    0  0.83663869947E-02 -0.27098443368E-02  0.13626543446E-01  0.16217964544E-01  0.00000000000E+00 0.  1.
     999901    1    3    3    0    0 -0.59512952797E-01  0.88836108336E-01 -0.94223357417E-01  0.89146603232E+00  0.88000000000E+00 0.  1.
        -11    1    4    4    0    0  0.50767394614E-01 -0.46960433603E-01  0.40278315061E-01  0.80032583772E-01  0.51100000000E-03 0.  1.
         11    1    4    4    0    0  0.37917118820E-03 -0.39165830396E-01  0.40318498910E-01  0.56213419365E-01  0.51100000000E-03 0. -1.
</event>
<event>
 8    1  0.2846344E+004  0.1043930E+01  0.7957747E-01            NaN
         13   -1    0    0    0    0  0.00000000000E+00  0.00000000000E+00  0.74505805969E-08  0.10566000000E+00  0.10566000000E+00 0.  1.
     999900   -1    0    0    0    0 -0.00000000000E+00 -0.00000000000E+00 -0.74505805969E-08  0.93827000000E+00  0.93827000000E+00 0.  1.
     999902    2    1    2    0    0  0.12682044771E-01  0.43826909067E-02 -0.25999256624E-02  0.10302624526E+01  0.10301717912E+01 0.  0.
     999903    2    3    3    0    0  0.28031604791E-01  0.29393635289E-01  0.12577704924E+00  0.14046370903E+00  0.47543987792E-01 0.  0.
         14    1    1    2    0    0 -0.12682044771E-01 -0.43826909067E-02  0.25999256624E-02  0.13667547425E-01  0.00000000000E+00 0.  1.
     999901    1    3    3    0    0 -0.15349560020E-01 -0.25010944382E-01 -0.12837697491E+00  0.88979874355E+00  0.88000000000E+00 0.  1.
        -11    1    4    4    0    0  0.28807859256E-01 -0.36302582303E-02  0.67331633911E-01  0.73327222611E-01  0.51100000000E-03 0. -1.
         11    1    4    4    0    0 -0.77625446482E-03  0.33023893519E-01  0.58445415332E-01  0.67136486417E-01  0.51100000000E-03 0.  1.
</event>
<event>
 8    1  0.2846344E+004  0.1043930E+01  0.7957747E-01            NaN
         13   -1    0    0    0    0  0.00000000000E+00  0.00000000000E+00  0.74505805969E-08  0.10566000000E+00  0.10566000000E+00 0. -1.
     999900   -1    0    0    0    0 -0.00000000000E+00 -0.00000000000E+00 -0.74505805969E-08  0.93827000000E+00  0.93827000000E+00 0. -1.
     999902    2    1    2    0    0 -0.20977928873E-02  0.13934374642E-01  0.20199200401E-02  0.10296945650E+01  0.10295961585E+01 0.  0.
     999903    2    3    3    0    0  0.10283258815E+00  0.44814592081E-01  0.70980022358E-01  0.14024559606E+00  0.45252345717E-01 0.  0.
         14    1    1    2    0    0  0.20977928873E-02 -0.13934374642E-01 -0.20199200401E-02  0.14235434965E-01  0.00000000000E+00 0. -1.
     999901    1    3    3    0    0 -0.10493038103E+00 -0.30880217439E-01 -0.68960102318E-01  0.88944896897E+00  0.88000000000E+00 0. -1.
        -11    1    4    4    0    0  0.75533381883E-01  0.52710477223E-01  0.59110220168E-01  0.10944389173E+00  0.51100000000E-03 0.  1.
         11    1    4    4    0    0  0.27299206264E-01 -0.78958851415E-02  0.11869802190E-01  0.30801704334E-01  0.51100000000E-03 0. -1.
</event>
<event>
 8    1  0.2846344E+004  0.1043930E+01  0.7957747E-01            NaN
         13   -1    0    0    0    0  0.00000000000E+00  0.00000000000E+00  0.74505805969E-08  0.10566000000E+00  0.10566000000E+00 0.  1.
     999900   -1    0    0    0    0 -0.00000000000E+00 -0.00000000000E+00 -0.74505805969E-08  0.93827000000E+00  0.93827000000E+00 0. -1.
     999902    2    1    2    0    0 -0.89837565543E-02  0.54549884190E-02  0.12063648846E-01  0.10279301124E+01  0.10278055845E+01 0.  0.
     999903    2    3    3    0    0  0.47697979719E-01  0.18131987686E-01  0.12152980362E+00  0.13924773685E+00  0.44906266837E-01 0.  0.
         14    1    1    2    0    0  0.89837565543E-02 -0.54549884190E-02 -0.12063648846E-01  0.15999887624E-01  0.00000000000E+00 0. -1.
     999901    1    3    3    0    0 -0.56681736273E-01 -0.12676999267E-01 -0.10946615478E+00  0.88868237553E+00  0.88000000000E+00 0. -1.
        -11    1    4    4    0    0  0.33590486591E-01  0.27269679733E-01  0.51679182766E-01  0.67401448609E-01  0.51100000000E-03 0. -1.
         11    1    4    4    0    0  0.14107493128E-01 -0.91376920471E-02  0.69850620857E-01  0.71846288237E-01  0.51100000000E-03 0.  1.
</event>
<event>
 8    1  0.2846344E+004  0.1043930E+01  0.7957747E-01            NaN
         13   -1    0    0    0    0  0.00000000000E+00  0.00000000000E+00  0.74505805969E-08  0.10566000000E+00  0.10566000000E+00 0.  1.
     999900   -1    0    0    0    0 -0.00000000000E+00 -0.00000000000E+00 -0.74505805969E-08  0.93827000000E+00  0.93827000000E+00 0.  1.
     999902    2    1    2    0    0  0.38327941676E-02  0.13335322062E-01  0.39869073360E-02  0.10294933606E+01  0.10293921328E+01 0.  0.
     999903    2    3    3    0    0 -0.18817355116E-01 -0.49579996704E-01 -0.11976567469E+00  0.13832218284E+00  0.44462799103E-01 0.  0.
         14    1    1    2    0    0 -0.38327941676E-02 -0.13335322062E-01 -0.39869073360E-02  0.14436639350E-01  0.00000000000E+00 0.  1.
     999901    1    3    3    0    0  0.22650149284E-01  0.62915318766E-01  0.12375258203E+00  0.89117117781E+00  0.88000000000E+00 0. -1.
        -11    1    4    4    0    0 -0.20895223909E-01 -0.57285429320E-02 -0.62582883334E-01  0.66229185362E-01  0.51100000000E-03 0. -1.
         11    1    4    4    0    0  0.20778687930E-02 -0.43851453773E-01 -0.57182791361E-01  0.72092997479E-01  0.51100000000E-03 0.  1.
</event>
<event>
 8    1  0.2846344E+004  0.1043930E+01  0.7957747E-01            NaN
         13   -1    0    0    0    0  0.00000000000E+00  0.00000000000E+00  0.74505805969E-08  0.10566000000E+00  0.10566000000E+00 0.  1.
     999900   -1    0    0    0    0 -0.00000000000E+00 -0.00000000000E+00 -0.74505805969E-08  0.93827000000E+00  0.93827000000E+00 0.  1.
     999902    2    1    2    0    0  0.54329835980E-02  0.16629495988E-01 -0.81578319081E-02  0.10246269518E+01  0.10244451097E+01 0.  0.
     999903    2    3    3    0    0 -0.86997379025E-01  0.98192277967E-01 -0.85020129135E-02  0.13603481940E+00  0.34970279610E-01 0.  0.
         14    1    1    2    0    0 -0.54329835980E-02 -0.16629495988E-01  0.81578319081E-02  0.19303048180E-01  0.00000000000E+00 0. -1.
     999901    1    3    3    0    0  0.92430362623E-01 -0.81562781979E-01  0.34418100540E-03  0.88859213242E+00  0.88000000000E+00 0. -1.
        -11    1    4    4    0    0 -0.78244358022E-01  0.70804410892E-01  0.16488291517E-02  0.10553873186E+00  0.51100000000E-03 0.  1.
         11    1    4    4    0    0 -0.87530210026E-02  0.27387867075E-01 -0.10150842065E-01  0.30496087540E-01  0.51100000000E-03 0. -1.
</event>
<event>
 8    1  0.2846344E+004  0.1043930E+01  0.7957747E-01            NaN
         13   -1    0    0    0    0  0.00000000000E+00  0.00000000000E+00  0.74505805969E-08  0.10566000000E+00  0.10566000000E+00 0.  1.
     999900   -1    0    0    0    0 -0.00000000000E+00 -0.00000000000E+00 -0.74505805969E-08  0.93827000000E+00  0.93827000000E+00 0.  1.
     999902    2    1    2    0    0 -0.93485830141E-02  0.98689600724E-02  0.11810551233E-02  0.10302849544E+01  0.10301945933E+01 0.  0.
     999903    2    3    3    0    0 -0.35420593501E-01 -0.12679909394E+00  0.63001415475E-02  0.13933932660E+00  0.45200967746E-01 0.  0.
         14    1    1    2    0    0  0.93485830141E-02 -0.98689600724E-02 -0.11810551233E-02  0.13645045566E-01  0.00000000000E+00 0. -1.
     999901    1    3    3    0    0  0.26072010486E-01  0.13666805401E+00 -0.51190864242E-02  0.89094562784E+00  0.88000000000E+00 0. -1.
        -11    1    4    4    0    0 -0.25727072807E-01 -0.21897007253E-01  0.32662754816E-02  0.33945410270E-01  0.51100000000E-03 0. -1.
         11    1    4    4    0    0 -0.96935206938E-02 -0.10490208669E+00  0.30338660659E-02  0.10539391633E+00  0.51100000000E-03 0.  1.
</event>
<event>
 8    1  0.2846344E+004  0.1043930E+01  0.7957747E-01            NaN
         13   -1    0    0    0    0  0.00000000000E+00  0.00000000000E+00  0.74505805969E-08  0.10566000000E+00  0.10566000000E+00 0. -1.
     999900   -1    0    0    0    0 -0.00000000000E+00 -0.00000000000E+00 -0.74505805969E-08  0.93827000000E+00  0.93827000000E+00 0.  1.
     999902    2    1    2    0    0 -0.13237633736E-01  0.45061105778E-02  0.35136904024E-02  0.10295117477E+01  0.10294107793E+01 0.  0.
     999903    2    3    3    0    0  0.35825835220E-01  0.64105365763E-01  0.10999652262E+00  0.13973768156E+00  0.45104282155E-01 0.  0.
         14    1    1    2    0    0  0.13237633736E-01 -0.45061105778E-02 -0.35136904024E-02  0.14418252311E-01  0.00000000000E+00 0.  1.
     999901    1    3    3    0    0 -0.49063468956E-01 -0.59599255185E-01 -0.10648283222E+00  0.88977406613E+00  0.88000000000E+00 0.  1.
        -11    1    4    4    0    0 -0.49756528857E-02  0.17004935872E-01  0.50730851860E-01  0.53738304933E-01  0.51100000000E-03 0.  1.
         11    1    4    4    0    0  0.40801488106E-01  0.47100429891E-01  0.59265670763E-01  0.85999376623E-01  0.51100000000E-03 0. -1.
</event>
<event>
 8    1  0.2846344E+004  0.1043930E+01  0.7957747E-01            NaN
         13   -1    0    0    0    0  0.00000000000E+00  0.00000000000E+00  0.74505805969E-08  0.10566000000E+00  0.10566000000E+00 0. -1.
     999900   -1    0    0    0    0 -0.00000000000E+00 -0.00000000000E+00 -0.74505805969E-08  0.93827000000E+00  0.93827000000E+00 0. -1.
     999902    2    1    2    0    0 -0.30355297227E-02  0.98091858742E-02  0.10463108537E-01  0.10292701498E+01  0.10291657447E+01 0.  0.
     999903    2    3    3    0    0 -0.29472329668E-01 -0.61340725222E-01 -0.11110419393E+00  0.13767617085E+00  0.44489137132E-01 0.  0.
         14    1    1    2    0    0  0.30355297227E-02 -0.98091858742E-02 -0.10463108537E-01  0.14659850220E-01  0.00000000000E+00 0.  1.
     999901    1    3    3    0    0  0.26436799945E-01  0.71149911097E-01  0.12156730247E+00  0.89159397893E+00  0.88000000000E+00 0.  1.
        -11    1    4    4    0    0 -0.26475595062E-01 -0.68527952411E-01 -0.99197074528E-01  0.12343969423E+00  0.51100000000E-03 0. -1.
         11    1    4    4    0    0 -0.29967346059E-02  0.71872271886E-02 -0.11907119405E-01  0.14236476618E-01  0.51100000000E-03 0.  1.
</event>
<event>
 8    1  0.2846344E+004  0.1043930E+01  0.7957747E-01            NaN
         13   -1    0    0    0    0  0.00000000000E+00  0.00000000000E+00  0.74505805969E-08  0.10566000000E+00  0.10566000000E+00 0. -1.
     999900   -1    0    0    0    0 -0.00000000000E+00 -0.00000000000E+00 -0.74505805969E-08  0.93827000000E+00  0.93827000000E+00 0. -1.
     999902    2    1    2    0    0  0.81843711421E-02 -0.80862428799E-02 -0.46771248938E-02  0.10315103884E+01  0.10314356183E+01 0.  0.
     999903    2    3    3    0    0 -0.64254906666E-02 -0.99892222293E-01  0.91257831961E-01  0.14142876189E+00  0.40673821920E-01 0.  0.
         14    1    1    2    0    0 -0.81843711421E-02  0.80862428799E-02  0.46771248938E-02  0.12419611595E-01  0.00000000000E+00 0. -1.
     999901    1    3    3    0    0  0.14609861809E-01  0.91805979413E-01 -0.95934956855E-01  0.89008162652E+00  0.88000000000E+00 0. -1.
        -11    1    4    4    0    0 -0.11438367755E-01 -0.38396877689E-01  0.60295398689E-01  0.72394424490E-01  0.51100000000E-03 0. -1.
         11    1    4    4    0    0  0.50128770888E-02 -0.61495344604E-01  0.30962433273E-01  0.69034337397E-01  0.51100000000E-03 0.  1.
</event>
<event>
 8    1  0.2846344E+004  0.1043930E+01  0.7957747E-01            NaN
         13   -1    0    0    0    0  0.00000000000E+00  0.00000000000E+00  0.74505805969E-08  0.10566000000E+00  0.10566000000E+00 0.  1.
     999900   -1    0    0    0    0 -0.00000000000E+00 -0.00000000000E+00 -0.74505805969E-08  0.93827000000E+00  0.93827000000E+00 0. -1.
     999902    2    1    2    0    0 -0.17361084704E-02  0.15419821434E-01 -0.10402877436E-01  0.10252483292E+01  0.10250781100E+01 0.  0.
     999903    2    3    3    0    0  0.12105948436E+00 -0.40205157401E-01 -0.15815556776E-02  0.13493899439E+00  0.43979284375E-01 0.  0.
         14    1    1    2    0    0  0.17361084704E-02 -0.15419821434E-01  0.10402877436E-01  0.18681670820E-01  0.00000000000E+00 0.  1.
     999901    1    3    3    0    0 -0.12279559283E+00  0.55624978835E-01 -0.88213217587E-02  0.89030933479E+00  0.88000000000E+00 0.  1.
        -11    1    4    4    0    0  0.44078121343E-01 -0.34820799454E-01 -0.10850194741E-01  0.57213256354E-01  0.51100000000E-03 0.  1.
         11    1    4    4    0    0  0.76981363019E-01 -0.53843579477E-02  0.92686390639E-02  0.77725738040E-01  0.51100000000E-03 0. -1.
</event>
<event>
 8    1  0.2846344E+004  0.1043930E+01  0.7957747E-01            NaN
         13   -1    0    0    0    0  0.00000000000E+00  0.00000000000E+00  0.74505805969E-08  0.10566000000E+00  0.10566000000E+00 0.  1.
     999900   -1    0    0    0    0 -0.00000000000E+00 -0.00000000000E+00 -0.74505805969E-08  0.93827000000E+00  0.93827000000E+00 0.  1.
     999902    2    1    2    0    0  0.12505354211E-01 -0.29714395186E-02 -0.93969974276E-02  0.10280077860E+01  0.10278844737E+01 0.  0.
     999903    2    3    3    0    0  0.23574939561E-01  0.75974109454E-01 -0.10415714932E+00  0.13933775627E+00  0.47312318542E-01 0.  0.
         14    1    1    2    0    0 -0.12505354211E-01  0.29714395186E-02  0.93969974276E-02  0.15922213961E-01  0.00000000000E+00 0.  1.
     999901    1    3    3    0    0 -0.11069585350E-01 -0.78945548973E-01  0.94760151890E-01  0.88867002977E+00  0.88000000000E+00 0. -1.
        -11    1    4    4    0    0 -0.75329496593E-03  0.19681741449E-01 -0.61645031380E-01  0.64717149308E-01  0.51100000000E-03 0.  1.
         11    1    4    4    0    0  0.24328234526E-01  0.56292368006E-01 -0.42512117938E-01  0.74620606963E-01  0.51100000000E-03 0. -1.
</event>
<event>
 8    1  0.2846344E+004  0.1043930E+01  0.7957747E-01            NaN
         13   -1    0    0    0    0  0.00000000000E+00  0.00000000000E+00  0.74505805969E-08  0.10566000000E+00  0.10566000000E+00 0.  1.
     999900   -1    0    0    0    0 -0.00000000000E+00 -0.00000000000E+00 -0.74505805969E-08  0.93827000000E+00  0.93827000000E+00 0. -1.
     999902    2    1    2    0    0  0.97793534424E-02  0.14506306076E-01  0.18805130113E-02  0.10263344040E+01  0.10261835624E+01 0.  0.
     999903    2    3    3    0    0  0.74951301520E-01  0.80654343326E-01 -0.71128516586E-01  0.13844180685E+00  0.44542646040E-01 0.  0.
         14    1    1    2    0    0 -0.97793534424E-02 -0.14506306076E-01 -0.18805130113E-02  0.17595596009E-01  0.00000000000E+00 0.  1.
     999901    1    3    3    0    0 -0.65171948078E-01 -0.66148037250E-01  0.73009029597E-01  0.88789259714E+00  0.88000000000E+00 0.  1.
        -11    1    4    4    0    0  0.58993730666E-01  0.65387054976E-01 -0.32367415750E-01  0.93827703477E-01  0.51100000000E-03 0.  1.
         11    1    4    4    0    0  0.15957570854E-01  0.15267288350E-01 -0.38761100836E-01  0.44614103377E-01  0.51100000000E-03 0. -1.
</event>
<event>
 8    1  0.2846344E+004  0.1043930E+01  0.7957747E-01            NaN
         13   -1    0    0    0    0  0.00000000000E+00  0.00000000000E+00  0.74505805969E-08  0.10566000000E+00  0.10566000000E+00 0.  1.
     999900   -1    0    0    0    0 -0.00000000000E+00 -0.00000000000E+00 -0.74505805969E-08  0.93827000000E+00  0.93827000000E+00 0. -1.
     999902    2    1    2    0    0 -0.61590790799E-02 -0.11064929359E-01 -0.60431077967E-02  0.10298983904E+01  0.10298028007E+01 0.  0.
     999903    2    3    3    0    0 -0.84093005063E-01  0.79488836691E-01 -0.64836570452E-01  0.13988133851E+00  0.44417331478E-01 0.  0.
         14    1    1    2    0    0  0.61590790799E-02  0.11064929359E-01  0.60431077967E-02  0.14031609625E-01  0.00000000000E+00 0.  1.
     999901    1    3    3    0    0  0.77933925983E-01 -0.90553766049E-01  0.58793462655E-01  0.89001705187E+00  0.88000000000E+00 0.  1.
        -11    1    4    4    0    0 -0.79842814419E-02 -0.56020576364E-02 -0.57486199768E-02  0.11333117512E-01  0.51100000000E-03 0.  1.
         11    1    4    4    0    0 -0.76108723621E-01  0.85090894327E-01 -0.59087950475E-01  0.12854822099E+00  0.51100000000E-03 0. -1.
</event>
<event>
 8    1  0.2846344E+004  0.1043930E+01  0.7957747E-01            NaN
         13   -1    0    0    0    0  0.00000000000E+00  0.00000000000E+00  0.74505805969E-08  0.10566000000E+00  0.10566000000E+00 0.  1.
     999900   -1    0    0    0    0 -0.00000000000E+00 -0.00000000000E+00 -0.74505805969E-08  0.93827000000E+00  0.93827000000E+00 0. -1.
     999902    2    1    2    0    0 -0.10490043489E-01 -0.75986095849E-02 -0.57331253300E-02  0.10297649513E+01  0.10296675222E+01 0.  0.
     999903    2    3    3    0    0 -0.57575360426E-01  0.11864410075E+00  0.73832838892E-02  0.13941317292E+00  0.44611378956E-01 0.  0.
         14    1    1    2    0    0  0.10490043489E-01  0.75986095849E-02  0.57331253300E-02  0.14165048749E-01  0.00000000000E+00 0.  1.
     999901    1    3    3    0    0  0.47085316937E-01 -0.12624271033E+00 -0.13116409219E-01  0.89035177833E+00  0.88000000000E+00 0. -1.
        -11    1    4    4    0    0 -0.22304375232E-01  0.69254671518E-01  0.23775592593E-01  0.76545637405E-01  0.51100000000E-03 0.  1.
         11    1    4    4    0    0 -0.35270985193E-01  0.49389429231E-01 -0.16392308704E-01  0.62867535516E-01  0.51100000000E-03 0. -1.
</event>
<event>
 8    1  0.2846344E+004  0.1043930E+01  0.7957747E-01            NaN
         13   -1    0    0    0    0  0.00000000000E+00  0.00000000000E+00  0.74505805969E-08  0.10566000000E+00  0.10566000000E+00 0. -1.
     999900   -1    0    0    0    0 -0.00000000000E+00 -0.00000000000E+00 -0.74505805969E-08  0.93827000000E+00  0.93827000000E+00 0. -1.
     999902    2    1    2    0    0  0.11307046782E-01  0.85504971409E-02  0.46846517899E-02  0.10289999541E+01  0.10288916363E+01 0.  0.
     999903    2    3    3    0    0  0.10921101827E+00 -0.73036417433E-01  0.16169794800E-01  0.13974547940E+00  0.44788078389E-01 0.  0.
         14    1    1    2    0    0 -0.11307046782E-01 -0.85504971409E-02 -0.46846517899E-02  0.14930045903E-01  0.00000000000E+00 0.  1.
     999901    1    3    3    0    0 -0.97903971485E-01  0.81586914574E-01 -0.11485143010E-01  0.88925447470E+00  0.88000000000E+00 0.  1.
        -11    1    4    4    0    0  0.30262666455E-01 -0.39305167299E-01 -0.86923867422E-02  0.50364112874E-01  0.51100000000E-03 0. -1.
         11    1    4    4    0    0  0.78948351813E-01 -0.33731250134E-01  0.24862181542E-01  0.89381366523E-01  0.51100000000E-03 0.  1.
</event>
<event>
 8    1  0.2846344E+004  0.1043930E+01  0.7957747E-01            NaN
         13   -1    0    0    0    0  0.00000000000E+00  0.00000000000E+00  0.74505805969E-08  0.10566000000E+00  0.10566000000E+00 0. -1.
     999900   -1    0    0    0    0 -0.00000000000E+00 -0.00000000000E+00 -0.74505805969E-08  0.93827000000E+00  0.93827000000E+00 0.  1.
     999902    2    1    2    0    0  0.11166086493E-01  0.70897118618E-02 -0.21297883123E-01  0.10188591937E+01  0.10185506916E+01 0.  0.
     999903    2    3    3    0    0  0.99258065053E-01  0.46053893387E-01  0.54915734447E-01  0.13032842913E+00  0.44683743969E-01 0.  0.
         14    1    1    2    0    0 -0.11166086493E-01 -0.70897118618E-02  0.21297883123E-01  0.25070806277E-01  0.00000000000E+00 0. -1.
     999901    1    3    3    0    0 -0.88091978560E-01 -0.38964181525E-01 -0.76213617569E-01  0.88853076459E+00  0.88000000000E+00 0.  1.
        -11    1    4    4    0    0  0.35994404147E-01  0.11713965555E-01  0.43127216500E-01  0.57384946136E-01  0.51100000000E-03 0. -1.
         11    1    4    4    0    0  0.63263660906E-01  0.34339927832E-01  0.11788517946E-01  0.72943482993E-01  0.51100000000E-03 0.  1.
</event>
<event>
 8    1  0.2846344E+004  0.1043930E+01  0.7957747E-01            NaN
         13   -1    0    0    0    0  0.00000000000E+00  0.00000000000E+00  0.74505805969E-08  0.10566000000E+00  0.10566000000E+00 0.  1.
     999900   -1    0    0    0    0 -0.00000000000E+00 -0.00000000000E+00 -0.74505805969E-08  0.93827000000E+00  0.93827000000E+00 0. -1.
     999902    2    1    2    0    0  0.79756912620E-02 -0.61376317332E-02 -0.29779762932E-02  0.10334347383E+01  0.10333814436E+01 0.  0.
     999903    2    3    3    0    0  0.42009911128E-01 -0.11104393392E+00 -0.68020466263E-01  0.14416864439E+00  0.45411741875E-01 0.  0.
         14    1    1    2    0    0 -0.79756912620E-02  0.61376317332E-02  0.29779762932E-02  0.10495261655E-01  0.00000000000E+00 0.  1.
     999901    1    3    3    0    0 -0.34034219866E-01  0.10490630219E+00  0.65042489970E-01  0.88926609396E+00  0.88000000000E+00 0.  1.
        -11    1    4    4    0    0  0.93838422442E-02 -0.82933663004E-01 -0.51292560935E-01  0.97965488223E-01  0.51100000000E-03 0. -1.
         11    1    4    4    0    0  0.32626068884E-01 -0.28110270918E-01 -0.16727905328E-01  0.46203156165E-01  0.51100000000E-03 0.  1.
</event>
<event>
 8    1  0.2846344E+004  0.1043930E+01  0.7957747E-01            NaN
         13   -1    0    0    0    0  0.00000000000E+00  0.00000000000E+00  0.74505805969E-08  0.10566000000E+00  0.10566000000E+00 0. -1.
     999900   -1    0    0    0    0 -0.00000000000E+00 -0.00000000000E+00 -0.74505805969E-08  0.93827000000E+00  0.93827000000E+00 0. -1.
     999902    2    1    2    0    0  0.78156056764E-02 -0.96023969710E-02 -0.62863014084E-02  0.10300444930E+01  0.10299508970E+01 0.  0.
     999903    2    3    3    0    0  0.90109885663E-01 -0.65872191863E-01  0.73318834850E-01  0.14084506875E+00  0.44752035632E-01 0.  0.
         14    1    1    2    0    0 -0.78156056764E-02  0.96023969710E-02  0.62863014084E-02  0.13885507015E-01  0.00000000000E+00 0.  1.
     999901    1    3    3    0    0 -0.82294279987E-01  0.56269794892E-01 -0.79605136258E-01  0.88919942423E+00  0.88000000000E+00 0. -1.
        -11    1    4    4    0    0  0.37539399103E-01 -0.54146081675E-01  0.46715398234E-01  0.80768769948E-01  0.51100000000E-03 0. -1.
         11    1    4    4    0    0  0.52570486560E-01 -0.11726110187E-01  0.26603436616E-01  0.60076298804E-01  0.51100000000E-03 0.  1.
</event>
<event>
 8    1  0.2846344E+004  0.1043930E+01  0.7957747E-01            NaN
         13   -1    0    0    0    0  0.00000000000E+00  0.00000000000E+00  0.74505805969E-08  0.10566000000E+00  0.10566000000E+00 0. -1.
     999900   -1    0    0    0    0 -0.00000000000E+00 -0.00000000000E+00 -0.74505805969E-08  0.93827000000E+00  0.93827000000E+00 0.  1.
     999902    2    1    2    0    0 -0.37491782966E-02 -0.11071501355E-01 -0.83690045515E-02  0.10295538142E+01  0.10294534383E+01 0.  0.
     999903    2    3    3    0    0 -0.31825628002E-01 -0.97959943280E-01 -0.82537685975E-01  0.14172563171E+00  0.51620383498E-01 0.  0.
         14    1    1    2    0    0  0.37491782966E-02  0.11071501355E-01  0.83690045515E-02  0.14376185772E-01  0.00000000000E+00 0.  1.
     999901    1    3    3    0    0  0.28076449705E-01  0.86888441925E-01  0.74168681424E-01  0.88782818252E+00  0.88000000000E+00 0. -1.
        -11    1    4    4    0    0  0.45242786761E-02 -0.67759830931E-01 -0.50445327829E-01  0.84598203326E-01  0.51100000000E-03 0. -1.
         11    1    4    4    0    0 -0.36349906678E-01 -0.30200112350E-01 -0.32092358146E-01  0.57127428384E-01  0.51100000000E-03 0.  1.
</event>
<event>
 8    1  0.2846344E+004  0.1043930E+01  0.7957747E-01            NaN
         13   -1    0    0    0    0  0.00000000000E+00  0.00000000000E+00  0.74505805969E-08  0.10566000000E+00  0.10566000000E+00 0. -1.
     999900   -1    0    0    0    0 -0.00000000000E+00 -0.00000000000E+00 -0.74505805969E-08  0.93827000000E+00  0.93827000000E+00 0. -1.
     999902    2    1    2    0    0  0.95884070861E-02 -0.89080586421E-02  0.38935529779E-02  0.10302753007E+01  0.10301848108E+01 0.  0.
     999903    2    3    3    0    0 -0.14213523272E-01 -0.55769337726E-01  0.12057188656E+00  0.14101923805E+00  0.45128731379E-01 0.  0.
         14    1    1    2    0    0 -0.95884070861E-02  0.89080586421E-02 -0.38935529779E-02  0.13654699338E-01  0.00000000000E+00 0. -1.
     999901    1    3    3    0    0  0.23801930358E-01  0.46861279084E-01 -0.11667833359E+00  0.88925606261E+00  0.88000000000E+00 0. -1.
        -11    1    4    4    0    0 -0.92765778043E-02 -0.18745183929E-01  0.91004529302E-01  0.93378382353E-01  0.51100000000E-03 0.  1.
         11    1    4    4    0    0 -0.49369454675E-02 -0.37024153797E-01  0.29567357262E-01  0.47640855696E-01  0.51100000000E-03 0. -1.
</event>
<event>
 8    1  0.2846344E+004  0.1043930E+01  0.7957747E-01            NaN
         13   -1    0    0    0    0  0.00000000000E+00  0.00000000000E+00  0.74505805969E-08  0.10566000000E+00  0.10566000000E+00 0.  1.
     999900   -1    0    0    0    0 -0.00000000000E+00 -0.00000000000E+00 -0.74505805969E-08  0.93827000000E+00  0.93827000000E+00 0.  1.
     999902    2    1    2    0    0  0.36429944933E-02 -0.39310867665E-02 -0.13654603932E-01  0.10292612216E+01  0.10291566883E+01 0.  0.
     999903    2    3    3    0    0  0.29614031651E-01 -0.12481484075E+00 -0.33599219725E-01  0.14039387239E+00  0.46106360699E-01 0.  0.
         14    1    1    2    0    0 -0.36429944933E-02  0.39310867665E-02  0.13654603932E-01  0.14668778428E-01  0.00000000000E+00 0.  1.
     999901    1    3    3    0    0 -0.25971037158E-01  0.12088375398E+00  0.19944615793E-01  0.88886734918E+00  0.88000000000E+00 0.  1.
        -11    1    4    4    0    0  0.33930321066E-01 -0.12695733656E+00 -0.33126167760E-01  0.13552503867E+00  0.51100000000E-03 0.  1.
         11    1    4    4    0    0 -0.43162894155E-02  0.21424958153E-02 -0.47305196527E-03  0.48688337206E-02  0.51100000000E-03 0. -1.
</event>
<event>
 8    1  0.2846344E+004  0.1043930E+01  0.7957747E-01            NaN
         13   -1    0    0    0    0  0.00000000000E+00  0.00000000000E+00  0.74505805969E-08  0.10566000000E+00  0.10566000000E+00 0.  1.
     999900   -1    0    0    0    0 -0.00000000000E+00 -0.00000000000E+00 -0.74505805969E-08  0.93827000000E+00  0.93827000000E+00 0.  1.
     999902    2    1    2    0    0  0.36959661343E-03 -0.12489904884E-01  0.65136662585E-02  0.10298387909E+01  0.10297423819E+01 0.  0.
     999903    2    3    3    0    0  0.22421800591E-01  0.27446665078E-01 -0.12623188882E+00  0.13871443835E+00  0.45289613440E-01 0.  0.
         14    1    1    2    0    0 -0.36959661343E-03  0.12489904884E-01 -0.65136662585E-02  0.14091209096E-01  0.00000000000E+00 0. -1.
     999901    1    3    3    0    0 -0.22052203978E-01 -0.39936569962E-01  0.13274555508E+00  0.89112435255E+00  0.88000000000E+00 0. -1.
        -11    1    4    4    0    0  0.10798968107E-01 -0.11592168581E-01 -0.25092854999E-01  0.29680104070E-01  0.51100000000E-03 0. -1.
         11    1    4    4    0    0  0.11622832484E-01  0.39038833658E-01 -0.10113903382E+00  0.10903433428E+00  0.51100000000E-03 0.  1.
</event>
<event>
 8    1  0.2846344E+004  0.1043930E+01  0.7957747E-01            NaN
         13   -1    0    0    0    0  0.00000000000E+00  0.00000000000E+00  0.74505805969E-08  0.10566000000E+00  0.10566000000E+00 0. -1.
     999900   -1    0    0    0    0 -0.00000000000E+00 -0.00000000000E+00 -0.74505805969E-08  0.93827000000E+00  0.93827000000E+00 0. -1.
     999902    2    1    2    0    0 -0.99399751923E-02 -0.72820330839E-02  0.74657241766E-02  0.10295227744E+01  0.10294219615E+01 0.  0.
     999903    2    3    3    0    0 -0.72375038631E-01 -0.10630604234E+00  0.37089138683E-01  0.14127650321E+00  0.45214215639E-01 0.  0.
         14    1    1    2    0    0  0.99399751923E-02  0.72820330839E-02 -0.74657241766E-02  0.14407225623E-01  0.00000000000E+00 0.  1.
     999901    1    3    3    0    0  0.62435063439E-01  0.99024009258E-01 -0.29623414507E-01  0.88824627117E+00  0.88000000000E+00 0. -1.
        -11    1    4    4    0    0 -0.55765627514E-01 -0.61239414426E-01  0.39500371728E-02  0.82921257865E-01  0.51100000000E-03 0. -1.
         11    1    4    4    0    0 -0.16609411117E-01 -0.45066627916E-01  0.33139101510E-01  0.58355245345E-01  0.51100000000E-03 0.  1.
</event>
<event>
 8    1  0.2846344E+004  0.1043930E+01  0.7957747E-01            NaN
         13   -1    0    0    0    0  0.00000000000E+00  0.00000000000E+00  0.74505805969E-08  0.10566000000E+00  0.10566000000E+00 0. -1.
     999900   -1    0    0    0    0 -0.00000000000E+00 -0.00000000000E+00 -0.74505805969E-08  0.93827000000E+00  0.93827000000E+00 0.  1.
     999902    2    1    2    0    0  0.57252139361E-02 -0.53143241598E-02  0.10904683218E-01  0.10305161179E+01  0.10304288122E+01 0.  0.
     999903    2    3    3    0    0  0.56097011693E-02  0.49874209669E-01  0.12459081434E+00  0.14148837708E+00  0.44465540521E-01 0.  0.
         14    1    1    2    0    0 -0.57252139361E-02  0.53143241598E-02 -0.10904683218E-01  0.13413882062E-01  0.00000000000E+00 0.  1.
     999901    1    3    3    0    0  0.11551276674E-03 -0.55188533828E-01 -0.11368613112E+00  0.88902774086E+00  0.88000000000E+00 0.  1.
        -11    1    4    4    0    0  0.16365113946E-01  0.50175389498E-01  0.81697544051E-01  0.97263232985E-01  0.51100000000E-03 0.  1.
         11    1    4    4    0    0 -0.10755412776E-01 -0.30117982904E-03  0.42893270286E-01  0.44225144093E-01  0.51100000000E-03 0. -1.
</event>
<event>
 8    1  0.2846344E+004  0.1043930E+01  0.7957747E-01            NaN
         13   -1    0    0    0    0  0.00000000000E+00  0.00000000000E+00  0.74505805969E-08  0.10566000000E+00  0.10566000000E+00 0.  1.
     999900   -1    0    0    0    0 -0.00000000000E+00 -0.00000000000E+00 -0.74505805969E-08  0.93827000000E+00  0.93827000000E+00 0. -1.
     999902    2    1    2    0    0 -0.44464815839E-02  0.72426799826E-02 -0.11103285949E-01  0.10299474905E+01  0.10298525733E+01 0.  0.
     999903    2    3    3    0    0  0.99836769718E-01 -0.85321463551E-01 -0.91025551387E-02  0.13896650304E+00  0.44516286087E-01 0.  0.
         14    1    1    2    0    0  0.44464815839E-02 -0.72426799826E-02  0.11103285949E-01  0.13982509455E-01  0.00000000000E+00 0.  1.
     999901    1    3    3    0    0 -0.10428325130E+00  0.92564143534E-01 -0.20007308101E-02  0.89098098750E+00  0.88000000000E+00 0. -1.
        -11    1    4    4    0    0  0.41971777861E-01 -0.14567072563E-01  0.10105518495E-01  0.45565473387E-01  0.51100000000E-03 0.  1.
         11    1    4    4    0    0  0.57864991857E-01 -0.70754390988E-01 -0.19208073634E-01  0.93401029654E-01  0.51100000000E-03 0. -1.
</event>
<event>
 8    1  0.2846344E+004  0.1043930E+01  0.7957747E-01            NaN
         13   -1    0    0    0    0  0.00000000000E+00  0.00000000000E+00  0.74505805969E-08  0.10566000000E+00  0.10566000000E+00 0. -1.
     999900   -1    0    0    0    0 -0.00000000000E+00 -0.00000000000E+00 -0.74505805969E-08  0.93827000000E+00  0.93827000000E+00 0. -1.
     999902    2    1    2    0    0 -0.77858226423E-02 -0.29032132816E-02  0.11118749960E-01  0.10300492838E+01  0.10299557528E+01 0.  0.
     999903    2    3    3    0    0 -0.38152670074E-01 -0.12601605584E+00  0.22969108110E-01  0.14088149962E+00  0.44545981238E-01 0.  0.
         14    1    1    2    0    0  0.77858226423E-02  0.29032132816E-02 -0.11118749960E-01  0.13880716201E-01  0.00000000000E+00 0.  1.
     999901    1    3    3    0    0  0.30366847431E-01  0.12311284256E+00 -0.11850358150E-01  0.88916778418E+00  0.88000000000E+00 0.  1.
        -11    1    4    4    0    0 -0.37794428238E-01 -0.60688110469E-01  0.24369934150E-01  0.75535556989E-01  0.51100000000E-03 0. -1.
         11    1    4    4    0    0 -0.35824183556E-03 -0.65327945376E-01 -0.14008260404E-02  0.65345942635E-01  0.51100000000E-03 0.  1.
</event>
<event>
 8    1  0.2846344E+004  0.1043930E+01  0.7957747E-01            NaN
         13   -1    0    0    0    0  0.00000000000E+00  0.00000000000E+00  0.74505805969E-08  0.10566000000E+00  0.10566000000E+00 0.  1.
     999900   -1    0    0    0    0 -0.00000000000E+00 -0.00000000000E+00 -0.74505805969E-08  0.93827000000E+00  0.93827000000E+00 0.  1.
     999902    2    1    2    0    0 -0.13836640073E-01  0.40820281228E-02  0.19889513533E-02  0.10293673255E+01  0.10292643097E+01 0.  0.
     999903    2    3    3    0    0  0.62572871144E-01 -0.34622631422E-01 -0.10957727726E+00  0.13819759559E+00  0.44466896979E-01 0.  0.
         14    1    1    2    0    0  0.13836640073E-01 -0.40820281228E-02 -0.19889513533E-02  0.14562674534E-01  0.00000000000E+00 0. -1.
     999901    1    3    3    0    0 -0.76409511217E-01  0.38704659545E-01  0.11156622861E+00  0.89116972987E+00  0.88000000000E+00 0. -1.
        -11    1    4    4    0    0  0.43333874232E-01 -0.26204885329E-01 -0.10517821080E+00  0.11673576067E+00  0.51100000000E-03 0.  1.
         11    1    4    4    0    0  0.19238996912E-01 -0.84177460937E-02 -0.43990664529E-02  0.21461834920E-01  0.51100000000E-03 0. -1.
</event>
<event>
 8    1  0.2846344E+004  0.1043930E+01  0.7957747E-01            NaN
         13   -1    0    0    0    0  0.00000000000E+00  0.00000000000E+00  0.74505805969E-08  0.10566000000E+00  0.10566000000E+00 0.  1.
     999900   -1    0    0    0    0 -0.00000000000E+00 -0.00000000000E+00 -0.74505805969E-08  0.93827000000E+00  0.93827000000E+00 0. -1.
     999902    2    1    2    0    0 -0.14186592346E-01 -0.27497737977E-02  0.32894646405E-02  0.10291097019E+01  0.10290029822E+01 0.  0.
     999903    2    3    3    0    0  0.10800876666E+00 -0.10917122011E-01  0.74192030152E-01  0.13780415095E+00  0.41236506328E-01 0.  0.
         14    1    1    2    0    0  0.14186592346E-01  0.27497737977E-02 -0.32894646405E-02  0.14820298106E-01  0.00000000000E+00 0.  1.
     999901    1    3    3    0    0 -0.12219535900E+00  0.81673482137E-02 -0.70902565512E-01  0.89130555094E+00  0.88000000000E+00 0. -1.
        -11    1    4    4    0    0  0.76338050604E-01 -0.14030406766E-01  0.29714095504E-01  0.83111604946E-01  0.51100000000E-03 0. -1.
         11    1    4    4    0    0  0.31670716054E-01  0.31132847547E-02  0.44477934648E-01  0.54692546008E-01  0.51100000000E-03 0.  1.
</event>
<event>
 8    1  0.2846344E+004  0.1043930E+01  0.7957747E-01            NaN
         13   -1    0    0    0    0  0.00000000000E+00  0.00000000000E+00  0.74505805969E-08  0.10566000000E+00  0.10566000000E+00 0. -1.
     999900   -1    0    0    0    0 -0.00000000000E+00 -0.00000000000E+00 -0.74505805969E-08  0.93827000000E+00  0.93827000000E+00 0. -1.
     999902    2    1    2    0    0 -0.50290514202E-02 -0.38666925447E-02  0.12186537889E-01  0.10301912091E+01  0.10300995937E+01 0.  0.
     999903    2    3    3    0    0 -0.54797331735E-01 -0.10864701241E+00  0.56313223384E-01  0.14148261709E+00  0.45157844712E-01 0.  0.
         14    1    1    2    0    0  0.50290514202E-02  0.38666925447E-02 -0.12186537889E-01  0.13738790891E-01  0.00000000000E+00 0.  1.
     999901    1    3    3    0    0  0.49768280315E-01  0.10478031987E+00 -0.44126685496E-01  0.88870859202E+00  0.88000000000E+00 0. -1.
        -11    1    4    4    0    0 -0.32312525019E-01 -0.25156246325E-01  0.31071745536E-01  0.51406716428E-01  0.51100000000E-03 0.  1.
         11    1    4    4    0    0 -0.22484806716E-01 -0.83490766088E-01  0.25241477848E-01  0.90075900661E-01  0.51100000000E-03 0. -1.
</event>
<event>
 8    1  0.2846344E+004  0.1043930E+01  0.7957747E-01            NaN
         13   -1    0    0    0    0  0.00000000000E+00  0.00000000000E+00  0.74505805969E-08  0.10566000000E+00  0.10566000000E+00 0. -1.
     999900   -1    0    0    0    0 -0.00000000000E+00 -0.00000000000E+00 -0.74505805969E-08  0.93827000000E+00  0.93827000000E+00 0.  1.
     999902    2    1    2    0    0  0.64329209925E-02 -0.83519930633E-03  0.12338338080E-01  0.10299903222E+01  0.10298959895E+01 0.  0.
     999903    2    3    3    0    0  0.21053980257E-02 -0.90327280298E-02  0.13707686739E+00  0.14114521330E+00  0.32340080188E-01 0.  0.
         14    1    1    2    0    0 -0.64329209925E-02  0.83519930633E-03 -0.12338338080E-01  0.13939677792E-01  0.00000000000E+00 0.  1.
     999901    1    3    3    0    0  0.43275229669E-02  0.81975287234E-02 -0.12473852931E+00  0.88884510891E+00  0.88000000000E+00 0.  1.
        -11    1    4    4    0    0 -0.15052397987E-01 -0.25549860997E-02  0.59831654276E-01  0.61751037348E-01  0.51100000000E-03 0.  1.
         11    1    4    4    0    0  0.17157796013E-01 -0.64777419301E-02  0.77245213118E-01  0.79394175953E-01  0.51100000000E-03 0. -1.
</event>
<event>
 8    1  0.2846344E+004  0.1043930E+01  0.7957747E-01            NaN
         13   -1    0    0    0    0  0.00000000000E+00  0.00000000000E+00  0.74505805969E-08  0.10566000000E+00  0.10566000000E+00 0. -1.
     999900   -1    0    0    0    0 -0.00000000000E+00 -0.00000000000E+00 -0.74505805969E-08  0.93827000000E+00  0.93827000000E+00 0.  1.
     999902    2    1    2    0    0  0.91770889168E-02  0.13612019553E-02  0.87080008539E-02  0.10312059633E+01  0.10311274594E+01 0.  0.
     999903    2    3    3    0    0 -0.12120986946E+00 -0.33183115240E-02  0.54540106761E-01  0.14040674982E+00  0.45128577460E-01 0.  0.
         14    1    1    2    0    0 -0.91770889168E-02 -0.13612019553E-02 -0.87080008539E-02  0.12724036727E-01  0.00000000000E+00 0.  1.
     999901    1    3    3    0    0  0.13038695837E+00  0.46795134793E-02 -0.45832105907E-01  0.89079921346E+00  0.88000000000E+00 0.  1.
        -11    1    4    4    0    0 -0.95946892898E-01 -0.98399105955E-02  0.22422065621E-01  0.99023432808E-01  0.51100000000E-03 0. -1.
         11    1    4    4    0    0 -0.25262976560E-01  0.65215990715E-02  0.32118041140E-01  0.41383317010E-01  0.51100000000E-03 0.  1.
</event>
<event>
 8    1  0.2846344E+004  0.1043930E+01  0.7957747E-01            NaN
         13   -1    0    0    0    0  0.00000000000E+00  0.00000000000E+00  0.74505805969E-08  0.10566000000E+00  0.10566000000E+00 0.  1.
     999900   -1    0    0    0    0 -0.00000000000E+00 -0.00000000000E+00 -0.74505805969E-08  0.93827000000E+00  0.93827000000E+00 0. -1.
     999902    2    1    2    0    0  0.81610657444E-02  0.11717886776E-01  0.33891022487E-02  0.10292535604E+01  0.10291489172E+01 0.  0.
     999903    2    3    3    0    0 -0.13704354943E-01 -0.12797914015E+00 -0.14311806329E-01  0.13779033734E+00  0.47062507417E-01 0.  0.
         14    1    1    2    0    0 -0.81610657444E-02 -0.11717886776E-01 -0.33891022487E-02  0.14676439576E-01  0.00000000000E+00 0.  1.
     999901    1    3    3    0    0  0.21865420687E-01  0.13969702693E+00  0.17700908578E-01  0.89146322309E+00  0.88000000000E+00 0. -1.
        -11    1    4    4    0    0  0.10849844670E-01 -0.37009976999E-01 -0.19893681774E-01  0.43399046330E-01  0.51100000000E-03 0.  1.
         11    1    4    4    0    0 -0.24554199612E-01 -0.90969163152E-01  0.55818754448E-02  0.94391291006E-01  0.51100000000E-03 0. -1.
</event>
<event>
 8    1  0.2846344E+004  0.1043930E+01  0.7957747E-01            NaN
         13   -1    0    0    0    0  0.00000000000E+00  0.00000000000E+00  0.74505805969E-08  0.10566000000E+00  0.10566000000E+00 0.  1.
     999900   -1    0    0    0    0 -0.00000000000E+00 -0.00000000000E+00 -0.74505805969E-08  0.93827000000E+00  0.93827000000E+00 0. -1.
     999902    2    1    2    0    0  0.18261782983E-02 -0.91860284849E-02  0.99886391383E-02  0.10302372662E+01  0.10301462681E+01 0.  0.
     999903    2    3    3    0    0 -0.16966153284E-01 -0.97115353172E-01 -0.88667244309E-01  0.14017114440E+00  0.45462372698E-01 0.  0.
         14    1    1    2    0    0 -0.18261782983E-02  0.91860284849E-02 -0.99886391383E-02  0.13692733779E-01  0.00000000000E+00 0. -1.
     999901    1    3    3    0    0  0.18792331582E-01  0.87929324687E-01  0.98655883448E-01  0.89006612182E+00  0.88000000000E+00 0.  1.
        -11    1    4    4    0    0 -0.16634434374E-02 -0.83688290048E-02 -0.33469171766E-01  0.34543464254E-01  0.51100000000E-03 0. -1.
         11    1    4    4    0    0 -0.15302709847E-01 -0.88746524168E-01 -0.55198072543E-01  0.10562768015E+00  0.51100000000E-03 0.  1.
</event>
<event>
 8    1  0.2846344E+004  0.1043930E+01  0.7957747E-01            NaN
         13   -1    0    0    0    0  0.00000000000E+00  0.00000000000E+00  0.74505805969E-08  0.10566000000E+00  0.10566000000E+00 0.  1.
     999900   -1    0    0    0    0 -0.00000000000E+00 -0.00000000000E+00 -0.74505805969E-08  0.93827000000E+00  0.93827000000E+00 0.  1.
     999902    2    1    2    0    0  0.72406323102E-02 -0.10726649993E-01 -0.19616365753E-02  0.10308404700E+01  0.10307573618E+01 0.  0.
     999903    2    3    3    0    0  0.11479512527E+00 -0.14969952752E-01  0.66521866085E-01  0.14164084976E+00  0.47275272436E-01 0.  0.
         14    1    1    2    0    0 -0.72406323102E-02  0.10726649993E-01  0.19616365753E-02  0.13089529953E-01  0.00000000000E+00 0.  1.
     999901    1    3    3    0    0 -0.10755449296E+00  0.42433027585E-02 -0.68483502661E-01  0.88919962028E+00  0.88000000000E+00 0.  1.
        -11    1    4    4    0    0  0.20476763180E-01  0.15651226033E-01  0.11422090879E-01  0.28195460410E-01  0.51100000000E-03 0.  1.
         11    1    4    4    0    0  0.94318362088E-01 -0.30621178785E-01  0.55099775207E-01  0.11344538936E+00  0.51100000000E-03 0. -1.
</event>
<event>
 8    1  0.2846344E+004  0.1043930E+01  0.7957747E-01            NaN
         13   -1    0    0    0    0  0.00000000000E+00  0.00000000000E+00  0.74505805969E-08  0.10566000000E+00  0.10566000000E+00 0. -1.
     999900   -1    0    0    0    0 -0.00000000000E+00 -0.00000000000E+00 -0.74505805969E-08  0.93827000000E+00  0.93827000000E+00 0.  1.
     999902    2    1    2    0    0  0.35569952409E-02  0.73345276083E-02 -0.10815536547E-01  0.10303866126E+01  0.10302976017E+01 0.  0.
     999903    2    3    3    0    0 -0.10047127029E+00 -0.13483611260E-02  0.85055282562E-01  0.13904577629E+00  0.44755252013E-01 0.  0.
         14    1    1    2    0    0 -0.35569952409E-02 -0.73345276083E-02  0.10815536547E-01  0.13543387360E-01  0.00000000000E+00 0.  1.
     999901    1    3    3    0    0  0.10402826553E+00  0.86828887343E-02 -0.95870819108E-01  0.89134083635E+00  0.88000000000E+00 0.  1.
        -11    1    4    4    0    0 -0.15020308274E-01 -0.15003859309E-02  0.39325944042E-01  0.42126616460E-01  0.51100000000E-03 0.  1.
         11    1    4    4    0    0 -0.85450962011E-01  0.15202480491E-03  0.45729338520E-01  0.96919159832E-01  0.51100000000E-03 0. -1.
</event>
<event>
 8    1  0.2846344E+004  0.1043930E+01  0.7957747E-01            NaN
         13   -1    0    0    0    0  0.00000000000E+00  0.00000000000E+00  0.74505805969E-08  0.10566000000E+00  0.10566000000E+00 0.  1.
     999900   -1    0    0    0    0 -0.00000000000E+00 -0.00000000000E+00 -0.74505805969E-08  0.93827000000E+00  0.93827000000E+00 0. -1.
     999902    2    1    2    0    0 -0.16831345659E-01  0.76814222918E-02  0.16297582344E-02  0.10253570477E+01  0.10251888220E+01 0.  0.
     999903    2    3    3    0    0 -0.10440863647E+00  0.70168312159E-01  0.34609815634E-01  0.13819185595E+00  0.45545519115E-01 0.  0.
         14    1    1    2    0    0  0.16831345659E-01 -0.76814222918E-02 -0.16297582344E-02  0.18572952297E-01  0.00000000000E+00 0.  1.
     999901    1    3    3    0    0  0.87577290813E-01 -0.62486889867E-01 -0.32980057400E-01  0.88716519175E+00  0.88000000000E+00 0.  1.
        -11    1    4    4    0    0 -0.10224223036E+00  0.53220945681E-01  0.23024996744E-01  0.11754298926E+00  0.51100000000E-03 0. -1.
         11    1    4    4    0    0 -0.21664061162E-02  0.16947366478E-01  0.11584818890E-01  0.20648866693E-01  0.51100000000E-03 0.  1.
</event>
<event>
 8    1  0.2846344E+004  0.1043930E+01  0.7957747E-01            NaN
         13   -1    0    0    0    0  0.00000000000E+00  0.00000000000E+00  0.74505805969E-08  0.10566000000E+00  0.10566000000E+00 0.  1.
     999900   -1    0    0    0    0 -0.00000000000E+00 -0.00000000000E+00 -0.74505805969E-08  0.93827000000E+00  0.93827000000E+00 0.  1.
     999902    2    1    2    0    0  0.23919771995E-02  0.12629085716E-01 -0.49475757805E-02  0.10301570603E+01  0.10300649859E+01 0.  0.
     999903    2    3    3    0    0  0.54772724863E-01  0.10138873735E+00  0.67835378815E-01  0.14115797318E+00  0.45212911017E-01 0.  0.
         14    1    1    2    0    0 -0.23919771995E-02 -0.12629085716E-01  0.49475757805E-02  0.13772939666E-01  0.00000000000E+00 0.  1.
     999901    1    3    3    0    0 -0.52380747664E-01 -0.88759651634E-01 -0.72782954595E-01  0.88899908716E+00  0.88000000000E+00 0.  1.
        -11    1    4    4    0    0  0.10225772623E-01  0.42755202557E-01  0.48008984350E-02  0.44225371883E-01  0.51100000000E-03 0.  1.
         11    1    4    4    0    0  0.44546952240E-01  0.58633534793E-01  0.63034480380E-01  0.96932601296E-01  0.51100000000E-03 0. -1.
</event>
<event>
 8    1  0.2846344E+004  0.1043930E+01  0.7957747E-01            NaN
         13   -1    0    0    0    0  0.00000000000E+00  0.00000000000E+00  0.74505805969E-08  0.10566000000E+00  0.10566000000E+00 0. -1.
     999900   -1    0    0    0    0 -0.00000000000E+00 -0.00000000000E+00 -0.74505805969E-08  0.93827000000E+00  0.93827000000E+00 0.  1.
     999902    2    1    2    0    0  0.76781355034E-02  0.55260787490E-02  0.10198765547E-01  0.10300193519E+01  0.10299254144E+01 0.  0.
     999903    2    3    3    0    0  0.99664988957E-01  0.35687401513E-01  0.81914917256E-01  0.14181076549E+00  0.46835231289E-01 0.  0.
         14    1    1    2    0    0 -0.76781355034E-02 -0.55260787490E-02 -0.10198765547E-01  0.13910648074E-01  0.00000000000E+00 0.  1.
     999901    1    3    3    0    0 -0.91986853454E-01 -0.30161322764E-01 -0.71716151708E-01  0.88820858643E+00  0.88000000000E+00 0. -1.
        -11    1    4    4    0    0  0.94815532922E-01  0.26246268458E-01  0.85756453683E-01  0.13051161772E+00  0.51100000000E-03 0.  1.
         11    1    4    4    0    0  0.48494560346E-02  0.94411330546E-02 -0.38415364274E-02  0.11299147769E-01  0.51100000000E-03 0. -1.
</event>
<event>
 8    1  0.2846344E+004  0.1043930E+01  0.7957747E-01            NaN
         13   -1    0    0    0    0  0.00000000000E+00  0.00000000000E+00  0.74505805969E-08  0.10566000000E+00  0.10566000000E+00 0. -1.
     999900   -1    0    0    0    0 -0.00000000000E+00 -0.00000000000E+00 -0.74505805969E-08  0.93827000000E+00  0.93827000000E+00 0. -1.
     999902    2    1    2    0    0 -0.20227219241E-02  0.12001018656E-02 -0.12584092664E-01  0.10311280065E+01  0.10310485318E+01 0.  0.
     999903    2    3    3    0    0 -0.13293122226E+00 -0.15553004386E-01 -0.33436360016E-02  0.14123863809E+00  0.44995190760E-01 0.  0.
         14    1    1    2    0    0  0.20227219241E-02 -0.12001018656E-02  0.12584092664E-01  0.12801993463E-01  0.00000000000E+00 0. -1.
     999901    1    3    3    0    0  0.13090850034E+00  0.16753106251E-01 -0.92404566620E-02  0.88988936844E+00  0.88000000000E+00 0. -1.
        -11    1    4    4    0    0 -0.16164055612E-01  0.10602928240E-03  0.14937208700E-01  0.22015205218E-01  0.51100000000E-03 0. -1.
         11    1    4    4    0    0 -0.11676716665E+00 -0.15659033668E-01 -0.18280844702E-01  0.11922343288E+00  0.51100000000E-03 0.  1.
</event>
<event>
 8    1  0.2846344E+004  0.1043930E+01  0.7957747E-01            NaN
         13   -1    0    0    0    0  0.00000000000E+00  0.00000000000E+00  0.74505805969E-08  0.10566000000E+00  0.10566000000E+00 0.  1.
     999900   -1    0    0    0    0 -0.00000000000E+00 -0.00000000000E+00 -0.74505805969E-08  0.93827000000E+00  0.93827000000E+00 0.  1.
     999902    2    1    2    0    0 -0.41501744752E-02  0.34049761268E-03 -0.12817595063E-01  0.10304529592E+01  0.10303648239E+01 0.  0.
     999903    2    3    3    0    0 -0.12887826567E+00 -0.29820489054E-01 -0.16003693845E-01  0.14114034085E+00  0.46536100706E-01 0.  0.
         14    1    1    2    0    0  0.41501744752E-02 -0.34049761268E-03  0.12817595063E-01  0.13477040847E-01  0.00000000000E+00 0.  1.
     999901    1    3    3    0    0  0.12472809119E+00  0.30160986667E-01  0.31860987821E-02  0.88931261830E+00  0.88000000000E+00 0. -1.
        -11    1    4    4    0    0 -0.12663470442E-01  0.40511069058E-02 -0.15045930527E-01  0.20085220866E-01  0.51100000000E-03 0.  1.
         11    1    4    4    0    0 -0.11621479523E+00 -0.33871595960E-01 -0.95776331828E-03  0.12105511998E+00  0.51100000000E-03 0. -1.
</event>
<event>
 8    1  0.2846344E+004  0.1043930E+01  0.7957747E-01            NaN
         13   -1    0    0    0    0  0.00000000000E+00  0.00000000000E+00  0.74505805969E-08  0.10566000000E+00  0.10566000000E+00 0. -1.
     999900   -1    0    0    0    0 -0.00000000000E+00 -0.00000000000E+00 -0.74505805969E-08  0.93827000000E+00  0.93827000000E+00 0. -1.
     999902    2    1    2    0    0  0.14624552216E-01  0.16982472676E-04  0.79457566631E-04  0.10293052221E+01  0.10292013195E+01 0.  0.
     999903    2    3    3    0    0 -0.79113070419E-02  0.12917239215E+00 -0.28362308849E-01  0.13913786765E+00  0.42506822737E-01 0.  0.
         14    1    1    2    0    0 -0.14624552216E-01 -0.16982472676E-04 -0.79457566631E-04  0.14624777927E-01  0.00000000000E+00 0.  1.
     999901    1    3    3    0    0  0.22535859258E-01 -0.12915540967E+00  0.28441766416E-01  0.89016735442E+00  0.88000000000E+00 0.  1.
        -11    1    4    4    0    0 -0.17941369416E-01  0.10158256527E+00 -0.35190742764E-01  0.10899339338E+00  0.51100000000E-03 0. -1.
         11    1    4    4    0    0  0.10030062374E-01  0.27589826879E-01  0.68284339150E-02  0.30144474272E-01  0.51100000000E-03 0.  1.
</event>
<event>
 8    1  0.2846344E+004  0.1043930E+01  0.7957747E-01            NaN
         13   -1    0    0    0    0  0.00000000000E+00  0.00000000000E+00  0.74505805969E-08  0.10566000000E+00  0.10566000000E+00 0. -1.
     999900   -1    0    0    0    0 -0.00000000000E+00 -0.00000000000E+00 -0.74505805969E-08  0.93827000000E+00  0.93827000000E+00 0.  1.
     999902    2    1    2    0    0 -0.54667063190E-02  0.12402913162E-01 -0.69787307255E-02  0.10286846789E+01  0.10285717033E+01 0.  0.
     999903    2    3    3    0    0  0.12711701248E+00  0.21130837328E-01  0.22248167863E-01  0.13823039554E+00  0.44804175375E-01 0.  0.
         14    1    1    2    0    0  0.54667063190E-02 -0.12402913162E-01  0.69787307255E-02  0.15245321099E-01  0.00000000000E+00 0. -1.
     999901    1    3    3    0    0 -0.13258371880E+00 -0.87279241664E-02 -0.29226898588E-01  0.89045428336E+00  0.88000000000E+00 0.  1.
        -11    1    4    4    0    0  0.64208301372E-01  0.32626922509E-01  0.61715480108E-02  0.72288112185E-01  0.51100000000E-03 0. -1.
         11    1    4    4    0    0  0.62908711106E-01 -0.11496085180E-01  0.16076619852E-01  0.65942283357E-01  0.51100000000E-03 0.  1.
</event>
<event>
 8    1  0.2846344E+004  0.1043930E+01  0.7957747E-01            NaN
         13   -1    0    0    0    0  0.00000000000E+00  0.00000000000E+00  0.74505805969E-08  0.10566000000E+00  0.10566000000E+00 0. -1.
     999900   -1    0    0    0    0 -0.00000000000E+00 -0.00000000000E+00 -0.74505805969E-08  0.93827000000E+00  0.93827000000E+00 0. -1.
     999902    2    1    2    0    0 -0.14129593977E-01 -0.14509136844E-02  0.87195005949E-03  0.10296993685E+01  0.10296010288E+01 0.  0.
     999903    2    3    3    0    0 -0.91425469163E-01  0.87709700854E-01  0.42239895163E-01  0.14085991482E+00  0.44785029016E-01 0.  0.
         14    1    1    2    0    0  0.14129593977E-01  0.14509136844E-02 -0.87195005949E-03  0.14230631517E-01  0.00000000000E+00 0.  1.
     999901    1    3    3    0    0  0.77295875186E-01 -0.89160614539E-01 -0.41367945104E-01  0.88883945366E+00  0.88000000000E+00 0. -1.
        -11    1    4    4    0    0 -0.24447689168E-02  0.24024405185E-01  0.13726675973E-01  0.27781859078E-01  0.51100000000E-03 0. -1.
         11    1    4    4    0    0 -0.88980700246E-01  0.63685295669E-01  0.28513219190E-01  0.11307805574E+00  0.51100000000E-03 0.  1.
</event>
<event>
 8    1  0.2846344E+004  0.1043930E+01  0.7957747E-01            NaN
         13   -1    0    0    0    0  0.00000000000E+00  0.00000000000E+00  0.74505805969E-08  0.10566000000E+00  0.10566000000E+00 0. -1.
     999900   -1    0    0    0    0 -0.00000000000E+00 -0.00000000000E+00 -0.74505805969E-08  0.93827000000E+00  0.93827000000E+00 0. -1.
     999902    2    1    2    0    0  0.93452180725E-02 -0.18090451104E-01 -0.45716644913E-03  0.10235632005E+01  0.10233605517E+01 0.  0.
     999903    2    3    3    0    0 -0.98862332745E-03  0.50829140111E-01  0.11425884918E+00  0.13338543026E+00  0.46389756726E-01 0.  0.
         14    1    1    2    0    0 -0.93452180725E-02  0.18090451104E-01  0.45716644913E-03  0.20366799531E-01  0.00000000000E+00 0. -1.
     999901    1    3    3    0    0  0.10333841400E-01 -0.68919591215E-01 -0.11471601563E+00  0.89017777021E+00  0.88000000000E+00 0. -1.
        -11    1    4    4    0    0 -0.90924706803E-02  0.16304788194E-01  0.62359091759E-02  0.19689256598E-01  0.51100000000E-03 0.  1.
         11    1    4    4    0    0  0.81038473529E-02  0.34524351917E-01  0.10802294001E+00  0.11369617366E+00  0.51100000000E-03 0. -1.
</event>
<event>
 8    1  0.2846344E+004  0.1043930E+01  0.7957747E-01            NaN
         13   -1    0    0    0    0  0.00000000000E+00  0.00000000000E+00  0.74505805969E-08  0.10566000000E+00  0.10566000000E+00 0.  1.
     999900   -1    0    0    0    0 -0.00000000000E+00 -0.00000000000E+00 -0.74505805969E-08  0.93827000000E+00  0.93827000000E+00 0. -1.
     999902    2    1    2    0    0  0.54374288372E-02 -0.76619843054E-02  0.92910578331E-02  0.10307165451E+01  0.10306318455E+01 0.  0.
     999903    2    3    3    0    0 -0.11273668395E+00  0.42894081747E-01  0.55071233134E-01  0.14020160347E+00  0.45543240324E-01 0.  0.
         14    1    1    2    0    0 -0.54374288372E-02  0.76619843054E-02 -0.92910578331E-02  0.13213454942E-01  0.00000000000E+00 0. -1.
     999901    1    3    3    0    0  0.11817411278E+00 -0.50556066053E-01 -0.45780175301E-01  0.89051494159E+00  0.88000000000E+00 0.  1.
        -11    1    4    4    0    0 -0.11000304390E+00  0.47043183427E-01  0.42993140397E-01  0.12713143599E+00  0.51100000000E-03 0.  1.
         11    1    4    4    0    0 -0.27336400419E-02 -0.41491016791E-02  0.12078092737E-01  0.13070167474E-01  0.51100000000E-03 0. -1.
</event>
<event>
 8    1  0.2846344E+004  0.1043930E+01  0.7957747E-01            NaN
         13   -1    0    0    0    0  0.00000000000E+00  0.00000000000E+00  0.74505805969E-08  0.10566000000E+00  0.10566000000E+00 0.  1.
     999900   -1    0    0    0    0 -0.00000000000E+00 -0.00000000000E+00 -0.74505805969E-08  0.93827000000E+00  0.93827000000E+00 0. -1.
     999902    2    1    2    0    0  0.35976505483E-02  0.23452320839E-02  0.13284714617E-01  0.10299683796E+01  0.10298737476E+01 0.  0.
     999903    2    3    3    0    0  0.10699884336E+00 -0.28961482902E-01 -0.71057251118E-01  0.13935876572E+00  0.45653178127E-01 0.  0.
         14    1    1    2    0    0 -0.35976505483E-02 -0.23452320839E-02 -0.13284714617E-01  0.13961620445E-01  0.00000000000E+00 0. -1.
     999901    1    3    3    0    0 -0.10340119281E+00  0.31306714986E-01  0.84341965735E-01  0.89060961384E+00  0.88000000000E+00 0.  1.
        -11    1    4    4    0    0  0.95112393302E-01 -0.23214638891E-01 -0.40285007445E-01  0.10586987184E+00  0.51100000000E-03 0.  1.
         11    1    4    4    0    0  0.11886450058E-01 -0.57468440110E-02 -0.30772243673E-01  0.33488893872E-01  0.51100000000E-03 0. -1.
</event>
<event>
 8    1  0.2846344E+004  0.1043930E+01  0.7957747E-01            NaN
         13   -1    0    0    0    0  0.00000000000E+00  0.00000000000E+00  0.74505805969E-08  0.10566000000E+00  0.10566000000E+00 0. -1.
     999900   -1    0    0    0    0 -0.00000000000E+00 -0.00000000000E+00 -0.74505805969E-08  0.93827000000E+00  0.93827000000E+00 0. -1.
     999902    2    1    2    0    0 -0.77010440459E-02  0.10237105516E-01  0.36149045988E-02  0.10306194048E+01  0.10305334471E+01 0.  0.
     999903    2    3    3    0    0  0.89893111189E-02 -0.64515307718E-01  0.11560285378E+00  0.14022185765E+00  0.45333397371E-01 0.  0.
         14    1    1    2    0    0  0.77010440459E-02 -0.10237105516E-01 -0.36149045988E-02  0.13310595178E-01  0.00000000000E+00 0.  1.
     999901    1    3    3    0    0 -0.16690355165E-01  0.74752413233E-01 -0.11198794918E+00  0.89039754717E+00  0.88000000000E+00 0. -1.
        -11    1    4    4    0    0  0.94388974670E-03 -0.41197183692E-01  0.29572863814E-01  0.50723902326E-01  0.51100000000E-03 0. -1.
         11    1    4    4    0    0  0.80454213722E-02 -0.23318124026E-01  0.86029989968E-01  0.89497955329E-01  0.51100000000E-03 0.  1.
</event>
<event>
 8    1  0.2846344E+004  0.1043930E+01  0.7957747E-01            NaN
         13   -1    0    0    0    0  0.00000000000E+00  0.00000000000E+00  0.74505805969E-08  0.10566000000E+00  0.10566000000E+00 0.  1.
     999900   -1    0    0    0    0 -0.00000000000E+00 -0.00000000000E+00 -0.74505805969E-08  0.93827000000E+00  0.93827000000E+00 0.  1.
     999902    2    1    2    0    0  0.63967849912E-02 -0.10621290249E-01  0.19340106318E-02  0.10313812526E+01  0.10313049099E+01 0.  0.
     999903    2    3    3    0    0 -0.63494945417E-01  0.72252029111E-01 -0.91003163291E-01  0.13987120814E+00  0.45060130184E-01 0.  0.
         14    1    1    2    0    0 -0.63967849912E-02  0.10621290249E-01 -0.19340106318E-02  0.12548747423E-01  0.00000000000E+00 0. -1.
     999901    1    3    3    0    0  0.69891730409E-01 -0.82873319360E-01  0.92937173923E-01  0.89151004444E+00  0.88000000000E+00 0. -1.
        -11    1    4    4    0    0 -0.45994021282E-01  0.32029062099E-01 -0.73981809239E-01  0.92816378037E-01  0.51100000000E-03 0. -1.
         11    1    4    4    0    0 -0.17500924135E-01  0.40222967013E-01 -0.17021354052E-01  0.47054830099E-01  0.51100000000E-03 0.  1.
</event>
<event>
 8    1  0.2846344E+004  0.1043930E+01  0.7957747E-01            NaN
         13   -1    0    0    0    0  0.00000000000E+00  0.00000000000E+00  0.74505805969E-08  0.10566000000E+00  0.10566000000E+00 0. -1.
     999900   -1    0    0    0    0 -0.00000000000E+00 -0.00000000000E+00 -0.74505805969E-08  0.93827000000E+00  0.93827000000E+00 0. -1.
     999902    2    1    2    0    0 -0.64665165994E-03  0.12880212307E-01  0.59849552411E-02  0.10297124856E+01  0.10296143284E+01 0.  0.
     999903    2    3    3    0    0 -0.72464964015E-01  0.10661528108E+00 -0.39714417483E-01  0.14064973988E+00  0.39838739956E-01 0.  0.
         14    1    1    2    0    0  0.64665165994E-03 -0.12880212307E-01 -0.59849552411E-02  0.14217514434E-01  0.00000000000E+00 0.  1.
     999901    1    3    3    0    0  0.71818312355E-01 -0.93735068774E-01  0.45699372724E-01  0.88906274569E+00  0.88000000000E+00 0.  1.
        -11    1    4    4    0    0 -0.39864039809E-01  0.42081018132E-01 -0.36030906520E-01  0.68252773589E-01  0.51100000000E-03 0.  1.
         11    1    4    4    0    0 -0.32600924206E-01  0.64534262949E-01 -0.36835109628E-02  0.72396966286E-01  0.51100000000E-03 0. -1.
</event>
<event>
 8    1  0.2846344E+004  0.1043930E+01  0.7957747E-01            NaN
         13   -1    0    0    0    0  0.00000000000E+00  0.00000000000E+00  0.74505805969E-08  0.10566000000E+00  0.10566000000E+00 0. -1.
     999900   -1    0    0    0    0 -0.00000000000E+00 -0.00000000000E+00 -0.74505805969E-08  0.93827000000E+00  0.93827000000E+00 0.  1.
     999902    2    1    2    0    0 -0.12009602375E-01 -0.14474576389E-02  0.84010989980E-02  0.10292023340E+01  0.10290969537E+01 0.  0.
     999903    2    3    3    0    0  0.81569060249E-01 -0.62155329105E-03 -0.10113205553E+00  0.13748760370E+00  0.44958320656E-01 0.  0.
         14    1    1    2    0    0  0.12009602375E-01  0.14474576389E-02 -0.84010989980E-02  0.14727666047E-01  0.00000000000E+00 0.  1.
     999901    1    3    3    0    0 -0.93578662624E-01 -0.82590434780E-03  0.10953315453E+00  0.89171473026E+00  0.88000000000E+00 0. -1.
        -11    1    4    4    0    0  0.31854664471E-01 -0.15919131445E-01 -0.65114298059E-01  0.74217729197E-01  0.51100000000E-03 0.  1.
         11    1    4    4    0    0  0.49714395778E-01  0.15297578154E-01 -0.36017757470E-01  0.63269874499E-01  0.51100000000E-03 0. -1.
</event>
<event>
 8    1  0.2846344E+004  0.1043930E+01  0.7957747E-01            NaN
         13   -1    0    0    0    0  0.00000000000E+00  0.00000000000E+00  0.74505805969E-08  0.10566000000E+00  0.10566000000E+00 0. -1.
     999900   -1    0    0    0    0 -0.00000000000E+00 -0.00000000000E+00 -0.74505805969E-08  0.93827000000E+00  0.93827000000E+00 0.  1.
     999902    2    1    2    0    0  0.22943740477E-02  0.11813777771E-01 -0.62211950073E-02  0.10303825735E+01  0.10302935092E+01 0.  0.
     999903    2    3    3    0    0  0.13152903084E+00  0.17698375985E-01  0.11138204468E-01  0.14075480091E+00  0.45549269070E-01 0.  0.
         14    1    1    2    0    0 -0.22943740477E-02 -0.11813777771E-01  0.62211950073E-02  0.13547426502E-01  0.00000000000E+00 0. -1.
     999901    1    3    3    0    0 -0.12923465680E+00 -0.58845982135E-02 -0.17359399475E-01  0.88962777259E+00  0.88000000000E+00 0. -1.
        -11    1    4    4    0    0  0.12574053927E+00  0.18797381775E-01  0.21384038669E-01  0.12892464081E+00  0.51100000000E-03 0. -1.
         11    1    4    4    0    0  0.57884915732E-02 -0.10990057901E-02 -0.10245834202E-01  0.11830160097E-01  0.51100000000E-03 0.  1.
</event>
<event>
 8    1  0.2846344E+004  0.1043930E+01  0.7957747E-01            NaN
         13   -1    0    0    0    0  0.00000000000E+00  0.00000000000E+00  0.74505805969E-08  0.10566000000E+00  0.10566000000E+00 0. -1.
     999900   -1    0    0    0    0 -0.00000000000E+00 -0.00000000000E+00 -0.74505805969E-08  0.93827000000E+00  0.93827000000E+00 0.  1.
     999902    2    1    2    0    0 -0.10973220260E-01 -0.64897691897E-02  0.30651786493E-02  0.10308180212E+01  0.10307346258E+01 0.  0.
     999903    2    3    3    0    0 -0.80535809971E-01 -0.16403473895E-01  0.10659803065E+00  0.14196691623E+00  0.45126206584E-01 0.  0.
         14    1    1    2    0    0  0.10973220260E-01  0.64897691897E-02 -0.30651786493E-02  0.13111978766E-01  0.00000000000E+00 0. -1.
     999901    1    3    3    0    0  0.69562589711E-01  0.99137047056E-02 -0.10353285200E+00  0.88885110501E+00  0.88000000000E+00 0.  1.
        -11    1    4    4    0    0 -0.28282105699E-01  0.15780443427E-01  0.36718544880E-01  0.48963379751E-01  0.51100000000E-03 0.  1.
         11    1    4    4    0    0 -0.52253704272E-01 -0.32183917322E-01  0.69879485772E-01  0.93003536477E-01  0.51100000000E-03 0. -1.
</event>
<event>
 8    1  0.2846344E+004  0.1043930E+01  0.7957747E-01            NaN
         13   -1    0    0    0    0  0.00000000000E+00  0.00000000000E+00  0.74505805969E-08  0.10566000000E+00  0.10566000000E+00 0.  1.
     999900   -1    0    0    0    0 -0.00000000000E+00 -0.00000000000E+00 -0.74505805969E-08  0.93827000000E+00  0.93827000000E+00 0. -1.
     999902    2    1    2    0    0  0.35294794312E-02 -0.13147007674E-01 -0.14679368149E-02  0.10302385474E+01  0.10301475665E+01 0.  0.
     999903    2    3    3    0    0 -0.77879241121E-01 -0.12953029929E-03  0.10721368491E+00  0.13972828390E+00  0.44317334232E-01 0.  0.
         14    1    1    2    0    0 -0.35294794312E-02  0.13147007674E-01  0.14679368149E-02  0.13691452601E-01  0.00000000000E+00 0.  1.
     999901    1    3    3    0    0  0.81408720553E-01 -0.13017477375E-01 -0.10868162172E+00  0.89051026350E+00  0.88000000000E+00 0. -1.
        -11    1    4    4    0    0  0.17680182583E-02  0.38854183538E-02  0.24332300453E-01  0.24709195265E-01  0.51100000000E-03 0.  1.
         11    1    4    4    0    0 -0.79647259380E-01 -0.40149486531E-02  0.82881384457E-01  0.11501908863E+00  0.51100000000E-03 0. -1.
</event>
<event>
 8    1  0.2846344E+004  0.1043930E+01  0.7957747E-01            NaN
         13   -1    0    0    0    0  0.00000000000E+00  0.00000000000E+00  0.74505805969E-08  0.10566000000E+00  0.10566000000E+00 0.  1.
     999900   -1    0    0    0    0 -0.00000000000E+00 -0.00000000000E+00 -0.74505805969E-08  0.93827000000E+00  0.93827000000E+00 0. -1.
     999902    2    1    2    0    0 -0.83868053236E-02 -0.10757684437E-01  0.27559836729E-02  0.10300137604E+01  0.10299197468E+01 0.  0.
     999903    2    3    3    0    0  0.10710368435E-01 -0.12202546587E+00  0.54144256563E-01  0.14131472485E+00  0.45092401010E-01 0.  0.
         14    1    1    2    0    0  0.83868053236E-02  0.10757684437E-01 -0.27559836729E-02  0.13916239578E-01  0.00000000000E+00 0.  1.
     999901    1    3    3    0    0 -0.19097173759E-01  0.11126778143E+00 -0.51388272890E-01  0.88869903557E+00  0.88000000000E+00 0. -1.
        -11    1    4    4    0    0 -0.13886437180E-01 -0.69692390107E-01  0.40887238239E-01  0.81987131601E-01  0.51100000000E-03 0. -1.
         11    1    4    4    0    0  0.24596805615E-01 -0.52333075762E-01  0.13257018324E-01  0.59327593252E-01  0.51100000000E-03 0.  1.
</event>
<event>
 8    1  0.2846344E+004  0.1043930E+01  0.7957747E-01            NaN
         13   -1    0    0    0    0  0.00000000000E+00  0.00000000000E+00  0.74505805969E-08  0.10566000000E+00  0.10566000000E+00 0. -1.
     999900   -1    0    0    0    0 -0.00000000000E+00 -0.00000000000E+00 -0.74505805969E-08  0.93827000000E+00  0.93827000000E+00 0. -1.
     999902    2    1    2    0    0 -0.58922429241E-02 -0.12664008978E-01  0.33814052948E-02  0.10295588639E+01  0.10294585590E+01 0.  0.
     999903    2    3    3    0    0 -0.71282277352E-01 -0.95221100673E-01 -0.63849513168E-01  0.14073293812E+00  0.39759004809E-01 0.  0.
         14    1    1    2    0    0  0.58922429241E-02  0.12664008978E-01 -0.33814052948E-02  0.14371136067E-01  0.00000000000E+00 0.  1.
     999901    1    3    3    0    0  0.65390034428E-01  0.82557091695E-01  0.67230918463E-01  0.88882592581E+00  0.88000000000E+00 0.  1.
        -11    1    4    4    0    0 -0.58274219906E-01 -0.70059987772E-01 -0.65699722238E-01  0.11234322950E+00  0.51100000000E-03 0. -1.
         11    1    4    4    0    0 -0.13008057446E-01 -0.25161112901E-01  0.18502090699E-02  0.28389708621E-01  0.51100000000E-03 0.  1.
</event>
<event>
 8    1  0.2846344E+004  0.1043930E+01  0.7957747E-01            NaN
         13   -1    0    0    0    0  0.00000000000E+00  0.00000000000E+00  0.74505805969E-08  0.10566000000E+00  0.10566000000E+00 0. -1.
     999900   -1    0    0    0    0 -0.00000000000E+00 -0.00000000000E+00 -0.74505805969E-08  0.93827000000E+00  0.93827000000E+00 0. -1.
     999902    2    1    2    0    0 -0.69171507590E-02  0.61631550820E-02  0.10669835634E-01  0.10297992942E+01  0.10297023402E+01 0.  0.
     999903    2    3    3    0    0  0.36337726551E-01  0.12418547789E+00  0.32294373497E-01  0.14060422347E+00  0.44543886326E-01 0.  0.
         14    1    1    2    0    0  0.69171507590E-02 -0.61631550820E-02 -0.10669835634E-01  0.14130705844E-01  0.00000000000E+00 0.  1.
     999901    1    3    3    0    0 -0.43254877310E-01 -0.11802232281E+00 -0.21624537863E-01  0.88919507068E+00  0.88000000000E+00 0.  1.
        -11    1    4    4    0    0  0.14141330890E-01  0.49550603499E-01 -0.92382354644E-02  0.52353086461E-01  0.51100000000E-03 0.  1.
         11    1    4    4    0    0  0.22196395662E-01  0.74634874390E-01  0.41532608962E-01  0.88251137011E-01  0.51100000000E-03 0. -1.
</event>
<event>
 8    1  0.2846344E+004  0.1043930E+01  0.7957747E-01            NaN
         13   -1    0    0    0    0  0.00000000000E+00  0.00000000000E+00  0.74505805969E-08  0.10566000000E+00  0.10566000000E+00 0. -1.
     999900   -1    0    0    0    0 -0.00000000000E+00 -0.00000000000E+00 -0.74505805969E-08  0.93827000000E+00  0.93827000000E+00 0. -1.
     999902    2    1    2    0    0  0.75455533038E-02 -0.73198404618E-02  0.11176175760E-01  0.10285865211E+01  0.10284720750E+01 0.  0.
     999903    2    3    3    0    0  0.99049000667E-01  0.60321667032E-01  0.63337726651E-01  0.13972821870E+00  0.45419152761E-01 0.  0.
         14    1    1    2    0    0 -0.75455533038E-02  0.73198404618E-02 -0.11176175760E-01  0.15343478864E-01  0.00000000000E+00 0.  1.
     999901    1    3    3    0    0 -0.91503447363E-01 -0.67641507494E-01 -0.52161550891E-01  0.88885830243E+00  0.88000000000E+00 0. -1.
        -11    1    4    4    0    0  0.40302645968E-01  0.42407305619E-01  0.49808915664E-01  0.76836658195E-01  0.51100000000E-03 0.  1.
         11    1    4    4    0    0  0.58746354699E-01  0.17914361413E-01  0.13528810986E-01  0.62891560507E-01  0.51100000000E-03 0. -1.
</event>
<event>
 8    1  0.2846344E+004  0.1043930E+01  0.7957747E-01            NaN
         13   -1    0    0    0    0  0.00000000000E+00  0.00000000000E+00  0.74505805969E-08  0.10566000000E+00  0.10566000000E+00 0.  1.
     999900   -1    0    0    0    0 -0.00000000000E+00 -0.00000000000E+00 -0.74505805969E-08  0.93827000000E+00  0.93827000000E+00 0. -1.
     999902    2    1    2    0    0  0.51138580575E-02  0.77585399561E-02 -0.10179508747E-01  0.10301470800E+01  0.10300548711E+01 0.  0.
     999903    2    3    3    0    0  0.12945725966E+00  0.27823892829E-01 -0.12775288672E-01  0.14117540551E+00  0.47264532444E-01 0.  0.
         14    1    1    2    0    0 -0.51138580575E-02 -0.77585399561E-02  0.10179508747E-01  0.13782920040E-01  0.00000000000E+00 0.  1.
     999901    1    3    3    0    0 -0.12434340161E+00 -0.20065352873E-01  0.25957799244E-02  0.88897167445E+00  0.88000000000E+00 0. -1.
        -11    1    4    4    0    0  0.11607981380E+00  0.28170576738E-01 -0.26116908018E-01  0.12227206783E+00  0.51100000000E-03 0. -1.
         11    1    4    4    0    0  0.13377445867E-01 -0.34668390871E-03  0.13341619346E-01  0.18903337680E-01  0.51100000000E-03 0.  1.
</event>
<event>
 8    1  0.2846344E+004  0.1043930E+01  0.7957747E-01            NaN
         13   -1    0    0    0    0  0.00000000000E+00  0.00000000000E+00  0.74505805969E-08  0.10566000000E+00  0.10566000000E+00 0. -1.
     999900   -1    0    0    0    0 -0.00000000000E+00 -0.00000000000E+00 -0.74505805969E-08  0.93827000000E+00  0.93827000000E+00 0. -1.
     999902    2    1    2    0    0 -0.63121875522E-02  0.12671940537E-01  0.20578706906E-02  0.10296241753E+01  0.10295247864E+01 0.  0.
     999903    2    3    3    0    0  0.43213945350E-01  0.17573555235E-01 -0.12386424476E+00  0.13926849197E+00  0.43325359903E-01 0.  0.
         14    1    1    2    0    0  0.63121875522E-02 -0.12671940537E-01 -0.20578706906E-02  0.14305824704E-01  0.00000000000E+00 0.  1.
     999901    1    3    3    0    0 -0.49526132902E-01 -0.49016146978E-02  0.12592211545E+00  0.89035568332E+00  0.88000000000E+00 0.  1.
        -11    1    4    4    0    0  0.41363631041E-01  0.29046959783E-01 -0.11074280800E+00  0.12173293100E+00  0.51100000000E-03 0. -1.
         11    1    4    4    0    0  0.18503143089E-02 -0.11473404548E-01 -0.13121436754E-01  0.17535560968E-01  0.51100000000E-03 0.  1.
</event>
<event>
 8    1  0.2846344E+004  0.1043930E+01  0.7957747E-01            NaN
         13   -1    0    0    0    0  0.00000000000E+00  0.00000000000E+00  0.74505805969E-08  0.10566000000E+00  0.10566000000E+00 0. -1.
     999900   -1    0    0    0    0 -0.00000000000E+00 -0.00000000000E+00 -0.74505805969E-08  0.93827000000E+00  0.93827000000E+00 0.  1.
     999902    2    1    2    0    0 -0.93469707351E-02  0.18991627265E-02  0.74607679034E-02  0.10318206755E+01  0.10317496163E+01 0.  0.
     999903    2    3    3    0    0  0.45070850235E-01  0.10493812844E+00  0.71847720290E-01  0.14180718839E+00  0.43632458402E-01 0.  0.
         14    1    1    2    0    0  0.93469707351E-02 -0.18991627265E-02 -0.74607679034E-02  0.12109324452E-01  0.00000000000E+00 0.  1.
     999901    1    3    3    0    0 -0.54417820970E-01 -0.10303896571E+00 -0.64386952387E-01  0.89001348716E+00  0.88000000000E+00 0.  1.
        -11    1    4    4    0    0  0.15391324970E-01  0.54613212832E-01  0.59247679577E-01  0.82036848772E-01  0.51100000000E-03 0.  1.
         11    1    4    4    0    0  0.29679525265E-01  0.50324915603E-01  0.12600040713E-01  0.59770339613E-01  0.51100000000E-03 0. -1.
</event>
<event>
 8    1  0.2846344E+004  0.1043930E+01  0.7957747E-01            NaN
         13   -1    0    0    0    0  0.00000000000E+00  0.00000000000E+00  0.74505805969E-08  0.10566000000E+00  0.10566000000E+00 0. -1.
     999900   -1    0    0    0    0 -0.00000000000E+00 -0.00000000000E+00 -0.74505805969E-08  0.93827000000E+00  0.93827000000E+00 0.  1.
     999902    2    1    2    0    0 -0.14994847151E-01  0.41551362024E-03  0.28710647039E-02  0.10286571121E+01  0.10285437245E+01 0.  0.
     999903    2    3    3    0    0 -0.84144655860E-01  0.85717269115E-01 -0.56264592615E-01  0.13986292247E+00  0.44363942171E-01 0.  0.
         14    1    1    2    0    0  0.14994847151E-01 -0.41551362024E-03 -0.28710647039E-02  0.15272887912E-01  0.00000000000E+00 0. -1.
     999901    1    3    3    0    0  0.69149808709E-01 -0.85301755495E-01  0.59135657319E-01  0.88879418962E+00  0.88000000000E+00 0. -1.
        -11    1    4    4    0    0 -0.20219743087E-01  0.49076455411E-01 -0.33395177200E-01  0.62712323091E-01  0.51100000000E-03 0. -1.
         11    1    4    4    0    0 -0.63924912773E-01  0.36640813705E-01 -0.22869415414E-01  0.77150599378E-01  0.51100000000E-03 0.  1.
</event>
<event>
 8    1  0.2846344E+004  0.1043930E+01  0.7957747E-01            NaN
         13   -1    0    0    0    0  0.00000000000E+00  0.00000000000E+00  0.74505805969E-08  0.10566000000E+00  0.10566000000E+00 0. -1.
     999900   -1    0    0    0    0 -0.00000000000E+00 -0.00000000000E+00 -0.74505805969E-08  0.93827000000E+00  0.93827000000E+00 0.  1.
     999902    2    1    2    0    0 -0.42320180910E-02  0.12180854031E-01  0.61201147414E-02  0.10296562834E+01  0.10295573432E+01 0.  0.
     999903    2    3    3    0    0 -0.92091283256E-01  0.57455683335E-01 -0.76654768245E-01  0.14026281482E+00  0.44897034726E-01 0.  0.
         14    1    1    2    0    0  0.42320180910E-02 -0.12180854031E-01 -0.61201147414E-02  0.14273716632E-01  0.00000000000E+00 0.  1.
     999901    1    3    3    0    0  0.87859265165E-01 -0.45274829304E-01  0.82774882986E-01  0.88939346855E+00  0.88000000000E+00 0. -1.
        -11    1    4    4    0    0 -0.19391992731E-01  0.32357258838E-01 -0.11435623563E-01  0.39421773031E-01  0.51100000000E-03 0.  1.
         11    1    4    4    0    0 -0.72699290525E-01  0.25098424497E-01 -0.65219144681E-01  0.10084104179E+00  0.51100000000E-03 0. -1.
</event>
<event>
 8    1  0.2846344E+004  0.1043930E+01  0.7957747E-01            NaN
         13   -1    0    0    0    0  0.00000000000E+00  0.00000000000E+00  0.74505805969E-08  0.10566000000E+00  0.10566000000E+00 0. -1.
     999900   -1    0    0    0    0 -0.00000000000E+00 -0.00000000000E+00 -0.74505805969E-08  0.93827000000E+00  0.93827000000E+00 0.  1.
     999902    2    1    2    0    0 -0.23655468522E-03 -0.13354415908E-01 -0.40874369036E-02  0.10299620537E+01  0.10298673354E+01 0.  0.
     999903    2    3    3    0    0 -0.40743779839E-01  0.94844195113E-01  0.80246001847E-01  0.13841289435E+00  0.45422808886E-01 0.  0.
         14    1    1    2    0    0  0.23655468522E-03  0.13354415908E-01  0.40874369036E-02  0.13967946263E-01  0.00000000000E+00 0. -1.
     999901    1    3    3    0    0  0.40507225154E-01 -0.10819861102E+00 -0.84333438751E-01  0.89154915939E+00  0.88000000000E+00 0.  1.
        -11    1    4    4    0    0 -0.37670961713E-01  0.48544520132E-01  0.65287748110E-01  0.89657252721E-01  0.51100000000E-03 0.  1.
         11    1    4    4    0    0 -0.30728181267E-02  0.46299674981E-01  0.14958253737E-01  0.48755641627E-01  0.51100000000E-03 0. -1.
</event>
<event>
 8    1  0.2846344E+004  0.1043930E+01  0.7957747E-01            NaN
         13   -1    0    0    0    0  0.00000000000E+00  0.00000000000E+00  0.74505805969E-08  0.10566000000E+00  0.10566000000E+00 0.  1.
     999900   -1    0    0    0    0 -0.00000000000E+00 -0.00000000000E+00 -0.74505805969E-08  0.93827000000E+00  0.93827000000E+00 0. -1.
     999902    2    1    2    0    0  0.12878137719E-01  0.23612916157E-02  0.67434089826E-02  0.10292026209E+01  0.10290972448E+01 0.  0.
     999903    2    3    3    0    0 -0.64401473487E-01  0.33634175980E-01  0.10921809930E+00  0.13934241071E+00  0.46999006645E-01 0.  0.
         14    1    1    2    0    0 -0.12878137719E-01 -0.23612916157E-02 -0.67434089826E-02  0.14727379057E-01  0.00000000000E+00 0. -1.
     999901    1    3    3    0    0  0.77279611205E-01 -0.31272884364E-01 -0.10247469032E+00  0.88986021024E+00  0.88000000000E+00 0. -1.
        -11    1    4    4    0    0 -0.21903502049E-01 -0.10730471328E-01  0.23439469749E-01  0.33831587017E-01  0.51100000000E-03 0. -1.
         11    1    4    4    0    0 -0.42497971438E-01  0.44364647308E-01  0.85778629552E-01  0.10551082369E+00  0.51100000000E-03 0.  1.
</event>
<event>
 8    1  0.2846344E+004  0.1043930E+01  0.7957747E-01            NaN
         13   -1    0    0    0    0  0.00000000000E+00  0.00000000000E+00  0.74505805969E-08  0.10566000000E+00  0.10566000000E+00 0.  1.
     999900   -1    0    0    0    0 -0.00000000000E+00 -0.00000000000E+00 -0.74505805969E-08  0.93827000000E+00  0.93827000000E+00 0. -1.
     999902    2    1    2    0    0  0.14799416766E-02 -0.10448459213E-01  0.90357227092E-02  0.10300373828E+01  0.10299436903E+01 0.  0.
     999903    2    3    3    0    0 -0.67031881416E-01  0.73914828316E-02  0.11569513022E+00  0.14077456304E+00  0.43407456700E-01 0.  0.
         14    1    1    2    0    0 -0.14799416766E-02  0.10448459213E-01 -0.90357227092E-02  0.13892617182E-01  0.00000000000E+00 0. -1.
     999901    1    3    3    0    0  0.68511823092E-01 -0.17839942045E-01 -0.10665940751E+00  0.88926281978E+00  0.88000000000E+00 0. -1.
        -11    1    4    4    0    0 -0.37119442444E-01  0.24218732934E-01  0.51250589851E-01  0.67759014997E-01  0.51100000000E-03 0.  1.
         11    1    4    4    0    0 -0.29912438971E-01 -0.16827250103E-01  0.64444540367E-01  0.73015548039E-01  0.51100000000E-03 0. -1.
</event>
<event>
 8    1  0.2846344E+004  0.1043930E+01  0.7957747E-01            NaN
         13   -1    0    0    0    0  0.00000000000E+00  0.00000000000E+00  0.74505805969E-08  0.10566000000E+00  0.10566000000E+00 0.  1.
     999900   -1    0    0    0    0 -0.00000000000E+00 -0.00000000000E+00 -0.74505805969E-08  0.93827000000E+00  0.93827000000E+00 0. -1.
     999902    2    1    2    0    0 -0.40471484670E-02  0.90168962959E-02  0.10391411526E-01  0.10295889658E+01  0.10294890836E+01 0.  0.
     999903    2    3    3    0    0 -0.57557630026E-01  0.88711160359E-01  0.81922671615E-01  0.14148352803E+00  0.46083769726E-01 0.  0.
         14    1    1    2    0    0  0.40471484670E-02 -0.90168962959E-02 -0.10391411526E-01  0.14341034238E-01  0.00000000000E+00 0. -1.
     999901    1    3    3    0    0  0.53510481559E-01 -0.79694264063E-01 -0.71531260089E-01  0.88810543773E+00  0.88000000000E+00 0.  1.
        -11    1    4    4    0    0 -0.35554275633E-01  0.36885116954E-01  0.13714352389E-01  0.53037373153E-01  0.51100000000E-03 0. -1.
         11    1    4    4    0    0 -0.22003354394E-01  0.51826043405E-01  0.68208319226E-01  0.88446154875E-01  0.51100000000E-03 0.  1.
</event>
<event>
 8    1  0.2846344E+004  0.1043930E+01  0.7957747E-01            NaN
         13   -1    0    0    0    0  0.00000000000E+00  0.00000000000E+00  0.74505805969E-08  0.10566000000E+00  0.10566000000E+00 0. -1.
     999900   -1    0    0    0    0 -0.00000000000E+00 -0.00000000000E+00 -0.74505805969E-08  0.93827000000E+00  0.93827000000E+00 0. -1.
     999902    2    1    2    0    0 -0.52720161662E-02  0.62852480848E-02  0.10670629679E-01  0.10304703999E+01  0.10303824941E+01 0.  0.
     999903    2    3    3    0    0 -0.10371831314E+00  0.30914904646E-01  0.80107834524E-01  0.14192112223E+00  0.44845512302E-01 0.  0.
         14    1    1    2    0    0  0.52720161662E-02 -0.62852480848E-02 -0.10670629679E-01  0.13459600131E-01  0.00000000000E+00 0.  1.
     999901    1    3    3    0    0  0.98446296975E-01 -0.24629656562E-01 -0.69437204845E-01  0.88854927764E+00  0.88000000000E+00 0. -1.
        -11    1    4    4    0    0 -0.53565525044E-01  0.30513859264E-01  0.64890711679E-01  0.89506573298E-01  0.51100000000E-03 0. -1.
         11    1    4    4    0    0 -0.50152788098E-01  0.40104538273E-03  0.15217122845E-01  0.52414548935E-01  0.51100000000E-03 0.  1.
</event>
<event>
 8    1  0.2846344E+004  0.1043930E+01  0.7957747E-01            NaN
         13   -1    0    0    0    0  0.00000000000E+00  0.00000000000E+00  0.74505805969E-08  0.10566000000E+00  0.10566000000E+00 0. -1.
     999900   -1    0    0    0    0 -0.00000000000E+00 -0.00000000000E+00 -0.74505805969E-08  0.93827000000E+00  0.93827000000E+00 0. -1.
     999902    2    1    2    0    0  0.28930167796E-02  0.52630251219E-02 -0.13293810552E-01  0.10293425267E+01  0.10292391572E+01 0.  0.
     999903    2    3    3    0    0 -0.80546136161E-01 -0.10243066576E+00 -0.17313874825E-01  0.13885042438E+00  0.44720786556E-01 0.  0.
         14    1    1    2    0    0 -0.28930167796E-02 -0.52630251219E-02  0.13293810552E-01  0.14587473343E-01  0.00000000000E+00 0. -1.
     999901    1    3    3    0    0  0.83439152941E-01  0.10769369088E+00  0.40200642729E-02  0.89049210228E+00  0.88000000000E+00 0.  1.
        -11    1    4    4    0    0 -0.52749054794E-01 -0.32396885694E-01 -0.13760651349E-01  0.63416382985E-01  0.51100000000E-03 0. -1.
         11    1    4    4    0    0 -0.27797081367E-01 -0.70033780069E-01 -0.35532234768E-02  0.75434041396E-01  0.51100000000E-03 0.  1.
</event>
<event>
 8    1  0.2846344E+004  0.1043930E+01  0.7957747E-01            NaN
         13   -1    0    0    0    0  0.00000000000E+00  0.00000000000E+00  0.74505805969E-08  0.10566000000E+00  0.10566000000E+00 0.  1.
     999900   -1    0    0    0    0 -0.00000000000E+00 -0.00000000000E+00 -0.74505805969E-08  0.93827000000E+00  0.93827000000E+00 0.  1.
     999902    2    1    2    0    0 -0.11044293732E-01 -0.60606095608E-02  0.66328110105E-02  0.10296926690E+01  0.10295942361E+01 0.  0.
     999903    2    3    3    0    0 -0.96178015414E-01  0.54748852458E-01  0.74393550966E-01  0.14090863498E+00  0.45532356542E-01 0.  0.
         14    1    1    2    0    0  0.11044293732E-01  0.60606095608E-02 -0.66328110105E-02  0.14237331006E-01  0.00000000000E+00 0.  1.
     999901    1    3    3    0    0  0.85133721682E-01 -0.60809462019E-01 -0.67760739955E-01  0.88878403401E+00  0.88000000000E+00 0. -1.
        -11    1    4    4    0    0 -0.31429673760E-01  0.34927557259E-01  0.11243811164E-01  0.48316074543E-01  0.51100000000E-03 0. -1.
         11    1    4    4    0    0 -0.64748341653E-01  0.19821295200E-01  0.63149739802E-01  0.92592560437E-01  0.51100000000E-03 0.  1.
</event>
<event>
 8    1  0.2846344E+004  0.1043930E+01  0.7957747E-01            NaN
         13   -1    0    0    0    0  0.00000000000E+00  0.00000000000E+00  0.74505805969E-08  0.10566000000E+00  0.10566000000E+00 0. -1.
     999900   -1    0    0    0    0 -0.00000000000E+00 -0.00000000000E+00 -0.74505805969E-08  0.93827000000E+00  0.93827000000E+00 0.  1.
     999902    2    1    2    0    0 -0.90356639377E-02 -0.77861154648E-02  0.65683309271E-02  0.10303134737E+01  0.10302234924E+01 0.  0.
     999903    2    3    3    0    0  0.84722627768E-01 -0.10213863881E+00 -0.55311700927E-02  0.14023515478E+00  0.45000884418E-01 0.  0.
         14    1    1    2    0    0  0.90356639377E-02  0.77861154648E-02 -0.65683309271E-02  0.13616526282E-01  0.00000000000E+00 0. -1.
     999901    1    3    3    0    0 -0.93758291706E-01  0.94352523346E-01  0.12099501020E-01  0.89007831894E+00  0.88000000000E+00 0.  1.
        -11    1    4    4    0    0  0.39425977364E-01 -0.30859920505E-01  0.16911372815E-01  0.52848822467E-01  0.51100000000E-03 0. -1.
         11    1    4    4    0    0  0.45296650404E-01 -0.71278718306E-01 -0.22442542908E-01  0.87386332309E-01  0.51100000000E-03 0.  1.
</event>
<event>
 8    1  0.2846344E+004  0.1043930E+01  0.7957747E-01            NaN
         13   -1    0    0    0    0  0.00000000000E+00  0.00000000000E+00  0.74505805969E-08  0.10566000000E+00  0.10566000000E+00 0. -1.
     999900   -1    0    0    0    0 -0.00000000000E+00 -0.00000000000E+00 -0.74505805969E-08  0.93827000000E+00  0.93827000000E+00 0. -1.
     999902    2    1    2    0    0 -0.22017989837E-02  0.80508379854E-02  0.12222652032E-01  0.10291294212E+01  0.10290229873E+01 0.  0.
     999903    2    3    3    0    0  0.83958539403E-01 -0.98758646553E-01  0.17196395837E-01  0.13847987841E+00  0.45592259053E-01 0.  0.
         14    1    1    2    0    0  0.22017989837E-02 -0.80508379854E-02 -0.12222652032E-01  0.14800578830E-01  0.00000000000E+00 0.  1.
     999901    1    3    3    0    0 -0.86160338387E-01  0.10680948454E+00 -0.49737438058E-02  0.89064954276E+00  0.88000000000E+00 0. -1.
        -11    1    4    4    0    0  0.14048030519E-02 -0.26323514989E-01 -0.38733572482E-02  0.26648919872E-01  0.51100000000E-03 0.  1.
         11    1    4    4    0    0  0.82553736351E-01 -0.72435131565E-01  0.21069753086E-01  0.11183095853E+00  0.51100000000E-03 0. -1.
</event>
<event>
 8    1  0.2846344E+004  0.1043930E+01  0.7957747E-01            NaN
         13   -1    0    0    0    0  0.00000000000E+00  0.00000000000E+00  0.74505805969E-08  0.10566000000E+00  0.10566000000E+00 0.  1.
     999900   -1    0    0    0    0 -0.00000000000E+00 -0.00000000000E+00 -0.74505805969E-08  0.93827000000E+00  0.93827000000E+00 0.  1.
     999902    2    1    2    0    0  0.12334489042E-01 -0.48336159737E-02  0.39608384732E-02  0.10301027911E+01  0.10300099847E+01 0.  0.
     999903    2    3    3    0    0  0.86662316529E-01 -0.90682622585E-01  0.48672973800E-01  0.14168067699E+00  0.44392124399E-01 0.  0.
         14    1    1    2    0    0 -0.12334489042E-01  0.48336159737E-02 -0.39608384732E-02  0.13827208855E-01  0.00000000000E+00 0. -1.
     999901    1    3    3    0    0 -0.74327827487E-01  0.85849006611E-01 -0.44712135327E-01  0.88842211416E+00  0.88000000000E+00 0.  1.
        -11    1    4    4    0    0  0.72869741278E-01 -0.47823072286E-01  0.39656015975E-01  0.95759626988E-01  0.51100000000E-03 0.  1.
         11    1    4    4    0    0  0.13792575251E-01 -0.42859550298E-01  0.90169578250E-02  0.45921050002E-01  0.51100000000E-03 0. -1.
</event>
<event>
 8    1  0.2846344E+004  0.1043930E+01  0.7957747E-01            NaN
         13   -1    0    0    0    0  0.00000000000E+00  0.00000000000E+00  0.74505805969E-08  0.10566000000E+00  0.10566000000E+00 0. -1.
     999900   -1    0    0    0    0 -0.00000000000E+00 -0.00000000000E+00 -0.74505805969E-08  0.93827000000E+00  0.93827000000E+00 0.  1.
     999902    2    1    2    0    0 -0.43969214839E-02 -0.65752293212E-02  0.10766479192E-01  0.10305702233E+01  0.10304836251E+01 0.  0.
     999903    2    3    3    0    0 -0.10221434227E+00 -0.37361002187E-01  0.79994230877E-01  0.14191478208E+00  0.43555850916E-01 0.  0.
         14    1    1    2    0    0  0.43969214839E-02  0.65752293212E-02 -0.10766479192E-01  0.13359776695E-01  0.00000000000E+00 0.  1.
     999901    1    3    3    0    0  0.97817420783E-01  0.30785772866E-01 -0.69227751686E-01  0.88865544123E+00  0.88000000000E+00 0. -1.
        -11    1    4    4    0    0 -0.75183134500E-01 -0.15234389053E-01  0.33376942758E-01  0.83659259810E-01  0.51100000000E-03 0.  1.
         11    1    4    4    0    0 -0.27031207767E-01 -0.22126613134E-01  0.46617288119E-01  0.58255522268E-01  0.51100000000E-03 0. -1.
</event>
<event>
 8    1  0.2846344E+004  0.1043930E+01  0.7957747E-01            NaN
         13   -1    0    0    0    0  0.00000000000E+00  0.00000000000E+00  0.74505805969E-08  0.10566000000E+00  0.10566000000E+00 0. -1.
     999900   -1    0    0    0    0 -0.00000000000E+00 -0.00000000000E+00 -0.74505805969E-08  0.93827000000E+00  0.93827000000E+00 0.  1.
     999902    2    1    2    0    0 -0.10791137965E-01  0.57432384133E-02  0.53930632504E-02  0.10305689156E+01  0.10304823003E+01 0.  0.
     999903    2    3    3    0    0 -0.76953619241E-01 -0.10789076474E+00  0.15277962480E-01  0.14074428575E+00  0.44869379339E-01 0.  0.
         14    1    1    2    0    0  0.10791137965E-01 -0.57432384133E-02 -0.53930632504E-02  0.13361084435E-01  0.00000000000E+00 0.  1.
     999901    1    3    3    0    0  0.66162481276E-01  0.11363400315E+00 -0.98848992301E-02  0.88982462982E+00  0.88000000000E+00 0.  1.
        -11    1    4    4    0    0 -0.54938008179E-01 -0.79217943231E-01 -0.95644390009E-02  0.96878309682E-01  0.51100000000E-03 0. -1.
         11    1    4    4    0    0 -0.22015611063E-01 -0.28672821507E-01  0.24842401481E-01  0.43865976064E-01  0.51100000000E-03 0.  1.
</event>
<event>
 8    1  0.2846344E+004  0.1043930E+01  0.7957747E-01            NaN
         13   -1    0    0    0    0  0.00000000000E+00  0.00000000000E+00  0.74505805969E-08  0.10566000000E+00  0.10566000000E+00 0.  1.
     999900   -1    0    0    0    0 -0.00000000000E+00 -0.00000000000E+00 -0.74505805969E-08  0.93827000000E+00  0.93827000000E+00 0.  1.
     999902    2    1    2    0    0  0.12476880496E-01  0.64350840119E-02 -0.30149060201E-02  0.10295712914E+01  0.10294711612E+01 0.  0.
     999903    2    3    3    0    0 -0.68769550568E-01 -0.85115579367E-01 -0.71970994723E-01  0.13842739246E+00  0.44815242553E-01 0.  0.
         14    1    1    2    0    0 -0.12476880496E-01 -0.64350840119E-02  0.30149060201E-02  0.14358708559E-01  0.00000000000E+00 0.  1.
     999901    1    3    3    0    0  0.81246431064E-01  0.91550663379E-01  0.68956088703E-01  0.89114389898E+00  0.88000000000E+00 0. -1.
        -11    1    4    4    0    0 -0.41307140983E-01 -0.22835108496E-01 -0.14604311326E-01  0.49409200626E-01  0.51100000000E-03 0. -1.
         11    1    4    4    0    0 -0.27462409585E-01 -0.62280470871E-01 -0.57366683397E-01  0.89018191832E-01  0.51100000000E-03 0.  1.
</event>
<event>
 8    1  0.2846344E+004  0.1043930E+01  0.7957747E-01            NaN
         13   -1    0    0    0    0  0.00000000000E+00  0.00000000000E+00  0.74505805969E-08  0.10566000000E+00  0.10566000000E+00 0.  1.
     999900   -1    0    0    0    0 -0.00000000000E+00 -0.00000000000E+00 -0.74505805969E-08  0.93827000000E+00  0.93827000000E+00 0.  1.
     999902    2    1    2    0    0  0.24030747265E-02 -0.22195197799E-02  0.14550343143E-01  0.10290164651E+01  0.10289083885E+01 0.  0.
     999903    2    3    3    0    0 -0.49361986215E-01 -0.12275690076E+00 -0.12656635493E-01  0.13887653152E+00  0.40257151132E-01 0.  0.
         14    1    1    2    0    0 -0.24030747265E-02  0.22195197799E-02 -0.14550343143E-01  0.14913534851E-01  0.00000000000E+00 0. -1.
     999901    1    3    3    0    0  0.51765060941E-01  0.12053738098E+00  0.27206978636E-01  0.89013993363E+00  0.88000000000E+00 0.  1.
        -11    1    4    4    0    0 -0.11145817779E-01 -0.80690649496E-01 -0.80004921639E-02  0.81850346156E-01  0.51100000000E-03 0. -1.
         11    1    4    4    0    0 -0.38216168436E-01 -0.42066251269E-01 -0.46561433295E-02  0.57026185366E-01  0.51100000000E-03 0.  1.
</event>
<event>
 8    1  0.2846344E+004  0.1043930E+01  0.7957747E-01            NaN
         13   -1    0    0    0    0  0.00000000000E+00  0.00000000000E+00  0.74505805969E-08  0.10566000000E+00  0.10566000000E+00 0. -1.
     999900   -1    0    0    0    0 -0.00000000000E+00 -0.00000000000E+00 -0.74505805969E-08  0.93827000000E+00  0.93827000000E+00 0. -1.
     999902    2    1    2    0    0  0.13601957198E-01 -0.33370105293E-02 -0.81416636905E-02  0.10277301368E+01  0.10276024516E+01 0.  0.
     999903    2    3    3    0    0 -0.10322939270E+00 -0.72367209164E-01  0.27401179185E-01  0.13661957898E+00  0.44952911591E-01 0.  0.
         14    1    1    2    0    0 -0.13601957198E-01  0.33370105293E-02  0.81416636905E-02  0.16199863165E-01  0.00000000000E+00 0. -1.
     999901    1    3    3    0    0  0.11683134990E+00  0.69030198635E-01 -0.35542842875E-01  0.89111055786E+00  0.88000000000E+00 0. -1.
        -11    1    4    4    0    0 -0.62686840463E-01 -0.16677209668E-01  0.15762097472E-01  0.66756828319E-01  0.51100000000E-03 0. -1.
         11    1    4    4    0    0 -0.40542552237E-01 -0.55689999496E-01  0.11639081713E-01  0.69862750660E-01  0.51100000000E-03 0.  1.
</event>
<event>
 8    1  0.2846344E+004  0.1043930E+01  0.7957747E-01            NaN
         13   -1    0    0    0    0  0.00000000000E+00  0.00000000000E+00  0.74505805969E-08  0.10566000000E+00  0.10566000000E+00 0.  1.
     999900   -1    0    0    0    0 -0.00000000000E+00 -0.00000000000E+00 -0.74505805969E-08  0.93827000000E+00  0.93827000000E+00 0. -1.
     999902    2    1    2    0    0  0.11692399169E-03 -0.85858001297E-02 -0.10121300641E-01  0.10306570816E+01  0.10305716130E+01 0.  0.
     999903    2    3    3    0    0 -0.57122894559E-01 -0.11890914403E+00  0.23268600507E-01  0.14129634351E+00  0.44953523794E-01 0.  0.
         14    1    1    2    0    0 -0.11692399169E-03  0.85858001297E-02  0.10121300641E-01  0.13272918358E-01  0.00000000000E+00 0.  1.
     999901    1    3    3    0    0  0.57239818551E-01  0.11032334390E+00 -0.33389901148E-01  0.88936073814E+00  0.88000000000E+00 0. -1.
        -11    1    4    4    0    0  0.45082264580E-02 -0.30827634911E-01  0.11226673507E-01  0.33120484583E-01  0.51100000000E-03 0. -1.
         11    1    4    4    0    0 -0.61631121017E-01 -0.88081509121E-01  0.12041927000E-01  0.10817585892E+00  0.51100000000E-03 0.  1.
</event>
<event>
 8    1  0.2846344E+004  0.1043930E+01  0.7957747E-01            NaN
         13   -1    0    0    0    0  0.00000000000E+00  0.00000000000E+00  0.74505805969E-08  0.10566000000E+00  0.10566000000E+00 0. -1.
     999900   -1    0    0    0    0 -0.00000000000E+00 -0.00000000000E+00 -0.74505805969E-08  0.93827000000E+00  0.93827000000E+00 0.  1.
     999902    2    1    2    0    0  0.84706144337E-02  0.10085962801E-01  0.40641991644E-02  0.10301461083E+01  0.10300538864E+01 0.  0.
     999903    2    3    3    0    0 -0.23964883593E-01 -0.71090152609E-01 -0.10942589781E+00  0.13856233473E+00  0.39967087086E-01 0.  0.
         14    1    1    2    0    0 -0.84706144337E-02 -0.10085962801E-01 -0.40641991644E-02  0.13783891663E-01  0.00000000000E+00 0.  1.
     999901    1    3    3    0    0  0.32435498027E-01  0.81176115411E-01  0.11349009698E+00  0.89158377361E+00  0.88000000000E+00 0. -1.
        -11    1    4    4    0    0 -0.15220383593E-01 -0.39455392053E-02 -0.32313135508E-01  0.35939215402E-01  0.51100000000E-03 0. -1.
         11    1    4    4    0    0 -0.87445000002E-02 -0.67144613404E-01 -0.77112762307E-01  0.10262311933E+00  0.51100000000E-03 0.  1.
</event>
<event>
 8    1  0.2846344E+004  0.1043930E+01  0.7957747E-01            NaN
         13   -1    0    0    0    0  0.00000000000E+00  0.00000000000E+00  0.74505805969E-08  0.10566000000E+00  0.10566000000E+00 0.  1.
     999900   -1    0    0    0    0 -0.00000000000E+00 -0.00000000000E+00 -0.74505805969E-08  0.93827000000E+00  0.93827000000E+00 0.  1.
     999902    2    1    2    0    0 -0.88652345473E-02 -0.44544742420E-02  0.10313567801E-01  0.10296190110E+01  0.10295195498E+01 0.  0.
     999903    2    3    3    0    0 -0.13297783816E+00 -0.11267990581E-01  0.25969071432E-02  0.14085025077E+00  0.44966389241E-01 0.  0.
         14    1    1    2    0    0  0.88652345473E-02  0.44544742420E-02 -0.10313567801E-01  0.14310988965E-01  0.00000000000E+00 0. -1.
     999901    1    3    3    0    0  0.12411260361E+00  0.68135163389E-02  0.77166606581E-02  0.88876876027E+00  0.88000000000E+00 0.  1.
        -11    1    4    4    0    0 -0.52036675616E-01 -0.13473843486E-01  0.21171730551E-01  0.57774244806E-01  0.51100000000E-03 0. -1.
         11    1    4    4    0    0 -0.80941162541E-01  0.22058529048E-02 -0.18574823407E-01  0.83076005960E-01  0.51100000000E-03 0.  1.
</event>
<event>
 8    1  0.2846344E+004  0.1043930E+01  0.7957747E-01            NaN
         13   -1    0    0    0    0  0.00000000000E+00  0.00000000000E+00  0.74505805969E-08  0.10566000000E+00  0.10566000000E+00 0. -1.
     999900   -1    0    0    0    0 -0.00000000000E+00 -0.00000000000E+00 -0.74505805969E-08  0.93827000000E+00  0.93827000000E+00 0.  1.
     999902    2    1    2    0    0 -0.53743812113E-02 -0.13149266412E-01 -0.82584697942E-02  0.10274986427E+01  0.10273672523E+01 0.  0.
     999903    2    3    3    0    0  0.10562568822E-01  0.10565396877E+00 -0.73705577868E-01  0.13696424186E+00  0.45303006104E-01 0.  0.
         14    1    1    2    0    0  0.53743812113E-02  0.13149266412E-01  0.82584697942E-02  0.16431357336E-01  0.00000000000E+00 0. -1.
     999901    1    3    3    0    0 -0.15936950034E-01 -0.11880323518E+00  0.65447108074E-01  0.89053440081E+00  0.88000000000E+00 0. -1.
        -11    1    4    4    0    0  0.24399890533E-01  0.30740563180E-01 -0.25850350186E-01  0.46998283037E-01  0.51100000000E-03 0.  1.
         11    1    4    4    0    0 -0.13837321711E-01  0.74913405588E-01 -0.47855227681E-01  0.89965958820E-01  0.51100000000E-03 0. -1.
</event>
<event>
 8    1  0.2846344E+004  0.1043930E+01  0.7957747E-01            NaN
         13   -1    0    0    0    0  0.00000000000E+00  0.00000000000E+00  0.74505805969E-08  0.10566000000E+00  0.10566000000E+00 0.  1.
     999900   -1    0    0    0    0 -0.00000000000E+00 -0.00000000000E+00 -0.74505805969E-08  0.93827000000E+00  0.93827000000E+00 0. -1.
     999902    2    1    2    0    0  0.32004075499E-02 -0.67245325610E-02 -0.98482951925E-02  0.10315829005E+01  0.10315090062E+01 0.  0.
     999903    2    3    3    0    0 -0.84692639414E-01 -0.82531914352E-01 -0.63104749759E-01  0.14236515624E+00  0.47971535436E-01 0.  0.
         14    1    1    2    0    0 -0.32004075499E-02  0.67245325610E-02  0.98482951925E-02  0.12347099451E-01  0.00000000000E+00 0.  1.
     999901    1    3    3    0    0  0.87893046963E-01  0.75807381791E-01  0.53256454567E-01  0.88921774431E+00  0.88000000000E+00 0.  1.
        -11    1    4    4    0    0 -0.12909418599E-01 -0.33757799032E-01 -0.37027424485E-01  0.51744887371E-01  0.51100000000E-03 0.  1.
         11    1    4    4    0    0 -0.71783220814E-01 -0.48774115321E-01 -0.26077325274E-01  0.90620268871E-01  0.51100000000E-03 0. -1.
</event>
<event>
 8    1  0.2846344E+004  0.1043930E+01  0.7957747E-01            NaN
         13   -1    0    0    0    0  0.00000000000E+00  0.00000000000E+00  0.74505805969E-08  0.10566000000E+00  0.10566000000E+00 0.  1.
     999900   -1    0    0    0    0 -0.00000000000E+00 -0.00000000000E+00 -0.74505805969E-08  0.93827000000E+00  0.93827000000E+00 0. -1.
     999902    2    1    2    0    0 -0.14256912021E-01 -0.41084339042E-02 -0.15024168095E-02  0.10290170517E+01  0.10289089837E+01 0.  0.
     999903    2    3    3    0    0  0.99735883348E-02 -0.11586358945E+00 -0.62996063440E-01  0.13949032335E+00  0.44330604270E-01 0.  0.
         14    1    1    2    0    0  0.14256912021E-01  0.41084339042E-02  0.15024168095E-02  0.14912948259E-01  0.00000000000E+00 0.  1.
     999901    1    3    3    0    0 -0.24230500356E-01  0.11175515555E+00  0.61493646630E-01  0.88952672839E+00  0.88000000000E+00 0.  1.
        -11    1    4    4    0    0  0.10071803735E-01 -0.69354634809E-01 -0.61037380887E-01  0.92937234662E-01  0.51100000000E-03 0. -1.
         11    1    4    4    0    0 -0.98215399914E-04 -0.46508954645E-01 -0.19586825524E-02  0.46553088692E-01  0.51100000000E-03 0.  1.
</event>
<event>
 8    1  0.2846344E+004  0.1043930E+01  0.7957747E-01            NaN
         13   -1    0    0    0    0  0.00000000000E+00  0.00000000000E+00  0.74505805969E-08  0.10566000000E+00  0.10566000000E+00 0.  1.
     999900   -1    0    0    0    0 -0.00000000000E+00 -0.00000000000E+00 -0.74505805969E-08  0.93827000000E+00  0.93827000000E+00 0. -1.
     999902    2    1    2    0    0 -0.12724396934E-01 -0.19022171523E-02  0.11064424400E-01  0.10269609047E+01  0.10268206998E+01 0.  0.
     999903    2    3    3    0    0 -0.62753124971E-01  0.99644409031E-01  0.58476358412E-01  0.13844389171E+00  0.43362007719E-01 0.  0.
         14    1    1    2    0    0  0.12724396934E-01  0.19022171523E-02 -0.11064424400E-01  0.16969095283E-01  0.00000000000E+00 0. -1.
     999901    1    3    3    0    0  0.50028728037E-01 -0.10154662618E+00 -0.47411934012E-01  0.88851701301E+00  0.88000000000E+00 0. -1.
        -11    1    4    4    0    0 -0.85221889347E-02  0.20970231930E-02  0.17437444430E-01  0.19528205236E-01  0.51100000000E-03 0. -1.
         11    1    4    4    0    0 -0.54230936037E-01  0.97547385838E-01  0.41038913982E-01  0.11891568647E+00  0.51100000000E-03 0.  1.
</event>
<event>
 8    1  0.2846344E+004  0.1043930E+01  0.7957747E-01            NaN
         13   -1    0    0    0    0  0.00000000000E+00  0.00000000000E+00  0.74505805969E-08  0.10566000000E+00  0.10566000000E+00 0.  1.
     999900   -1    0    0    0    0 -0.00000000000E+00 -0.00000000000E+00 -0.74505805969E-08  0.93827000000E+00  0.93827000000E+00 0.  1.
     999902    2    1    2    0    0 -0.38353942222E-02  0.35226250750E-02  0.12556302960E-01  0.10303366237E+01  0.10302469501E+01 0.  0.
     999903    2    3    3    0    0  0.72280341461E-01  0.39447877258E-01 -0.10247726012E+00  0.13886763957E+00  0.44744269979E-01 0.  0.
         14    1    1    2    0    0  0.38353942222E-02 -0.35226250750E-02 -0.12556302960E-01  0.13593376339E-01  0.00000000000E+00 0. -1.
     999901    1    3    3    0    0 -0.76115735683E-01 -0.35925252183E-01  0.11503356308E+00  0.89146898409E+00  0.88000000000E+00 0. -1.
        -11    1    4    4    0    0  0.28619256795E-02 -0.25063575519E-02 -0.29527432078E-01  0.29775876358E-01  0.51100000000E-03 0.  1.
         11    1    4    4    0    0  0.69418415782E-01  0.41954234810E-01 -0.72949828042E-01  0.10909176321E+00  0.51100000000E-03 0. -1.
</event>
<event>
 8    1  0.2846344E+004  0.1043930E+01  0.7957747E-01            NaN
         13   -1    0    0    0    0  0.00000000000E+00  0.00000000000E+00  0.74505805969E-08  0.10566000000E+00  0.10566000000E+00 0. -1.
     999900   -1    0    0    0    0 -0.00000000000E+00 -0.00000000000E+00 -0.74505805969E-08  0.93827000000E+00  0.93827000000E+00 0.  1.
     999902    2    1    2    0    0 -0.96227899517E-02 -0.40331215683E-02 -0.10552309914E-01  0.10290903437E+01  0.10289833429E+01 0.  0.
     999903    2    3    3    0    0 -0.97502562095E-01  0.35996228017E-01  0.80286013510E-01  0.13915955748E+00  0.46011524914E-01 0.  0.
         14    1    1    2    0    0  0.96227899517E-02  0.40331215683E-02  0.10552309914E-01  0.14839656349E-01  0.00000000000E+00 0. -1.
     999901    1    3    3    0    0  0.87879772143E-01 -0.40029349585E-01 -0.90838323425E-01  0.88993078618E+00  0.88000000000E+00 0.  1.
        -11    1    4    4    0    0 -0.85649165671E-01  0.12742807447E-01  0.68985990923E-01  0.11071353479E+00  0.51100000000E-03 0. -1.
         11    1    4    4    0    0 -0.11853396424E-01  0.23253420569E-01  0.11300022587E-01  0.28446022682E-01  0.51100000000E-03 0.  1.
</event>
<event>
 8    1  0.2846344E+004  0.1043930E+01  0.7957747E-01            NaN
         13   -1    0    0    0    0  0.00000000000E+00  0.00000000000E+00  0.74505805969E-08  0.10566000000E+00  0.10566000000E+00 0. -1.
     999900   -1    0    0    0    0 -0.00000000000E+00 -0.00000000000E+00 -0.74505805969E-08  0.93827000000E+00  0.93827000000E+00 0.  1.
     999902    2    1    2    0    0 -0.11449479239E-01  0.57714032858E-02  0.11075864036E-02  0.10310604072E+01  0.10309800856E+01 0.  0.
     999903    2    3    3    0    0  0.36492871803E-01 -0.10878837403E-01 -0.12721578992E+00  0.14030646339E+00  0.45298649720E-01 0.  0.
         14    1    1    2    0    0  0.11449479239E-01 -0.57714032858E-02 -0.11075864036E-02  0.12869592782E-01  0.00000000000E+00 0. -1.
     999901    1    3    3    0    0 -0.47942351043E-01  0.16650240689E-01  0.12832337633E+00  0.89075394383E+00  0.88000000000E+00 0. -1.
        -11    1    4    4    0    0  0.17386155477E-01  0.13356443403E-02 -0.11114896608E+00  0.11250962683E+00  0.51100000000E-03 0.  1.
         11    1    4    4    0    0  0.19106716327E-01 -0.12214481744E-01 -0.16066823844E-01  0.27796836555E-01  0.51100000000E-03 0. -1.
</event>
<event>
 8    1  0.2846344E+004  0.1043930E+01  0.7957747E-01            NaN
         13   -1    0    0    0    0  0.00000000000E+00  0.00000000000E+00  0.74505805969E-08  0.10566000000E+00  0.10566000000E+00 0.  1.
     999900   -1    0    0    0    0 -0.00000000000E+00 -0.00000000000E+00 -0.74505805969E-08  0.93827000000E+00  0.93827000000E+00 0. -1.
     999902    2    1    2    0    0  0.11687229429E-02  0.98866130409E-02  0.89127616072E-02  0.10305678014E+01  0.10304811716E+01 0.  0.
     999903    2    3    3    0    0  0.18068711481E-01 -0.10494456902E+00  0.79260003435E-01  0.14016309323E+00  0.44985593877E-01 0.  0.
         14    1    1    2    0    0 -0.11687229429E-02 -0.98866130409E-02 -0.89127616072E-02  0.13362198554E-01  0.00000000000E+00 0. -1.
     999901    1    3    3    0    0 -0.16899988538E-01  0.11483118206E+00 -0.70347241828E-01  0.89040470822E+00  0.88000000000E+00 0.  1.
        -11    1    4    4    0    0  0.28614406231E-01 -0.76292879466E-01  0.41017161586E-01  0.91225305517E-01  0.51100000000E-03 0.  1.
         11    1    4    4    0    0 -0.10545694750E-01 -0.28651689555E-01  0.38242841849E-01  0.48937787709E-01  0.51100000000E-03 0. -1.
</event>
<event>
 8    1  0.2846344E+004  0.1043930E+01  0.7957747E-01            NaN
         13   -1    0    0    0    0  0.00000000000E+00  0.00000000000E+00  0.74505805969E-08  0.10566000000E+00  0.10566000000E+00 0. -1.
     999900   -1    0    0    0    0 -0.00000000000E+00 -0.00000000000E+00 -0.74505805969E-08  0.93827000000E+00  0.93827000000E+00 0.  1.
     999902    2    1    2    0    0  0.40594646272E-02  0.75054135751E-02  0.12239164002E-01  0.10290099591E+01  0.10289017875E+01 0.  0.
     999903    2    3    3    0    0  0.10342621932E-01  0.34904777872E-01  0.12906013575E+00  0.14084480400E+00  0.43074665722E-01 0.  0.
         14    1    1    2    0    0 -0.40594646272E-02 -0.75054135751E-02 -0.12239164002E-01  0.14920040934E-01  0.00000000000E+00 0.  1.
     999901    1    3    3    0    0 -0.62831573047E-02 -0.27399364297E-01 -0.11682097175E+00  0.88816515506E+00  0.88000000000E+00 0.  1.
        -11    1    4    4    0    0  0.18480519505E-01  0.23054770971E-01  0.35523384830E-01  0.46208484681E-01  0.51100000000E-03 0. -1.
         11    1    4    4    0    0 -0.81378975727E-02  0.11850006901E-01  0.93536750923E-01  0.94636319322E-01  0.51100000000E-03 0.  1.
</event>
<event>
 8    1  0.2846344E+004  0.1043930E+01  0.7957747E-01            NaN
         13   -1    0    0    0    0  0.00000000000E+00  0.00000000000E+00  0.74505805969E-08  0.10566000000E+00  0.10566000000E+00 0. -1.
     999900   -1    0    0    0    0 -0.00000000000E+00 -0.00000000000E+00 -0.74505805969E-08  0.93827000000E+00  0.93827000000E+00 0. -1.
     999902    2    1    2    0    0 -0.29183106234E-02  0.13676374212E-01  0.29766123120E-02  0.10296324488E+01  0.10295331756E+01 0.  0.
     999903    2    3    3    0    0 -0.69033096030E-01 -0.10852642727E+00  0.27287523892E-01  0.13839975758E+00  0.43201043678E-01 0.  0.
         14    1    1    2    0    0  0.29183106234E-02 -0.13676374212E-01 -0.29766123120E-02  0.14297551166E-01  0.00000000000E+00 0.  1.
     999901    1    3    3    0    0  0.66114785407E-01  0.12220280148E+00 -0.24310911580E-01  0.89123269125E+00  0.88000000000E+00 0.  1.
        -11    1    4    4    0    0 -0.42183995771E-01 -0.35436187621E-01 -0.21925940348E-02  0.55138747555E-01  0.51100000000E-03 0. -1.
         11    1    4    4    0    0 -0.26849100259E-01 -0.73090239647E-01  0.29480117927E-01  0.83261010025E-01  0.51100000000E-03 0.  1.
</event>
<event>
 8    1  0.2846344E+004  0.1043930E+01  0.7957747E-01            NaN
         13   -1    0    0    0    0  0.00000000000E+00  0.00000000000E+00  0.74505805969E-08  0.10566000000E+00  0.10566000000E+00 0.  1.
     999900   -1    0    0    0    0 -0.00000000000E+00 -0.00000000000E+00 -0.74505805969E-08  0.93827000000E+00  0.93827000000E+00 0.  1.
     999902    2    1    2    0    0 -0.97180548886E-02 -0.69893961727E-02  0.10182196317E-01  0.10282147408E+01  0.10280946376E+01 0.  0.
     999903    2    3    3    0    0  0.11337570182E-01  0.11899067008E+00  0.51874708445E-01  0.13801668306E+00  0.45500542460E-01 0.  0.
         14    1    1    2    0    0  0.97180548886E-02  0.69893961727E-02 -0.10182196317E-01  0.15715259194E-01  0.00000000000E+00 0. -1.
     999901    1    3    3    0    0 -0.21055625070E-01 -0.12598006625E+00 -0.41692512128E-01  0.89019805774E+00  0.88000000000E+00 0.  1.
        -11    1    4    4    0    0 -0.28269293617E-02  0.64082095312E-01  0.48183676797E-02  0.64327165780E-01  0.51100000000E-03 0. -1.
         11    1    4    4    0    0  0.14164499543E-01  0.54908574768E-01  0.47056340766E-01  0.73689517284E-01  0.51100000000E-03 0.  1.
</event>
<event>
 8    1  0.2846344E+004  0.1043930E+01  0.7957747E-01            NaN
         13   -1    0    0    0    0  0.00000000000E+00  0.00000000000E+00  0.74505805969E-08  0.10566000000E+00  0.10566000000E+00 0. -1.
     999900   -1    0    0    0    0 -0.00000000000E+00 -0.00000000000E+00 -0.74505805969E-08  0.93827000000E+00  0.93827000000E+00 0.  1.
     999902    2    1    2    0    0  0.28537854640E-02  0.15747847916E-01  0.87655536582E-02  0.10256824320E+01  0.10255201011E+01 0.  0.
     999903    2    3    3    0    0  0.66087946852E-01 -0.40914189773E-01  0.10304751037E+00  0.13658275650E+00  0.44659515627E-01 0.  0.
         14    1    1    2    0    0 -0.28537854640E-02 -0.15747847916E-01 -0.87655536582E-02  0.18247567959E-01  0.00000000000E+00 0.  1.
     999901    1    3    3    0    0 -0.63234161388E-01  0.56662037689E-01 -0.94281956714E-01  0.88909967554E+00  0.88000000000E+00 0.  1.
        -11    1    4    4    0    0  0.60563266496E-01 -0.17603732000E-01  0.88069574409E-01  0.10832502798E+00  0.51100000000E-03 0.  1.
         11    1    4    4    0    0  0.55246803559E-02 -0.23310457773E-01  0.14977935964E-01  0.28257728524E-01  0.51100000000E-03 0. -1.
</event>
<event>
 8    1  0.2846344E+004  0.1043930E+01  0.7957747E-01            NaN
         13   -1    0    0    0    0  0.00000000000E+00  0.00000000000E+00  0.74505805969E-08  0.10566000000E+00  0.10566000000E+00 0.  1.
     999900   -1    0    0    0    0 -0.00000000000E+00 -0.00000000000E+00 -0.74505805969E-08  0.93827000000E+00  0.93827000000E+00 0.  1.
     999902    2    1    2    0    0 -0.46654796348E-02 -0.64307882105E-02  0.12281271026E-01  0.10293029239E+01  0.10291989884E+01 0.  0.
     999903    2    3    3    0    0 -0.10620174698E+00 -0.62206370899E-01  0.52845778266E-01  0.14078392666E+00  0.43347365357E-01 0.  0.
         14    1    1    2    0    0  0.46654796348E-02  0.64307882105E-02 -0.12281271026E-01  0.14627076101E-01  0.00000000000E+00 0.  1.
     999901    1    3    3    0    0  0.10153626734E+00  0.55775582688E-01 -0.40564507240E-01  0.88851899724E+00  0.88000000000E+00 0. -1.
        -11    1    4    4    0    0 -0.65225170406E-01 -0.26830035496E-01  0.89664698022E-02  0.71097344260E-01  0.51100000000E-03 0.  1.
         11    1    4    4    0    0 -0.40976576572E-01 -0.35376335403E-01  0.43879308464E-01  0.69686582398E-01  0.51100000000E-03 0. -1.
</event>
<event>
 8    1  0.2846344E+004  0.1043930E+01  0.7957747E-01            NaN
         13   -1    0    0    0    0  0.00000000000E+00  0.00000000000E+00  0.74505805969E-08  0.10566000000E+00  0.10566000000E+00 0. -1.
     999900   -1    0    0    0    0 -0.00000000000E+00 -0.00000000000E+00 -0.74505805969E-08  0.93827000000E+00  0.93827000000E+00 0.  1.
     999902    2    1    2    0    0 -0.13459686185E-01  0.27562546002E-02  0.75430079589E-03  0.10301703103E+01  0.10300784141E+01 0.  0.
     999903    2    3    3    0    0  0.10706992929E+00 -0.55027045583E-01 -0.52479176071E-01  0.13848645316E+00  0.43960076023E-01 0.  0.
         14    1    1    2    0    0  0.13459686185E-01 -0.27562546002E-02 -0.75430079589E-03  0.13759689724E-01  0.00000000000E+00 0.  1.
     999901    1    3    3    0    0 -0.12052961547E+00  0.57783300183E-01  0.53233476867E-01  0.89168385712E+00  0.88000000000E+00 0. -1.
        -11    1    4    4    0    0  0.91470330073E-01 -0.56193712910E-01 -0.30682221152E-01  0.11165220316E+00  0.51100000000E-03 0. -1.
         11    1    4    4    0    0  0.15599599215E-01  0.11666673268E-02 -0.21796954919E-01  0.26834250000E-01  0.51100000000E-03 0.  1.
</event>
<event>
 8    1  0.2846344E+004  0.1043930E+01  0.7957747E-01            NaN
         13   -1    0    0    0    0  0.00000000000E+00  0.00000000000E+00  0.74505805969E-08  0.10566000000E+00  0.10566000000E+00 0.  1.
     999900   -1    0    0    0    0 -0.00000000000E+00 -0.00000000000E+00 -0.74505805969E-08  0.93827000000E+00  0.93827000000E+00 0.  1.
     999902    2    1    2    0    0  0.13484417871E-01 -0.74841394334E-02 -0.21496932617E-03  0.10285063791E+01  0.10283907253E+01 0.  0.
     999903    2    3    3    0    0 -0.33344210810E-01 -0.10218367711E+00 -0.75610712764E-01  0.13898659801E+00  0.45243278857E-01 0.  0.
         14    1    1    2    0    0 -0.13484417871E-01  0.74841394334E-02  0.21496932617E-03  0.15423620852E-01  0.00000000000E+00 0. -1.
     999901    1    3    3    0    0  0.46828628681E-01  0.94699537672E-01  0.75395743437E-01  0.88951978113E+00  0.88000000000E+00 0. -1.
        -11    1    4    4    0    0 -0.30836379636E-01 -0.92312120418E-01 -0.45964688486E-01  0.10763560560E+00  0.51100000000E-03 0. -1.
         11    1    4    4    0    0 -0.25078311739E-02 -0.98715566869E-02 -0.29646024278E-01  0.31350992410E-01  0.51100000000E-03 0.  1.
</event>
<event>
 8    1  0.2846344E+004  0.1043930E+01  0.7957747E-01            NaN
         13   -1    0    0    0    0  0.00000000000E+00  0.00000000000E+00  0.74505805969E-08  0.10566000000E+00  0.10566000000E+00 0. -1.
     999900   -1    0    0    0    0 -0.00000000000E+00 -0.00000000000E+00 -0.74505805969E-08  0.93827000000E+00  0.93827000000E+00 0.  1.
     999902    2    1    2    0    0 -0.79464973321E-02 -0.95451329230E-02 -0.46013481073E-02  0.10306850467E+01  0.10305999402E+01 0.  0.
     999903    2    3    3    0    0 -0.77703226722E-01  0.73825575290E-01  0.78013651462E-01  0.14015603855E+00  0.45492618271E-01 0.  0.
         14    1    1    2    0    0  0.79464973321E-02  0.95451329230E-02  0.46013481073E-02  0.13244953257E-01  0.00000000000E+00 0. -1.
     999901    1    3    3    0    0  0.69756729390E-01 -0.83370708213E-01 -0.82614999570E-01  0.89052900820E+00  0.88000000000E+00 0. -1.
        -11    1    4    4    0    0 -0.48848549364E-01  0.59082061139E-01  0.75585140597E-01  0.10765800167E+00  0.51100000000E-03 0. -1.
         11    1    4    4    0    0 -0.28854677358E-01  0.14743514150E-01  0.24285108656E-02  0.32498036879E-01  0.51100000000E-03 0.  1.
</event>
<event>
 8    1  0.2846344E+004  0.1043930E+01  0.7957747E-01            NaN
         13   -1    0    0    0    0  0.00000000000E+00  0.00000000000E+00  0.74505805969E-08  0.10566000000E+00  0.10566000000E+00 0. -1.
     999900   -1    0    0    0    0 -0.00000000000E+00 -0.00000000000E+00 -0.74505805969E-08  0.93827000000E+00  0.93827000000E+00 0. -1.
     999902    2    1    2    0    0  0.12284790922E-01 -0.38044349558E-02 -0.88254831399E-02  0.10283325975E+01  0.10282143026E+01 0.  0.
     999903    2    3    3    0    0 -0.79359894355E-01  0.54287405391E-01 -0.88407334009E-01  0.13810415417E+00  0.44852931638E-01 0.  0.
         14    1    1    2    0    0 -0.12284790922E-01  0.38044349558E-02  0.88254831399E-02  0.15597402539E-01  0.00000000000E+00 0. -1.
     999901    1    3    3    0    0  0.91644685277E-01 -0.58091840347E-01  0.79581850869E-01  0.89022844329E+00  0.88000000000E+00 0.  1.
        -11    1    4    4    0    0 -0.46039813401E-01  0.55657193117E-01 -0.66635362417E-01  0.98274718057E-01  0.51100000000E-03 0. -1.
         11    1    4    4    0    0 -0.33320080954E-01 -0.13697877258E-02 -0.21771971592E-01  0.39829436114E-01  0.51100000000E-03 0.  1.
</event>
<event>
 8    1  0.2846344E+004  0.1043930E+01  0.7957747E-01            NaN
         13   -1    0    0    0    0  0.00000000000E+00  0.00000000000E+00  0.74505805969E-08  0.10566000000E+00  0.10566000000E+00 0. -1.
     999900   -1    0    0    0    0 -0.00000000000E+00 -0.00000000000E+00 -0.74505805969E-08  0.93827000000E+00  0.93827000000E+00 0.  1.
     999902    2    1    2    0    0  0.16375180518E-02  0.25744813079E-02 -0.13644112696E-01  0.10299488974E+01  0.10298539993E+01 0.  0.
     999903    2    3    3    0    0 -0.77834778610E-01  0.71115115824E-02  0.10545488904E+00  0.13836547290E+00  0.43765786997E-01 0.  0.
         14    1    1    2    0    0 -0.16375180518E-02 -0.25744813079E-02  0.13644112696E-01  0.13981102626E-01  0.00000000000E+00 0. -1.
     999901    1    3    3    0    0  0.79472296662E-01 -0.45370302745E-02 -0.11909900173E+00  0.89158342447E+00  0.88000000000E+00 0. -1.
        -11    1    4    4    0    0 -0.72862285366E-01 -0.43394430725E-02  0.71469966853E-01  0.10215654985E+00  0.51100000000E-03 0.  1.
         11    1    4    4    0    0 -0.49724932448E-02  0.11450954655E-01  0.33984922183E-01  0.36208923049E-01  0.51100000000E-03 0. -1.
</event>
<event>
 8    1  0.2846344E+004  0.1043930E+01  0.7957747E-01            NaN
         13   -1    0    0    0    0  0.00000000000E+00  0.00000000000E+00  0.74505805969E-08  0.10566000000E+00  0.10566000000E+00 0. -1.
     999900   -1    0    0    0    0 -0.00000000000E+00 -0.00000000000E+00 -0.74505805969E-08  0.93827000000E+00  0.93827000000E+00 0. -1.
     999902    2    1    2    0    0 -0.73737193352E-02 -0.78355527218E-02 -0.85592812879E-02  0.10301812212E+01  0.10300894716E+01 0.  0.
     999903    2    3    3    0    0  0.12077935868E+00  0.53605602080E-01 -0.11222117350E-01  0.13877485053E+00  0.40881648274E-01 0.  0.
         14    1    1    2    0    0  0.73737193352E-02  0.78355527218E-02  0.85592812879E-02  0.13748778835E-01  0.00000000000E+00 0. -1.
     999901    1    3    3    0    0 -0.12815307801E+00 -0.61441154801E-01  0.26628360617E-02  0.89140637063E+00  0.88000000000E+00 0.  1.
        -11    1    4    4    0    0  0.55190653943E-01  0.37361093395E-01 -0.22340684903E-01  0.70293861078E-01  0.51100000000E-03 0. -1.
         11    1    4    4    0    0  0.65588704735E-01  0.16244508684E-01  0.11118567554E-01  0.68480989455E-01  0.51100000000E-03 0.  1.
</event>
<event>
 8    1  0.2846344E+004  0.1043930E+01  0.7957747E-01            NaN
         13   -1    0    0    0    0  0.00000000000E+00  0.00000000000E+00  0.74505805969E-08  0.10566000000E+00  0.10566000000E+00 0. -1.
     999900   -1    0    0    0    0 -0.00000000000E+00 -0.00000000000E+00 -0.74505805969E-08  0.93827000000E+00  0.93827000000E+00 0. -1.
     999902    2    1    2    0    0 -0.25067665377E-02 -0.12808842251E-01  0.31901807868E-02  0.10304939451E+01  0.10304063486E+01 0.  0.
     999903    2    3    3    0    0  0.19796906697E-01  0.12966717390E+00 -0.20096346190E-03  0.13874938027E+00  0.45231146763E-01 0.  0.
         14    1    1    2    0    0  0.25067665377E-02  0.12808842251E-01 -0.31901807868E-02  0.13436054917E-01  0.00000000000E+00 0.  1.
     999901    1    3    3    0    0 -0.22303673235E-01 -0.14247601615E+00  0.33911442487E-02  0.89174456481E+00  0.88000000000E+00 0.  1.
        -11    1    4    4    0    0  0.51507993311E-02  0.99639285300E-01  0.16931190710E-01  0.10120002099E+00  0.51100000000E-03 0.  1.
         11    1    4    4    0    0  0.14646107366E-01  0.30027888596E-01 -0.17132154172E-01  0.37549359277E-01  0.51100000000E-03 0. -1.
</event>
<event>
 8    1  0.2846344E+004  0.1043930E+01  0.7957747E-01            NaN
         13   -1    0    0    0    0  0.00000000000E+00  0.00000000000E+00  0.74505805969E-08  0.10566000000E+00  0.10566000000E+00 0. -1.
     999900   -1    0    0    0    0 -0.00000000000E+00 -0.00000000000E+00 -0.74505805969E-08  0.93827000000E+00  0.93827000000E+00 0. -1.
     999902    2    1    2    0    0 -0.70117767789E-02 -0.53306441451E-02 -0.17186230100E-01  0.10246181569E+01  0.10244361474E+01 0.  0.
     999903    2    3    3    0    0  0.35524232577E-01 -0.24017005415E-01  0.12056699068E+00  0.13269078200E+00  0.35094967393E-01 0.  0.
         14    1    1    2    0    0  0.70117767789E-02  0.53306441451E-02  0.17186230100E-01  0.19311843145E-01  0.00000000000E+00 0.  1.
     999901    1    3    3    0    0 -0.42536009355E-01  0.18686361270E-01 -0.13775322078E+00  0.89192737486E+00  0.88000000000E+00 0. -1.
        -11    1    4    4    0    0  0.20419055940E-01  0.15386543746E-02  0.23447951598E-01  0.31134753217E-01  0.51100000000E-03 0.  1.
         11    1    4    4    0    0  0.15105176637E-01 -0.25555659789E-01  0.97119039080E-01  0.10155602878E+00  0.51100000000E-03 0. -1.
</event>
<event>
 8    1  0.2846344E+004  0.1043930E+01  0.7957747E-01            NaN
         13   -1    0    0    0    0  0.00000000000E+00  0.00000000000E+00  0.74505805969E-08  0.10566000000E+00  0.10566000000E+00 0. -1.
     999900   -1    0    0    0    0 -0.00000000000E+00 -0.00000000000E+00 -0.74505805969E-08  0.93827000000E+00  0.93827000000E+00 0. -1.
     999902    2    1    2    0    0 -0.19860354098E-02  0.14314611981E-01  0.74727934725E-04  0.10294780784E+01  0.10293766346E+01 0.  0.
     999903    2    3    3    0    0  0.27602856727E-01 -0.66810910682E-01 -0.10932719142E+00  0.13850914916E+00  0.44796586149E-01 0.  0.
         14    1    1    2    0    0  0.19860354098E-02 -0.14314611981E-01 -0.74727934725E-04  0.14451921571E-01  0.00000000000E+00 0.  1.
     999901    1    3    3    0    0 -0.29588892137E-01  0.81125522663E-01  0.10940191936E+00  0.89096892927E+00  0.88000000000E+00 0.  1.
        -11    1    4    4    0    0  0.26085424223E-01 -0.37720645105E-01 -0.32134998277E-01  0.56001925496E-01  0.51100000000E-03 0.  1.
         11    1    4    4    0    0  0.15174325041E-02 -0.29090265576E-01 -0.77192193147E-01  0.82507223663E-01  0.51100000000E-03 0. -1.
</event>
<event>
 8    1  0.2846344E+004  0.1043930E+01  0.7957747E-01            NaN
         13   -1    0    0    0    0  0.00000000000E+00  0.00000000000E+00  0.74505805969E-08  0.10566000000E+00  0.10566000000E+00 0. -1.
     999900   -1    0    0    0    0 -0.00000000000E+00 -0.00000000000E+00 -0.74505805969E-08  0.93827000000E+00  0.93827000000E+00 0. -1.
     999902    2    1    2    0    0  0.56026382183E-02  0.76318628820E-02 -0.11827618486E-01  0.10287798368E+01  0.10286682775E+01 0.  0.
     999903    2    3    3    0    0 -0.33618319028E-01 -0.32086311957E-01 -0.12395962612E+00  0.13991010279E+00  0.45267263735E-01 0.  0.
         14    1    1    2    0    0 -0.56026382183E-02 -0.76318628820E-02  0.11827618486E-01  0.15150163204E-01  0.00000000000E+00 0. -1.
     999901    1    3    3    0    0  0.39220957246E-01  0.39718174839E-01  0.11213200763E+00  0.88886973401E+00  0.88000000000E+00 0.  1.
        -11    1    4    4    0    0 -0.17175909193E-01 -0.31678342009E-01 -0.37930139175E-01  0.52320988025E-01  0.51100000000E-03 0. -1.
         11    1    4    4    0    0 -0.16442409835E-01 -0.40796994753E-03 -0.86029486941E-01  0.87589114763E-01  0.51100000000E-03 0.  1.
</event>
<event>
 8    1  0.2846344E+004  0.1043930E+01  0.7957747E-01            NaN
         13   -1    0    0    0    0  0.00000000000E+00  0.00000000000E+00  0.74505805969E-08  0.10566000000E+00  0.10566000000E+00 0. -1.
     999900   -1    0    0    0    0 -0.00000000000E+00 -0.00000000000E+00 -0.74505805969E-08  0.93827000000E+00  0.93827000000E+00 0. -1.
     999902    2    1    2    0    0 -0.12293890228E-01  0.59189589702E-02 -0.19755080284E-02  0.10301431786E+01  0.10300509172E+01 0.  0.
     999903    2    3    3    0    0  0.11784239338E+00  0.23312893864E-01  0.53065046425E-01  0.13870195008E+00  0.44631951606E-01 0.  0.
         14    1    1    2    0    0  0.12293890228E-01 -0.59189589702E-02  0.19755080284E-02  0.13786821395E-01  0.00000000000E+00 0. -1.
     999901    1    3    3    0    0 -0.13013628361E+00 -0.17393934894E-01 -0.55040554453E-01  0.89144122853E+00  0.88000000000E+00 0. -1.
        -11    1    4    4    0    0  0.96486625611E-01  0.16362614751E-02  0.31921283014E-01  0.10164435894E+00  0.51100000000E-03 0. -1.
         11    1    4    4    0    0  0.21355767774E-01  0.21676632389E-01  0.21143763411E-01  0.37057591141E-01  0.51100000000E-03 0.  1.
</event>
<event>
 8    1  0.2846344E+004  0.1043930E+01  0.7957747E-01            NaN
         13   -1    0    0    0    0  0.00000000000E+00  0.00000000000E+00  0.74505805969E-08  0.10566000000E+00  0.10566000000E+00 0.  1.
     999900   -1    0    0    0    0 -0.00000000000E+00 -0.00000000000E+00 -0.74505805969E-08  0.93827000000E+00  0.93827000000E+00 0. -1.
     999902    2    1    2    0    0  0.10340637001E-01  0.46844130241E-03 -0.10607661107E-01  0.10291087084E+01  0.10290019742E+01 0.  0.
     999903    2    3    3    0    0  0.94781944406E-01  0.29974695223E-01 -0.89693000518E-01  0.14104596042E+00  0.44351203709E-01 0.  0.
         14    1    1    2    0    0 -0.10340637001E-01 -0.46844130241E-03  0.10607661107E-01  0.14821291610E-01  0.00000000000E+00 0.  1.
     999901    1    3    3    0    0 -0.84441307405E-01 -0.29506253920E-01  0.79085339412E-01  0.88806274797E+00  0.88000000000E+00 0.  1.
        -11    1    4    4    0    0  0.40674300883E-01 -0.24895879035E-02 -0.15387245558E-01  0.43561740634E-01  0.51100000000E-03 0. -1.
         11    1    4    4    0    0  0.54107643524E-01  0.32464283126E-01 -0.74305754960E-01  0.97484219789E-01  0.51100000000E-03 0.  1.
</event>
<event>
 8    1  0.2846344E+004  0.1043930E+01  0.7957747E-01            NaN
         13   -1    0    0    0    0  0.00000000000E+00  0.00000000000E+00  0.74505805969E-08  0.10566000000E+00  0.10566000000E+00 0. -1.
     999900   -1    0    0    0    0 -0.00000000000E+00 -0.00000000000E+00 -0.74505805969E-08  0.93827000000E+00  0.93827000000E+00 0.  1.
     999902    2    1    2    0    0 -0.23245932015E-02 -0.14742235624E-01  0.39610613021E-03  0.10290003602E+01  0.10288920483E+01 0.  0.
     999903    2    3    3    0    0 -0.82167504172E-01  0.32129204378E-01  0.97319386804E-01  0.13885096562E+00  0.44997145351E-01 0.  0.
         14    1    1    2    0    0  0.23245932015E-02  0.14742235624E-01 -0.39610613021E-03  0.14929639808E-01  0.00000000000E+00 0. -1.
     999901    1    3    3    0    0  0.79842910971E-01 -0.46871440002E-01 -0.96923280674E-01  0.89014939457E+00  0.88000000000E+00 0.  1.
        -11    1    4    4    0    0 -0.26706163144E-01 -0.59647082799E-02  0.11222434332E-01  0.29580416631E-01  0.51100000000E-03 0.  1.
         11    1    4    4    0    0 -0.55461341028E-01  0.38093912658E-01  0.86096952472E-01  0.10927054899E+00  0.51100000000E-03 0. -1.
</event>
<event>
 8    1  0.2846344E+004  0.1043930E+01  0.7957747E-01            NaN
         13   -1    0    0    0    0  0.00000000000E+00  0.00000000000E+00  0.74505805969E-08  0.10566000000E+00  0.10566000000E+00 0. -1.
     999900   -1    0    0    0    0 -0.00000000000E+00 -0.00000000000E+00 -0.74505805969E-08  0.93827000000E+00  0.93827000000E+00 0.  1.
     999902    2    1    2    0    0  0.21613985598E-01  0.12992271845E-01  0.51956921000E-02  0.10181820153E+01  0.10178564032E+01 0.  0.
     999903    2    3    3    0    0  0.87994173411E-01  0.62929896559E-01 -0.60372848610E-01  0.13184160142E+00  0.45101891099E-01 0.  0.
         14    1    1    2    0    0 -0.21613985598E-01 -0.12992271845E-01 -0.51956921000E-02  0.25747984728E-01  0.00000000000E+00 0.  1.
     999901    1    3    3    0    0 -0.66380187812E-01 -0.49937624713E-01  0.65568540710E-01  0.88634041385E+00  0.88000000000E+00 0. -1.
        -11    1    4    4    0    0  0.23503447674E-01 -0.38359786079E-02 -0.17694430918E-01  0.29672896571E-01  0.51100000000E-03 0.  1.
         11    1    4    4    0    0  0.64490725737E-01  0.66765875167E-01 -0.42678417692E-01  0.10216870485E+00  0.51100000000E-03 0. -1.
</event>
<event>
 8    1  0.2846344E+004  0.1043930E+01  0.7957747E-01            NaN
         13   -1    0    0    0    0  0.00000000000E+00  0.00000000000E+00  0.74505805969E-08  0.10566000000E+00  0.10566000000E+00 0.  1.
     999900   -1    0    0    0    0 -0.00000000000E+00 -0.00000000000E+00 -0.74505805969E-08  0.93827000000E+00  0.93827000000E+00 0.  1.
     999902    2    1    2    0    0 -0.11986316789E-01  0.16454900783E-02  0.75964318086E-02  0.10296441607E+01  0.10295450512E+01 0.  0.
     999903    2    3    3    0    0 -0.11114116083E+00  0.41832445797E-01 -0.60617829306E-01  0.14054357028E+00  0.44448428147E-01 0.  0.
         14    1    1    2    0    0  0.11986316789E-01 -0.16454900783E-02 -0.75964318086E-02  0.14285839282E-01  0.00000000000E+00 0. -1.
     999901    1    3    3    0    0  0.99154844038E-01 -0.40186955719E-01  0.68214261115E-01  0.88910059044E+00  0.88000000000E+00 0. -1.
        -11    1    4    4    0    0 -0.54338075536E-01  0.13845450433E-01 -0.50658506244E-02  0.56304945735E-01  0.51100000000E-03 0. -1.
         11    1    4    4    0    0 -0.56803085290E-01  0.27986995364E-01 -0.55551978682E-01  0.84238624540E-01  0.51100000000E-03 0.  1.
</event>
<event>
 7    1  0.2846344E+004  0.1043930E+01  0.7957747E-01            NaN
         13   -1    0    0    0    0  0.00000000000E+00  0.00000000000E+00  0.74505805969E-08  0.10566000000E+00  0.10566000000E+00 0. -1.
     999900   -1    0    0    0    0 -0.00000000000E+00 -0.00000000000E+00 -0.74505805969E-08  0.93827000000E+00  0.93827000000E+00 0. -1.
     999903    2    1    2    0    0  0.75279469470E-01  0.48125863439E-01  0.75094102396E-01  0.12527772770E+00  0.45522385563E-01 0.  0.
         14    1    1    2    0    0  0.16173238933E-01 -0.91668934159E-02 -0.25647258819E-01  0.31676292040E-01  0.00000000000E+00 0. -1.
     999901    1    1    2    0    0 -0.91452708403E-01 -0.38958970024E-01 -0.49446843577E-01  0.88697598026E+00  0.88000000000E+00 0. -1.
        -11    1    3    3    0    0  0.65473031665E-01  0.23730566850E-01  0.36644501582E-01  0.78695224097E-01  0.51100000000E-03 0.  1.
         11    1    3    3    0    0  0.98064378045E-02  0.24395296589E-01  0.38449600814E-01  0.46582503602E-01  0.51100000000E-03 0. -1.
</event>
<event>
 8    1  0.2846344E+004  0.1043930E+01  0.7957747E-01            NaN
         13   -1    0    0    0    0  0.00000000000E+00  0.00000000000E+00  0.74505805969E-08  0.10566000000E+00  0.10566000000E+00 0.  1.
     999900   -1    0    0    0    0 -0.00000000000E+00 -0.00000000000E+00 -0.74505805969E-08  0.93827000000E+00  0.93827000000E+00 0. -1.
     999902    2    1    2    0    0 -0.19160659062E-02 -0.96692619450E-02 -0.51179817835E-02  0.10328232600E+01  0.10327635387E+01 0.  0.
     999903    2    3    3    0    0 -0.11831708722E+00  0.12720590158E-01 -0.64782476170E-01  0.14287362375E+00  0.45336040862E-01 0.  0.
         14    1    1    2    0    0  0.19160659062E-02  0.96692619450E-02  0.51179817835E-02  0.11106739965E-01  0.00000000000E+00 0. -1.
     999901    1    3    3    0    0  0.11640102132E+00 -0.22389852103E-01  0.59664494386E-01  0.88994963629E+00  0.88000000000E+00 0.  1.
        -11    1    4    4    0    0 -0.29973818618E-01 -0.23524918030E-02  0.34033939563E-02  0.30262323633E-01  0.51100000000E-03 0. -1.
         11    1    4    4    0    0 -0.88343268603E-01  0.15073081961E-01 -0.68185870126E-01  0.11261130011E+00  0.51100000000E-03 0.  1.
</event>
<event>
 8    1  0.2846344E+004  0.1043930E+01  0.7957747E-01            NaN
         13   -1    0    0    0    0  0.00000000000E+00  0.00000000000E+00  0.74505805969E-08  0.10566000000E+00  0.10566000000E+00 0. -1.
     999900   -1    0    0    0    0 -0.00000000000E+00 -0.00000000000E+00 -0.74505805969E-08  0.93827000000E+00  0.93827000000E+00 0.  1.
     999902    2    1    2    0    0 -0.99501405421E-02 -0.50062131339E-02  0.82410649766E-02  0.10300742207E+01  0.10299810278E+01 0.  0.
     999903    2    3    3    0    0 -0.10725287825E+00  0.78871942968E-01 -0.29031544164E-02  0.14067691838E+00  0.45360817660E-01 0.  0.
         14    1    1    2    0    0  0.99501405421E-02  0.50062131339E-02 -0.82410649766E-02  0.13855779253E-01  0.00000000000E+00 0.  1.
     999901    1    3    3    0    0  0.97302737705E-01 -0.83878156102E-01  0.11144219393E-01  0.88939730237E+00  0.88000000000E+00 0.  1.
        -11    1    4    4    0    0 -0.28367294698E-01  0.35290107113E-01 -0.19035214768E-01  0.49119197782E-01  0.51100000000E-03 0.  1.
         11    1    4    4    0    0 -0.78885583550E-01  0.43581835856E-01  0.16132060351E-01  0.91557720596E-01  0.51100000000E-03 0. -1.
</event>
<event>
 8    1  0.2846344E+004  0.1043930E+01  0.7957747E-01            NaN
         13   -1    0    0    0    0  0.00000000000E+00  0.00000000000E+00  0.74505805969E-08  0.10566000000E+00  0.10566000000E+00 0.  1.
     999900   -1    0    0    0    0 -0.00000000000E+00 -0.00000000000E+00 -0.74505805969E-08  0.93827000000E+00  0.93827000000E+00 0. -1.
     999902    2    1    2    0    0 -0.11815159537E-01  0.61434737902E-02 -0.66725533679E-02  0.10290349259E+01  0.10289271186E+01 0.  0.
     999903    2    3    3    0    0 -0.11737988665E+00 -0.22633925671E-01 -0.58663729931E-01  0.14073591496E+00  0.45550325667E-01 0.  0.
         14    1    1    2    0    0  0.11815159537E-01 -0.61434737902E-02  0.66725533679E-02  0.14895074137E-01  0.00000000000E+00 0. -1.
     999901    1    3    3    0    0  0.10556472712E+00  0.28777399461E-01  0.51991176563E-01  0.88829901090E+00  0.88000000000E+00 0.  1.
        -11    1    4    4    0    0 -0.70671480941E-01  0.92388280604E-02 -0.29906738126E-01  0.77294813983E-01  0.51100000000E-03 0.  1.
         11    1    4    4    0    0 -0.46708405711E-01 -0.31872753731E-01 -0.28756991805E-01  0.63441100977E-01  0.51100000000E-03 0. -1.
</event>
<event>
 8    1  0.2846344E+004  0.1043930E+01  0.7957747E-01            NaN
         13   -1    0    0    0    0  0.00000000000E+00  0.00000000000E+00  0.74505805969E-08  0.10566000000E+00  0.10566000000E+00 0. -1.
     999900   -1    0    0    0    0 -0.00000000000E+00 -0.00000000000E+00 -0.74505805969E-08  0.93827000000E+00  0.93827000000E+00 0. -1.
     999902    2    1    2    0    0 -0.58007183881E-02  0.68809764566E-02 -0.10872599546E-01  0.10298158372E+01  0.10297191117E+01 0.  0.
     999903    2    3    3    0    0 -0.11542108732E+00  0.38168988217E-01  0.52971318972E-01  0.14016893482E+00  0.45414431576E-01 0.  0.
         14    1    1    2    0    0  0.58007183881E-02 -0.68809764566E-02  0.10872599546E-01  0.14114162805E-01  0.00000000000E+00 0. -1.
     999901    1    3    3    0    0  0.10962036894E+00 -0.31288011761E-01 -0.63843918517E-01  0.88964690237E+00  0.88000000000E+00 0. -1.
        -11    1    4    4    0    0 -0.37747347815E-01  0.35314377442E-01  0.26246386907E-01  0.57975007269E-01  0.51100000000E-03 0. -1.
         11    1    4    4    0    0 -0.77673739509E-01  0.28546107755E-02  0.26724932065E-01  0.82193927555E-01  0.51100000000E-03 0.  1.
</event>
<event>
 8    1  0.2846344E+004  0.1043930E+01  0.7957747E-01            NaN
         13   -1    0    0    0    0  0.00000000000E+00  0.00000000000E+00  0.74505805969E-08  0.10566000000E+00  0.10566000000E+00 0. -1.
     999900   -1    0    0    0    0 -0.00000000000E+00 -0.00000000000E+00 -0.74505805969E-08  0.93827000000E+00  0.93827000000E+00 0.  1.
     999902    2    1    2    0    0  0.42028429526E-02 -0.36642728388E-02  0.12717279640E-01  0.10300440364E+01  0.10299504342E+01 0.  0.
     999903    2    3    3    0    0 -0.39560305715E-01  0.11835542287E+00  0.45951755585E-01  0.13992688133E+00  0.43530958707E-01 0.  0.
         14    1    1    2    0    0 -0.42028429526E-02  0.36642728388E-02 -0.12717279640E-01  0.13885963624E-01  0.00000000000E+00 0.  1.
     999901    1    3    3    0    0  0.43763148667E-01 -0.12201969571E+00 -0.33234475944E-01  0.89011715505E+00  0.88000000000E+00 0.  1.
        -11    1    4    4    0    0  0.66968107961E-02  0.39112082950E-02  0.70734320302E-02  0.10509014552E-01  0.51100000000E-03 0.  1.
         11    1    4    4    0    0 -0.46257116511E-01  0.11444421457E+00  0.38878323555E-01  0.12941786677E+00  0.51100000000E-03 0. -1.
</event>
<event>
 8    1  0.2846344E+004  0.1043930E+01  0.7957747E-01            NaN
         13   -1    0    0    0    0  0.00000000000E+00  0.00000000000E+00  0.74505805969E-08  0.10566000000E+00  0.10566000000E+00 0.  1.
     999900   -1    0    0    0    0 -0.00000000000E+00 -0.00000000000E+00 -0.74505805969E-08  0.93827000000E+00  0.93827000000E+00 0.  1.
     999902    2    1    2    0    0 -0.16022456117E-02 -0.13418589538E-01 -0.41591484444E-02  0.10297905427E+01  0.10296934678E+01 0.  0.
     999903    2    3    3    0    0  0.58833334356E-01 -0.29950766676E-01 -0.11358725360E+00  0.14080219499E+00  0.50643699292E-01 0.  0.
         14    1    1    2    0    0  0.16022456117E-02  0.13418589538E-01  0.41591484444E-02  0.14139457273E-01  0.00000000000E+00 0. -1.
     999901    1    3    3    0    0 -0.60435579968E-01  0.16532177138E-01  0.10942810516E+00  0.88898834773E+00  0.88000000000E+00 0. -1.
        -11    1    4    4    0    0  0.34251849201E-01 -0.41967564681E-02 -0.18265053701E-01  0.39047090112E-01  0.51100000000E-03 0.  1.
         11    1    4    4    0    0  0.24581485155E-01 -0.25754010208E-01 -0.95322199902E-01  0.10175510488E+00  0.51100000000E-03 0. -1.
</event>
<event>
 8    1  0.2846344E+004  0.1043930E+01  0.7957747E-01            NaN
         13   -1    0    0    0    0  0.00000000000E+00  0.00000000000E+00  0.74505805969E-08  0.10566000000E+00  0.10566000000E+00 0.  1.
     999900   -1    0    0    0    0 -0.00000000000E+00 -0.00000000000E+00 -0.74505805969E-08  0.93827000000E+00  0.93827000000E+00 0.  1.
     999902    2    1    2    0    0  0.67772699851E-02 -0.12315565045E-01  0.33082857045E-02  0.10294887644E+01  0.10293874716E+01 0.  0.
     999903    2    3    3    0    0  0.53576155503E-01  0.11778066172E+00 -0.21582302292E-01  0.13834640471E+00  0.43945912328E-01 0.  0.
         14    1    1    2    0    0 -0.67772699851E-02  0.12315565045E-01 -0.33082857045E-02  0.14441235582E-01  0.00000000000E+00 0.  1.
     999901    1    3    3    0    0 -0.46798885518E-01 -0.13009622676E+00  0.24890587997E-01  0.89114235971E+00  0.88000000000E+00 0. -1.
        -11    1    4    4    0    0  0.16813325069E-01  0.85524856676E-01 -0.19906204299E-01  0.89407533799E-01  0.51100000000E-03 0. -1.
         11    1    4    4    0    0  0.36762830434E-01  0.32255805039E-01 -0.16760979933E-02  0.48938870907E-01  0.51100000000E-03 0.  1.
</event>
<event>
 8    1  0.2846344E+004  0.1043930E+01  0.7957747E-01            NaN
         13   -1    0    0    0    0  0.00000000000E+00  0.00000000000E+00  0.74505805969E-08  0.10566000000E+00  0.10566000000E+00 0.  1.
     999900   -1    0    0    0    0 -0.00000000000E+00 -0.00000000000E+00 -0.74505805969E-08  0.93827000000E+00  0.93827000000E+00 0.  1.
     999902    2    1    2    0    0  0.12675346545E-01 -0.25877052842E-02  0.52993422325E-02  0.10299498835E+01  0.10298549990E+01 0.  0.
     999903    2    3    3    0    0 -0.10041870545E+00 -0.71992290742E-01  0.45816719847E-01  0.13908012931E+00  0.44466889024E-01 0.  0.
         14    1    1    2    0    0 -0.12675346545E-01  0.25877052842E-02 -0.52993422325E-02  0.13980116479E-01  0.00000000000E+00 0. -1.
     999901    1    3    3    0    0  0.11309405200E+00  0.69404585458E-01 -0.40517377615E-01  0.89086975421E+00  0.88000000000E+00 0.  1.
        -11    1    4    4    0    0 -0.29016045522E-01 -0.47282553038E-01  0.23894536884E-01  0.60405138303E-01  0.51100000000E-03 0.  1.
         11    1    4    4    0    0 -0.71402659933E-01 -0.24709737705E-01  0.21922182964E-01  0.78674991006E-01  0.51100000000E-03 0. -1.
</event>
<event>
 8    1  0.2846344E+004  0.1043930E+01  0.7957747E-01            NaN
         13   -1    0    0    0    0  0.00000000000E+00  0.00000000000E+00  0.74505805969E-08  0.10566000000E+00  0.10566000000E+00 0. -1.
     999900   -1    0    0    0    0 -0.00000000000E+00 -0.00000000000E+00 -0.74505805969E-08  0.93827000000E+00  0.93827000000E+00 0.  1.
     999902    2    1    2    0    0  0.13701204369E-01  0.31374053880E-04 -0.24217524189E-03  0.10302266196E+01  0.10301354790E+01 0.  0.
     999903    2    3    3    0    0 -0.70899423082E-01 -0.30021812508E-01 -0.10744244461E+00  0.13918657676E+00  0.43600307649E-01 0.  0.
         14    1    1    2    0    0 -0.13701204369E-01 -0.31374053880E-04  0.24217524189E-03  0.13703380398E-01  0.00000000000E+00 0.  1.
     999901    1    3    3    0    0  0.84600627450E-01  0.30053186562E-01  0.10720026937E+00  0.89104004284E+00  0.88000000000E+00 0. -1.
        -11    1    4    4    0    0 -0.10214954874E-01 -0.25588368696E-01 -0.30841028188E-01  0.41358675708E-01  0.51100000000E-03 0.  1.
         11    1    4    4    0    0 -0.60684468207E-01 -0.44334438124E-02 -0.76601416426E-01  0.97827901056E-01  0.51100000000E-03 0. -1.
</event>
<event>
 8    1  0.2846344E+004  0.1043930E+01  0.7957747E-01            NaN
         13   -1    0    0    0    0  0.00000000000E+00  0.00000000000E+00  0.74505805969E-08  0.10566000000E+00  0.10566000000E+00 0.  1.
     999900   -1    0    0    0    0 -0.00000000000E+00 -0.00000000000E+00 -0.74505805969E-08  0.93827000000E+00  0.93827000000E+00 0.  1.
     999902    2    1    2    0    0  0.24007537421E-02 -0.55639916232E-02 -0.11986715640E-01  0.10304985826E+01  0.10304110470E+01 0.  0.
     999903    2    3    3    0    0  0.84326225940E-01 -0.99788710251E-01  0.26280389893E-01  0.14086132397E+00  0.45635015309E-01 0.  0.
         14    1    1    2    0    0 -0.24007537421E-02  0.55639916232E-02  0.11986715640E-01  0.13431417391E-01  0.00000000000E+00 0.  1.
     999901    1    3    3    0    0 -0.81925472198E-01  0.94224718628E-01 -0.38267105532E-01  0.88963725864E+00  0.88000000000E+00 0.  1.
        -11    1    4    4    0    0  0.34112209311E-01 -0.35376283669E-01  0.32547921363E-01  0.58947031956E-01  0.51100000000E-03 0.  1.
         11    1    4    4    0    0  0.50214016629E-01 -0.64412426582E-01 -0.62675314703E-02  0.81914292013E-01  0.51100000000E-03 0. -1.
</event>
<event>
 8    1  0.2846344E+004  0.1043930E+01  0.7957747E-01            NaN
         13   -1    0    0    0    0  0.00000000000E+00  0.00000000000E+00  0.74505805969E-08  0.10566000000E+00  0.10566000000E+00 0. -1.
     999900   -1    0    0    0    0 -0.00000000000E+00 -0.00000000000E+00 -0.74505805969E-08  0.93827000000E+00  0.93827000000E+00 0. -1.
     999902    2    1    2    0    0 -0.49373943087E-02 -0.13071450845E-01  0.24652262564E-02  0.10297413415E+01  0.10296435851E+01 0.  0.
     999903    2    3    3    0    0  0.11759306620E+00  0.57027143683E-01 -0.19016587167E-02  0.13848010235E+00  0.45748203329E-01 0.  0.
         14    1    1    2    0    0  0.49373943087E-02  0.13071450845E-01 -0.24652262564E-02  0.14188658508E-01  0.00000000000E+00 0.  1.
     999901    1    3    3    0    0 -0.12253046050E+00 -0.70098594529E-01  0.43668849731E-02  0.89126123914E+00  0.88000000000E+00 0. -1.
        -11    1    4    4    0    0  0.10807436240E+00  0.50628880598E-01  0.12570964154E-01  0.12000683988E+00  0.51100000000E-03 0. -1.
         11    1    4    4    0    0  0.95187037999E-02  0.63982630850E-02 -0.14472622871E-01  0.18473262470E-01  0.51100000000E-03 0.  1.
</event>
<event>
 8    1  0.2846344E+004  0.1043930E+01  0.7957747E-01            NaN
         13   -1    0    0    0    0  0.00000000000E+00  0.00000000000E+00  0.74505805969E-08  0.10566000000E+00  0.10566000000E+00 0. -1.
     999900   -1    0    0    0    0 -0.00000000000E+00 -0.00000000000E+00 -0.74505805969E-08  0.93827000000E+00  0.93827000000E+00 0.  1.
     999902    2    1    2    0    0  0.38883132181E-02 -0.10597160020E-01 -0.77733664009E-02  0.10302243805E+01  0.10301332099E+01 0.  0.
     999903    2    3    3    0    0  0.62057473522E-01  0.85637344211E-01  0.78230568583E-01  0.13890995348E+00  0.44621391412E-01 0.  0.
         14    1    1    2    0    0 -0.38883132181E-02  0.10597160020E-01  0.77733664009E-02  0.13705619481E-01  0.00000000000E+00 0. -1.
     999901    1    3    3    0    0 -0.58169160303E-01 -0.96234504230E-01 -0.86003934984E-01  0.89131442704E+00  0.88000000000E+00 0.  1.
        -11    1    4    4    0    0  0.19043807652E-02  0.22743150496E-01  0.34864456070E-01  0.41673360539E-01  0.51100000000E-03 0. -1.
         11    1    4    4    0    0  0.60153092756E-01  0.62894193714E-01  0.43366112513E-01  0.97236592940E-01  0.51100000000E-03 0.  1.
</event>
<event>
 8    1  0.2846344E+004  0.1043930E+01  0.7957747E-01            NaN
         13   -1    0    0    0    0  0.00000000000E+00  0.00000000000E+00  0.74505805969E-08  0.10566000000E+00  0.10566000000E+00 0. -1.
     999900   -1    0    0    0    0 -0.00000000000E+00 -0.00000000000E+00 -0.74505805969E-08  0.93827000000E+00  0.93827000000E+00 0. -1.
     999902    2    1    2    0    0 -0.13212788757E-01 -0.38440630127E-02  0.12528118148E-02  0.10301124697E+01  0.10300197940E+01 0.  0.
     999903    2    3    3    0    0  0.12091072006E+00  0.18196204546E-01  0.47380140952E-01  0.13848327571E+00  0.44522306878E-01 0.  0.
         14    1    1    2    0    0  0.13212788757E-01  0.38440630127E-02 -0.12528118148E-02  0.13817530338E-01  0.00000000000E+00 0.  1.
     999901    1    3    3    0    0 -0.13412350882E+00 -0.22040267558E-01 -0.46127329138E-01  0.89162919395E+00  0.88000000000E+00 0.  1.
        -11    1    4    4    0    0  0.46673052928E-01 -0.10351201240E-01  0.31836041302E-01  0.57439671687E-01  0.51100000000E-03 0. -1.
         11    1    4    4    0    0  0.74237667132E-01  0.28547405785E-01  0.15544099650E-01  0.81043604024E-01  0.51100000000E-03 0.  1.
</event>
<event>
 7    1  0.2846344E+004  0.1043930E+01  0.7957747E-01            NaN
         13   -1    0    0    0    0  0.00000000000E+00  0.00000000000E+00  0.74505805969E-08  0.10566000000E+00  0.10566000000E+00 0. -1.
     999900   -1    0    0    0    0 -0.00000000000E+00 -0.00000000000E+00 -0.74505805969E-08  0.93827000000E+00  0.93827000000E+00 0.  1.
     999903    2    1    2    0    0 -0.38255525889E-01  0.46130574873E-01  0.28158222673E-01  0.80393301983E-01  0.45592568479E-01 0.  0.
         14    1    1    2    0    0 -0.61286809538E-01  0.28552837520E-01  0.27613209186E-01  0.73033053307E-01  0.00000000000E+00 0.  1.
     999901    1    1    2    0    0  0.99542335428E-01 -0.74683412393E-01 -0.55771431859E-01  0.89050364471E+00  0.88000000000E+00 0. -1.
        -11    1    3    3    0    0 -0.46627353983E-01  0.32652911394E-01  0.30111111725E-01  0.64399246364E-01  0.51100000000E-03 0.  1.
         11    1    3    3    0    0  0.83718280941E-02  0.13477663479E-01 -0.19528890524E-02  0.15994055619E-01  0.51100000000E-03 0. -1.
</event>
<event>
 8    1  0.2846344E+004  0.1043930E+01  0.7957747E-01            NaN
         13   -1    0    0    0    0  0.00000000000E+00  0.00000000000E+00  0.74505805969E-08  0.10566000000E+00  0.10566000000E+00 0. -1.
     999900   -1    0    0    0    0 -0.00000000000E+00 -0.00000000000E+00 -0.74505805969E-08  0.93827000000E+00  0.93827000000E+00 0. -1.
     999902    2    1    2    0    0 -0.13511960857E-02  0.49533915436E-03  0.13574495016E-01  0.10302794320E+01  0.10301889972E+01 0.  0.
     999903    2    3    3    0    0 -0.55487252319E-01 -0.10141148332E+00 -0.64058026031E-01  0.13935714506E+00  0.44202477975E-01 0.  0.
         14    1    1    2    0    0  0.13511960857E-02 -0.49533915436E-03 -0.13574495016E-01  0.13650567999E-01  0.00000000000E+00 0.  1.
     999901    1    3    3    0    0  0.54136056234E-01  0.10190682248E+00  0.77632521047E-01  0.89092228695E+00  0.88000000000E+00 0. -1.
        -11    1    4    4    0    0 -0.34577350200E-01 -0.59570510644E-01 -0.61774989038E-01  0.92523776819E-01  0.51100000000E-03 0. -1.
         11    1    4    4    0    0 -0.20909902120E-01 -0.41840972680E-01 -0.22830369932E-02  0.46833368237E-01  0.51100000000E-03 0.  1.
</event>
<event>
 8    1  0.2846344E+004  0.1043930E+01  0.7957747E-01            NaN
         13   -1    0    0    0    0  0.00000000000E+00  0.00000000000E+00  0.74505805969E-08  0.10566000000E+00  0.10566000000E+00 0. -1.
     999900   -1    0    0    0    0 -0.00000000000E+00 -0.00000000000E+00 -0.74505805969E-08  0.93827000000E+00  0.93827000000E+00 0. -1.
     999902    2    1    2    0    0  0.64633626521E-03 -0.60148552228E-02  0.12020284970E-01  0.10304732736E+01  0.10303854056E+01 0.  0.
     999903    2    3    3    0    0 -0.53148728137E-01  0.62534339650E-01 -0.10426260582E+00  0.13855701536E+00  0.39900182891E-01 0.  0.
         14    1    1    2    0    0 -0.64633626521E-03  0.60148552228E-02 -0.12020284970E-01  0.13456726373E-01  0.00000000000E+00 0.  1.
     999901    1    3    3    0    0  0.53795064402E-01 -0.68549194873E-01  0.11628289079E+00  0.89191625827E+00  0.88000000000E+00 0.  1.
        -11    1    4    4    0    0 -0.23149386849E-03  0.21020922392E-01 -0.41684360688E-01  0.46688112133E-01  0.51100000000E-03 0.  1.
         11    1    4    4    0    0 -0.52917234268E-01  0.41513417258E-01 -0.62578245133E-01  0.91868903226E-01  0.51100000000E-03 0. -1.
</event>
<event>
 8    1  0.2846344E+004  0.1043930E+01  0.7957747E-01            NaN
         13   -1    0    0    0    0  0.00000000000E+00  0.00000000000E+00  0.74505805969E-08  0.10566000000E+00  0.10566000000E+00 0. -1.
     999900   -1    0    0    0    0 -0.00000000000E+00 -0.00000000000E+00 -0.74505805969E-08  0.93827000000E+00  0.93827000000E+00 0.  1.
     999902    2    1    2    0    0 -0.94702309253E-02 -0.70535939651E-02 -0.61279301968E-02  0.10306262415E+01  0.10305403727E+01 0.  0.
     999903    2    3    3    0    0  0.59027820470E-01 -0.37661053153E-01  0.11212000423E+00  0.13955308312E+00  0.44738452639E-01 0.  0.
         14    1    1    2    0    0  0.94702309253E-02  0.70535939651E-02  0.61279301968E-02  0.13303758495E-01  0.00000000000E+00 0. -1.
     999901    1    3    3    0    0 -0.68498051395E-01  0.30607459188E-01 -0.11824793443E+00  0.89107315839E+00  0.88000000000E+00 0.  1.
        -11    1    4    4    0    0  0.27218567067E-03 -0.19505233726E-01  0.15058281506E-01  0.24648350668E-01  0.51100000000E-03 0. -1.
         11    1    4    4    0    0  0.58755634799E-01 -0.18155819427E-01  0.97061722725E-01  0.11490473245E+00  0.51100000000E-03 0.  1.
</event>
<event>
 8    1  0.2846344E+004  0.1043930E+01  0.7957747E-01            NaN
         13   -1    0    0    0    0  0.00000000000E+00  0.00000000000E+00  0.74505805969E-08  0.10566000000E+00  0.10566000000E+00 0.  1.
     999900   -1    0    0    0    0 -0.00000000000E+00 -0.00000000000E+00 -0.74505805969E-08  0.93827000000E+00  0.93827000000E+00 0.  1.
     999902    2    1    2    0    0 -0.11346954949E-01 -0.40575147298E-02 -0.45562312201E-02  0.10310468305E+01  0.10309663383E+01 0.  0.
     999903    2    3    3    0    0  0.42467398359E-01  0.10387119666E+00 -0.71158128910E-01  0.14032779283E+00  0.45118784453E-01 0.  0.
         14    1    1    2    0    0  0.11346954949E-01  0.40575147298E-02  0.45562312201E-02  0.12883169460E-01  0.00000000000E+00 0.  1.
     999901    1    3    3    0    0 -0.53814353308E-01 -0.10792871139E+00  0.66601897690E-01  0.89071903771E+00  0.88000000000E+00 0. -1.
        -11    1    4    4    0    0  0.12024755088E-01  0.46819453138E-01 -0.63196762788E-02  0.48753003562E-01  0.51100000000E-03 0. -1.
         11    1    4    4    0    0  0.30442643271E-01  0.57051743526E-01 -0.64838452631E-01  0.91574789267E-01  0.51100000000E-03 0.  1.
</event>
<event>
 8    1  0.2846344E+004  0.1043930E+01  0.7957747E-01            NaN
         13   -1    0    0    0    0  0.00000000000E+00  0.00000000000E+00  0.74505805969E-08  0.10566000000E+00  0.10566000000E+00 0.  1.
     999900   -1    0    0    0    0 -0.00000000000E+00 -0.00000000000E+00 -0.74505805969E-08  0.93827000000E+00  0.93827000000E+00 0.  1.
     999902    2    1    2    0    0  0.11383733894E-01  0.68300545560E-02 -0.48663136293E-02  0.10297906913E+01  0.10296936184E+01 0.  0.
     999903    2    3    3    0    0  0.10027962688E+00 -0.79643460825E-01  0.37521161885E-01  0.14008464616E+00  0.42623773647E-01 0.  0.
         14    1    1    2    0    0 -0.11383733894E-01 -0.68300545560E-02  0.48663136293E-02  0.14139308715E-01  0.00000000000E+00 0. -1.
     999901    1    3    3    0    0 -0.88895892990E-01  0.86473515381E-01 -0.42387475514E-01  0.88970604513E+00  0.88000000000E+00 0.  1.
        -11    1    4    4    0    0  0.57982690107E-01 -0.57501059407E-01  0.40233344321E-02  0.81760702822E-01  0.51100000000E-03 0. -1.
         11    1    4    4    0    0  0.42296936778E-01 -0.22142401418E-01  0.33497827453E-01  0.58323943337E-01  0.51100000000E-03 0.  1.
</event>
<event>
 8    1  0.2846344E+004  0.1043930E+01  0.7957747E-01            NaN
         13   -1    0    0    0    0  0.00000000000E+00  0.00000000000E+00  0.74505805969E-08  0.10566000000E+00  0.10566000000E+00 0. -1.
     999900   -1    0    0    0    0 -0.00000000000E+00 -0.00000000000E+00 -0.74505805969E-08  0.93827000000E+00  0.93827000000E+00 0. -1.
     999902    2    1    2    0    0 -0.35195473710E-02  0.11155282893E-01 -0.90907417402E-02  0.10291155093E+01  0.10290088738E+01 0.  0.
     999903    2    3    3    0    0 -0.12913982927E+00 -0.26615704302E-01 -0.11924095013E-01  0.13938794952E+00  0.43604187962E-01 0.  0.
         14    1    1    2    0    0  0.35195473710E-02 -0.11155282893E-01  0.90907417402E-02  0.14814490727E-01  0.00000000000E+00 0. -1.
     999901    1    3    3    0    0  0.12562028190E+00  0.37770987196E-01  0.28333532729E-02  0.88972755976E+00  0.88000000000E+00 0. -1.
        -11    1    4    4    0    0 -0.52318393995E-01 -0.16665966153E-01  0.15755038120E-01  0.57126623611E-01  0.51100000000E-03 0. -1.
         11    1    4    4    0    0 -0.76821435279E-01 -0.99497381497E-02 -0.27679133133E-01  0.82261325905E-01  0.51100000000E-03 0.  1.
</event>
<event>
 8    1  0.2846344E+004  0.1043930E+01  0.7957747E-01            NaN
         13   -1    0    0    0    0  0.00000000000E+00  0.00000000000E+00  0.74505805969E-08  0.10566000000E+00  0.10566000000E+00 0. -1.
     999900   -1    0    0    0    0 -0.00000000000E+00 -0.00000000000E+00 -0.74505805969E-08  0.93827000000E+00  0.93827000000E+00 0. -1.
     999902    2    1    2    0    0  0.17425940079E-01 -0.99832722351E-02 -0.32622829361E-02  0.10235837079E+01  0.10233814711E+01 0.  0.
     999903    2    3    3    0    0  0.12715428817E+00  0.50089531047E-02  0.18247808731E-01  0.13638149801E+00  0.45537104258E-01 0.  0.
         14    1    1    2    0    0 -0.17425940079E-01  0.99832722351E-02  0.32622829361E-02  0.20346292097E-01  0.00000000000E+00 0. -1.
     999901    1    3    3    0    0 -0.10972834809E+00 -0.14992225340E-01 -0.21510091667E-01  0.88720220989E+00  0.88000000000E+00 0. -1.
        -11    1    4    4    0    0  0.55447362353E-01 -0.16532291120E-01  0.20737669913E-01  0.61465752383E-01  0.51100000000E-03 0.  1.
         11    1    4    4    0    0  0.71706925819E-01  0.21541244224E-01 -0.24898611820E-02  0.74915745627E-01  0.51100000000E-03 0. -1.
</event>
<event>
 8    1  0.2846344E+004  0.1043930E+01  0.7957747E-01            NaN
         13   -1    0    0    0    0  0.00000000000E+00  0.00000000000E+00  0.74505805969E-08  0.10566000000E+00  0.10566000000E+00 0. -1.
     999900   -1    0    0    0    0 -0.00000000000E+00 -0.00000000000E+00 -0.74505805969E-08  0.93827000000E+00  0.93827000000E+00 0. -1.
     999902    2    1    2    0    0  0.43774581133E-02  0.61210389273E-02  0.11513156725E-01  0.10301756540E+01  0.10300838296E+01 0.  0.
     999903    2    3    3    0    0 -0.13111069791E+00 -0.13277370192E-01 -0.28973804806E-02  0.13947873453E+00  0.45602838811E-01 0.  0.
         14    1    1    2    0    0 -0.43774581133E-02 -0.61210389273E-02 -0.11513156725E-01  0.13754346035E-01  0.00000000000E+00 0.  1.
     999901    1    3    3    0    0  0.13548815603E+00  0.19398409119E-01  0.14410537206E-01  0.89069691943E+00  0.88000000000E+00 0.  1.
        -11    1    4    4    0    0 -0.37952628235E-01 -0.31434470209E-02 -0.21797791127E-01  0.43882662501E-01  0.51100000000E-03 0. -1.
         11    1    4    4    0    0 -0.93158069677E-01 -0.10133923171E-01  0.18900410646E-01  0.95596072034E-01  0.51100000000E-03 0.  1.
</event>
<event>
 8    1  0.2846344E+004  0.1043930E+01  0.7957747E-01            NaN
         13   -1    0    0    0    0  0.00000000000E+00  0.00000000000E+00  0.74505805969E-08  0.10566000000E+00  0.10566000000E+00 0.  1.
     999900   -1    0    0    0    0 -0.00000000000E+00 -0.00000000000E+00 -0.74505805969E-08  0.93827000000E+00  0.93827000000E+00 0. -1.
     999902    2    1    2    0    0 -0.13619201043E-01 -0.18459998999E-02  0.10088032252E-02  0.10301492875E+01  0.10300571084E+01 0.  0.
     999903    2    3    3    0    0  0.99856492307E-01  0.38995310807E-01 -0.75619212603E-01  0.13862441492E+00  0.44794081939E-01 0.  0.
         14    1    1    2    0    0  0.13619201043E-01  0.18459998999E-02 -0.10088032252E-02  0.13780712486E-01  0.00000000000E+00 0.  1.
     999901    1    3    3    0    0 -0.11347569335E+00 -0.40841310707E-01  0.76628015828E-01  0.89152487259E+00  0.88000000000E+00 0.  1.
        -11    1    4    4    0    0  0.74827619459E-01  0.31105112770E-01 -0.77732839319E-01  0.11229138927E+00  0.51100000000E-03 0. -1.
         11    1    4    4    0    0  0.25028872849E-01  0.78901980370E-02  0.21136267162E-02  0.26333025653E-01  0.51100000000E-03 0.  1.
</event>
<event>
 8    1  0.2846344E+004  0.1043930E+01  0.7957747E-01            NaN
         13   -1    0    0    0    0  0.00000000000E+00  0.00000000000E+00  0.74505805969E-08  0.10566000000E+00  0.10566000000E+00 0. -1.
     999900   -1    0    0    0    0 -0.00000000000E+00 -0.00000000000E+00 -0.74505805969E-08  0.93827000000E+00  0.93827000000E+00 0. -1.
     999902    2    1    2    0    0  0.59322656160E-03 -0.29671408064E-02  0.13023524133E-01  0.10305595840E+01  0.10304728469E+01 0.  0.
     999903    2    3    3    0    0  0.72892606034E-01  0.96635174254E-01 -0.52854186464E-01  0.13955582748E+00  0.45061902302E-01 0.  0.
         14    1    1    2    0    0 -0.59322656160E-03  0.29671408064E-02 -0.13023524133E-01  0.13370415968E-01  0.00000000000E+00 0.  1.
     999901    1    3    3    0    0 -0.72299379472E-01 -0.99602315061E-01  0.65877710597E-01  0.89100375655E+00  0.88000000000E+00 0.  1.
        -11    1    4    4    0    0  0.69518528647E-01  0.84910103296E-01 -0.30199069353E-01  0.11381913889E+00  0.51100000000E-03 0.  1.
         11    1    4    4    0    0  0.33740773866E-02  0.11725070958E-01 -0.22655117111E-01  0.25736688589E-01  0.51100000000E-03 0. -1.
</event>
<event>
 8    1  0.2846344E+004  0.1043930E+01  0.7957747E-01            NaN
         13   -1    0    0    0    0  0.00000000000E+00  0.00000000000E+00  0.74505805969E-08  0.10566000000E+00  0.10566000000E+00 0. -1.
     999900   -1    0    0    0    0 -0.00000000000E+00 -0.00000000000E+00 -0.74505805969E-08  0.93827000000E+00  0.93827000000E+00 0. -1.
     999902    2    1    2    0    0  0.48457744855E-02 -0.14782863121E-01 -0.76791335797E-02  0.10265811192E+01  0.10264345136E+01 0.  0.
     999903    2    3    3    0    0  0.15901673935E-01 -0.10601565328E+00 -0.76604653561E-01  0.13911484817E+00  0.44637272105E-01 0.  0.
         14    1    1    2    0    0 -0.48457744855E-02  0.14782863121E-01  0.76791335797E-02  0.17348880798E-01  0.00000000000E+00 0. -1.
     999901    1    3    3    0    0 -0.11055899450E-01  0.91232790155E-01  0.68925519981E-01  0.88746627103E+00  0.88000000000E+00 0. -1.
        -11    1    4    4    0    0 -0.72967400392E-02 -0.60588082242E-01 -0.59708517826E-01  0.85378723034E-01  0.51100000000E-03 0.  1.
         11    1    4    4    0    0  0.23198413974E-01 -0.45427571034E-01 -0.16896135735E-01  0.53736125137E-01  0.51100000000E-03 0. -1.
</event>
<event>
 8    1  0.2846344E+004  0.1043930E+01  0.7957747E-01            NaN
         13   -1    0    0    0    0  0.00000000000E+00  0.00000000000E+00  0.74505805969E-08  0.10566000000E+00  0.10566000000E+00 0.  1.
     999900   -1    0    0    0    0 -0.00000000000E+00 -0.00000000000E+00 -0.74505805969E-08  0.93827000000E+00  0.93827000000E+00 0. -1.
     999902    2    1    2    0    0  0.98480903860E-02  0.99865154968E-02  0.64781769315E-03  0.10298895212E+01  0.10297938099E+01 0.  0.
     999903    2    3    3    0    0  0.20844592300E-01 -0.32219691147E-01 -0.12665680544E+00  0.13965991378E+00  0.44613222542E-01 0.  0.
         14    1    1    2    0    0 -0.98480903860E-02 -0.99865154968E-02 -0.64781769315E-03  0.14040478759E-01  0.00000000000E+00 0.  1.
     999901    1    3    3    0    0 -0.10996501914E-01  0.42206206644E-01  0.12730462314E+00  0.89022960746E+00  0.88000000000E+00 0.  1.
        -11    1    4    4    0    0  0.10422461256E-01 -0.41215811521E-01 -0.11066905687E+00  0.11855493279E+00  0.51100000000E-03 0.  1.
         11    1    4    4    0    0  0.10422131044E-01  0.89961203738E-02 -0.15987748570E-01  0.21104980991E-01  0.51100000000E-03 0. -1.
</event>
<event>
 8    1  0.2846344E+004  0.1043930E+01  0.7957747E-01            NaN
         13   -1    0    0    0    0  0.00000000000E+00  0.00000000000E+00  0.74505805969E-08  0.10566000000E+00  0.10566000000E+00 0. -1.
     999900   -1    0    0    0    0 -0.00000000000E+00 -0.00000000000E+00 -0.74505805969E-08  0.93827000000E+00  0.93827000000E+00 0. -1.
     999902    2    1    2    0    0  0.84827343449E-02 -0.13656678849E-01  0.12251195155E-02  0.10278066450E+01  0.10276801725E+01 0.  0.
     999903    2    3    3    0    0  0.11411971411E+00  0.29675548052E-01  0.58067937921E-01  0.13861152613E+00  0.44015025425E-01 0.  0.
         14    1    1    2    0    0 -0.84827343449E-02  0.13656678849E-01 -0.12251195155E-02  0.16123355016E-01  0.00000000000E+00 0. -1.
     999901    1    3    3    0    0 -0.10563697976E+00 -0.43332226900E-01 -0.56842818406E-01  0.88919511885E+00  0.88000000000E+00 0.  1.
        -11    1    4    4    0    0  0.83802870280E-01  0.82106514548E-02  0.22453441899E-01  0.87147886025E-01  0.51100000000E-03 0.  1.
         11    1    4    4    0    0  0.30316843826E-01  0.21464896597E-01  0.35614496022E-01  0.51463640110E-01  0.51100000000E-03 0. -1.
</event>
<event>
 8    1  0.2846344E+004  0.1043930E+01  0.7957747E-01            NaN
         13   -1    0    0    0    0  0.00000000000E+00  0.00000000000E+00  0.74505805969E-08  0.10566000000E+00  0.10566000000E+00 0. -1.
     999900   -1    0    0    0    0 -0.00000000000E+00 -0.00000000000E+00 -0.74505805969E-08  0.93827000000E+00  0.93827000000E+00 0.  1.
     999902    2    1    2    0    0 -0.49790388142E-02 -0.15290625605E-02 -0.12806934058E-01  0.10301044288E+01  0.10300116445E+01 0.  0.
     999903    2    3    3    0    0 -0.53256980501E-02 -0.66891942373E-01 -0.11557724815E+00  0.14171590808E+00  0.47142372674E-01 0.  0.
         14    1    1    2    0    0  0.49790388142E-02  0.15290625605E-02  0.12806934058E-01  0.13825571229E-01  0.00000000000E+00 0. -1.
     999901    1    3    3    0    0  0.34665923596E-03  0.65362879812E-01  0.10277031409E+00  0.88838852069E+00  0.88000000000E+00 0. -1.
        -11    1    4    4    0    0  0.13582247299E-01 -0.59279203072E-01 -0.77402750179E-01  0.98437534583E-01  0.51100000000E-03 0. -1.
         11    1    4    4    0    0 -0.18907945349E-01 -0.76127393012E-02 -0.38174497967E-01  0.43278373502E-01  0.51100000000E-03 0.  1.
</event>
