<event>
 8    1  0.1183092E+005  0.1043930E+01  0.7957747E-01            NaN
         13   -1    0    0    0    0  0.00000000000E+00  0.00000000000E+00  0.74505805969E-08  0.10566000000E+00  0.10566000000E+00 0.  1.
     999900   -1    0    0    0    0 -0.00000000000E+00 -0.00000000000E+00 -0.74505805969E-08  0.93827000000E+00  0.93827000000E+00 0. -1.
     999902    2    1    2    0    0  0.87881698862E-02  0.21980014362E-01 -0.20031723051E-02  0.10201736185E+01  0.10198969783E+01 0.  0.
     999903    2    3    3    0    0 -0.16673231698E-01 -0.11287622101E+00  0.53722620907E-01  0.12779485857E+00  0.20648679287E-01 0.  0.
         14    1    1    2    0    0 -0.87881698862E-02 -0.21980014362E-01  0.20031723051E-02  0.23756381470E-01  0.00000000000E+00 0. -1.
     999901    1    3    3    0    0  0.25461401584E-01  0.13485623537E+00 -0.55725793212E-01  0.89237875995E+00  0.88000000000E+00 0.  1.
        -11    1    4    4    0    0 -0.20368028323E-01 -0.70694501101E-01  0.32557700715E-01  0.80453925078E-01  0.51100000000E-03 0.  1.
         11    1    4    4    0    0  0.36947966250E-02 -0.42181719910E-01  0.21164920192E-01  0.47340933497E-01  0.51100000000E-03 0. -1.
</event>
<event>
 8    1  0.1183092E+005  0.1043930E+01  0.7957747E-01            NaN
         13   -1    0    0    0    0  0.00000000000E+00  0.00000000000E+00  0.74505805969E-08  0.10566000000E+00  0.10566000000E+00 0.  1.
     999900   -1    0    0    0    0 -0.00000000000E+00 -0.00000000000E+00 -0.74505805969E-08  0.93827000000E+00  0.93827000000E+00 0.  1.
     999902    2    1    2    0    0 -0.20544220480E-01  0.24420106927E-02 -0.92104877886E-02  0.10212835544E+01  0.10210324368E+01 0.  0.
     999903    2    3    3    0    0 -0.81287154041E-03  0.13022449535E+00 -0.22395785138E-02  0.13180826917E+00  0.20231761200E-01 0.  0.
         14    1    1    2    0    0  0.20544220480E-01 -0.24420106927E-02  0.92104877886E-02  0.22646445563E-01  0.00000000000E+00 0.  1.
     999901    1    3    3    0    0 -0.19731348939E-01 -0.12778248466E+00 -0.69709092749E-02  0.88947528526E+00  0.88000000000E+00 0.  1.
        -11    1    4    4    0    0 -0.15272862692E-02  0.10915836338E+00 -0.93184753792E-02  0.10956722139E+00  0.51100000000E-03 0.  1.
         11    1    4    4    0    0  0.71441472881E-03  0.21066131968E-01  0.70788968654E-02  0.22241047780E-01  0.51100000000E-03 0. -1.
</event>
<event>
 8    1  0.1183092E+005  0.1043930E+01  0.7957747E-01            NaN
         13   -1    0    0    0    0  0.00000000000E+00  0.00000000000E+00  0.74505805969E-08  0.10566000000E+00  0.10566000000E+00 0. -1.
     999900   -1    0    0    0    0 -0.00000000000E+00 -0.00000000000E+00 -0.74505805969E-08  0.93827000000E+00  0.93827000000E+00 0.  1.
     999902    2    1    2    0    0 -0.20013672539E-01 -0.69703038745E-02  0.10701093217E-01  0.10201887780E+01  0.10199124949E+01 0.  0.
     999903    2    3    3    0    0 -0.13754742623E-01  0.12374463397E+00  0.32621531743E-01  0.13024154656E+00  0.19919054578E-01 0.  0.
         14    1    1    2    0    0  0.20013672539E-01  0.69703038745E-02 -0.10701093217E-01  0.23741221970E-01  0.00000000000E+00 0.  1.
     999901    1    3    3    0    0 -0.62589299158E-02 -0.13071493785E+00 -0.21920438526E-01  0.88994723147E+00  0.88000000000E+00 0.  1.
        -11    1    4    4    0    0 -0.15485868655E-01  0.59579636509E-01  0.11205897967E-01  0.62572985263E-01  0.51100000000E-03 0.  1.
         11    1    4    4    0    0  0.17311260318E-02  0.64164997462E-01  0.21415633776E-01  0.67668561295E-01  0.51100000000E-03 0. -1.
</event>
<event>
 8    1  0.1183092E+005  0.1043930E+01  0.7957747E-01            NaN
         13   -1    0    0    0    0  0.00000000000E+00  0.00000000000E+00  0.74505805969E-08  0.10566000000E+00  0.10566000000E+00 0. -1.
     999900   -1    0    0    0    0 -0.00000000000E+00 -0.00000000000E+00 -0.74505805969E-08  0.93827000000E+00  0.93827000000E+00 0. -1.
     999902    2    1    2    0    0  0.16814493974E-01 -0.71633495162E-02  0.15253095317E-01  0.10201245867E+01  0.10198467898E+01 0.  0.
     999903    2    3    3    0    0 -0.32481931078E-01  0.11833127941E+00 -0.32591733997E-01  0.12857079301E+00  0.20269685677E-01 0.  0.
         14    1    1    2    0    0 -0.16814493974E-01  0.71633495162E-02 -0.15253095317E-01  0.23805413264E-01  0.00000000000E+00 0.  1.
     999901    1    3    3    0    0  0.49296425052E-01 -0.12549462893E+00  0.47844829314E-01  0.89155379372E+00  0.88000000000E+00 0. -1.
        -11    1    4    4    0    0 -0.31902143644E-01  0.86931090499E-01 -0.20033898447E-01  0.94743756905E-01  0.51100000000E-03 0. -1.
         11    1    4    4    0    0 -0.57978743429E-03  0.31400188911E-01 -0.12557835550E-01  0.33827036107E-01  0.51100000000E-03 0.  1.
</event>
<event>
 8    1  0.1183092E+005  0.1043930E+01  0.7957747E-01            NaN
         13   -1    0    0    0    0  0.00000000000E+00  0.00000000000E+00  0.74505805969E-08  0.10566000000E+00  0.10566000000E+00 0.  1.
     999900   -1    0    0    0    0 -0.00000000000E+00 -0.00000000000E+00 -0.74505805969E-08  0.93827000000E+00  0.93827000000E+00 0. -1.
     999902    2    1    2    0    0 -0.37351036449E-02  0.21873009311E-01  0.22005612440E-01  0.10126789758E+01  0.10121966615E+01 0.  0.
     999903    2    3    3    0    0  0.40151171359E-01  0.17740970069E-01  0.11657222004E+00  0.12651537794E+00  0.22140455949E-01 0.  0.
         14    1    1    2    0    0  0.37351036449E-02 -0.21873009311E-01 -0.22005612440E-01  0.31251024213E-01  0.00000000000E+00 0. -1.
     999901    1    3    3    0    0 -0.43886275003E-01  0.41320392416E-02 -0.94566607597E-01  0.88616359785E+00  0.88000000000E+00 0. -1.
        -11    1    4    4    0    0  0.31531026356E-01  0.23014423072E-01  0.93322528851E-01  0.10115940295E+00  0.51100000000E-03 0. -1.
         11    1    4    4    0    0  0.86201450027E-02 -0.52734530031E-02  0.23249691186E-01  0.25355974990E-01  0.51100000000E-03 0.  1.
</event>
<event>
 8    1  0.1183092E+005  0.1043930E+01  0.7957747E-01            NaN
         13   -1    0    0    0    0  0.00000000000E+00  0.00000000000E+00  0.74505805969E-08  0.10566000000E+00  0.10566000000E+00 0. -1.
     999900   -1    0    0    0    0 -0.00000000000E+00 -0.00000000000E+00 -0.74505805969E-08  0.93827000000E+00  0.93827000000E+00 0. -1.
     999902    2    1    2    0    0  0.20253786712E-01  0.47496896645E-02  0.12305277120E-01  0.10197598682E+01  0.10194733903E+01 0.  0.
     999903    2    3    3    0    0  0.97484685619E-01 -0.28137802028E-01 -0.80292700614E-01  0.13092884691E+00  0.20011130618E-01 0.  0.
         14    1    1    2    0    0 -0.20253786712E-01 -0.47496896645E-02 -0.12305277120E-01  0.24170131838E-01  0.00000000000E+00 0. -1.
     999901    1    3    3    0    0 -0.77230898908E-01  0.32887491693E-01  0.92597977733E-01  0.88883102125E+00  0.88000000000E+00 0. -1.
        -11    1    4    4    0    0  0.89190260922E-01 -0.31302463063E-01 -0.73205584790E-01  0.11955779189E+00  0.51100000000E-03 0.  1.
         11    1    4    4    0    0  0.82944246974E-02  0.31646610346E-02 -0.70871158240E-02  0.11371055018E-01  0.51100000000E-03 0. -1.
</event>
<event>
 8    1  0.1183092E+005  0.1043930E+01  0.7957747E-01            NaN
         13   -1    0    0    0    0  0.00000000000E+00  0.00000000000E+00  0.74505805969E-08  0.10566000000E+00  0.10566000000E+00 0.  1.
     999900   -1    0    0    0    0 -0.00000000000E+00 -0.00000000000E+00 -0.74505805969E-08  0.93827000000E+00  0.93827000000E+00 0. -1.
     999902    2    1    2    0    0  0.13938397096E-01  0.65999621433E-02  0.19112168737E-01  0.10193716326E+01  0.10190757636E+01 0.  0.
     999903    2    3    3    0    0  0.95887201094E-01 -0.27040214145E-01 -0.80079543970E-01  0.12937934963E+00  0.20018846946E-01 0.  0.
         14    1    1    2    0    0 -0.13938397096E-01 -0.65999621433E-02 -0.19112168737E-01  0.24558367367E-01  0.00000000000E+00 0. -1.
     999901    1    3    3    0    0 -0.81948803998E-01  0.33640176289E-01  0.99191712708E-01  0.88999228300E+00  0.88000000000E+00 0.  1.
        -11    1    4    4    0    0  0.48105062223E-01 -0.32894486303E-02 -0.39741459895E-01  0.62486496456E-01  0.51100000000E-03 0.  1.
         11    1    4    4    0    0  0.47782138871E-01 -0.23750765515E-01 -0.40338084076E-01  0.66892853172E-01  0.51100000000E-03 0. -1.
</event>
<event>
 8    1  0.1183092E+005  0.1043930E+01  0.7957747E-01            NaN
         13   -1    0    0    0    0  0.00000000000E+00  0.00000000000E+00  0.74505805969E-08  0.10566000000E+00  0.10566000000E+00 0.  1.
     999900   -1    0    0    0    0 -0.00000000000E+00 -0.00000000000E+00 -0.74505805969E-08  0.93827000000E+00  0.93827000000E+00 0. -1.
     999902    2    1    2    0    0 -0.97344402581E-02 -0.10742282075E-01  0.11965527240E-01  0.10251329313E+01  0.10249605831E+01 0.  0.
     999903    2    3    3    0    0 -0.44199226055E-01 -0.12267581082E+00 -0.34111867513E-01  0.13617845400E+00  0.19442882603E-01 0.  0.
         14    1    1    2    0    0  0.97344402581E-02  0.10742282075E-01 -0.11965527240E-01  0.18797068747E-01  0.00000000000E+00 0. -1.
     999901    1    3    3    0    0  0.34464785796E-01  0.11193352875E+00  0.46077394753E-01  0.88895447725E+00  0.88000000000E+00 0.  1.
        -11    1    4    4    0    0 -0.23203340374E-01 -0.37452234473E-01 -0.11840710698E-01  0.45623770366E-01  0.51100000000E-03 0. -1.
         11    1    4    4    0    0 -0.20995885681E-01 -0.85223576351E-01 -0.22271156815E-01  0.90554683636E-01  0.51100000000E-03 0.  1.
</event>
<event>
 8    1  0.1183092E+005  0.1043930E+01  0.7957747E-01            NaN
         13   -1    0    0    0    0  0.00000000000E+00  0.00000000000E+00  0.74505805969E-08  0.10566000000E+00  0.10566000000E+00 0.  1.
     999900   -1    0    0    0    0 -0.00000000000E+00 -0.00000000000E+00 -0.74505805969E-08  0.93827000000E+00  0.93827000000E+00 0. -1.
     999902    2    1    2    0    0  0.16261733689E-01  0.66914179422E-02  0.12718101757E-01  0.10222281759E+01  0.10219977859E+01 0.  0.
     999903    2    3    3    0    0  0.26515149147E-01 -0.12504588116E+00 -0.15743917068E-01  0.13190804527E+00  0.28501507901E-01 0.  0.
         14    1    1    2    0    0 -0.16261733689E-01 -0.66914179422E-02 -0.12718101757E-01  0.21701824093E-01  0.00000000000E+00 0.  1.
     999901    1    3    3    0    0 -0.10253415458E-01  0.13173729910E+00  0.28462018826E-01  0.89032013064E+00  0.88000000000E+00 0. -1.
        -11    1    4    4    0    0  0.17000863121E-01 -0.43124731748E-01  0.56615764826E-02  0.46702102784E-01  0.51100000000E-03 0.  1.
         11    1    4    4    0    0  0.95142860268E-02 -0.81921149412E-01 -0.21405493551E-01  0.85205942485E-01  0.51100000000E-03 0. -1.
</event>
<event>
 8    1  0.1183092E+005  0.1043930E+01  0.7957747E-01            NaN
         13   -1    0    0    0    0  0.00000000000E+00  0.00000000000E+00  0.74505805969E-08  0.10566000000E+00  0.10566000000E+00 0.  1.
     999900   -1    0    0    0    0 -0.00000000000E+00 -0.00000000000E+00 -0.74505805969E-08  0.93827000000E+00  0.93827000000E+00 0. -1.
     999902    2    1    2    0    0 -0.14812003892E-01  0.14753072437E-01 -0.11583959964E-01  0.10200294407E+01  0.10197493923E+01 0.  0.
     999903    2    3    3    0    0  0.40798676648E-01  0.69219363769E-01 -0.10315711477E+00  0.13186010587E+00  0.17024830516E-01 0.  0.
         14    1    1    2    0    0  0.14812003892E-01 -0.14753072437E-01  0.11583959964E-01  0.23900559284E-01  0.00000000000E+00 0.  1.
     999901    1    3    3    0    0 -0.55610680541E-01 -0.54466291331E-01  0.91573154811E-01  0.88816933485E+00  0.88000000000E+00 0.  1.
        -11    1    4    4    0    0  0.21018158376E-02  0.15048508231E-01 -0.14683517515E-01  0.21136273026E-01  0.51100000000E-03 0.  1.
         11    1    4    4    0    0  0.38696860811E-01  0.54170855538E-01 -0.88473597260E-01  0.11072383284E+00  0.51100000000E-03 0. -1.
</event>
<event>
 8    1  0.1183092E+005  0.1043930E+01  0.7957747E-01            NaN
         13   -1    0    0    0    0  0.00000000000E+00  0.00000000000E+00  0.74505805969E-08  0.10566000000E+00  0.10566000000E+00 0.  1.
     999900   -1    0    0    0    0 -0.00000000000E+00 -0.00000000000E+00 -0.74505805969E-08  0.93827000000E+00  0.93827000000E+00 0.  1.
     999902    2    1    2    0    0  0.22588802302E-01 -0.18910272283E-02 -0.65468428502E-02  0.10203356972E+01  0.10200628627E+01 0.  0.
     999903    2    3    3    0    0  0.12942587879E+00  0.24351844186E-01 -0.33460844668E-02  0.13347996256E+00  0.21485662841E-01 0.  0.
         14    1    1    2    0    0 -0.22588802302E-01  0.18910272283E-02  0.65468428502E-02  0.23594302802E-01  0.00000000000E+00 0.  1.
     999901    1    3    3    0    0 -0.10683707649E+00 -0.26242871415E-01 -0.32007583833E-02  0.88685573464E+00  0.88000000000E+00 0.  1.
        -11    1    4    4    0    0  0.77485620529E-01  0.24940338910E-01  0.34562868328E-03  0.81402840700E-01  0.51100000000E-03 0. -1.
         11    1    4    4    0    0  0.51940258258E-01 -0.58849472376E-03 -0.36917131501E-02  0.52077121857E-01  0.51100000000E-03 0.  1.
</event>
<event>
 8    1  0.1183092E+005  0.1043930E+01  0.7957747E-01            NaN
         13   -1    0    0    0    0  0.00000000000E+00  0.00000000000E+00  0.74505805969E-08  0.10566000000E+00  0.10566000000E+00 0. -1.
     999900   -1    0    0    0    0 -0.00000000000E+00 -0.00000000000E+00 -0.74505805969E-08  0.93827000000E+00  0.93827000000E+00 0.  1.
     999902    2    1    2    0    0  0.22742242551E-01 -0.26852882338E-03  0.23504170236E-02  0.10210650451E+01  0.10208090027E+01 0.  0.
     999903    2    3    3    0    0  0.62840814150E-01  0.11167664553E+00  0.28006402930E-01  0.13269696419E+00  0.20086926607E-01 0.  0.
         14    1    1    2    0    0 -0.22742242551E-01  0.26852882338E-03 -0.23504170236E-02  0.22864954935E-01  0.00000000000E+00 0. -1.
     999901    1    3    3    0    0 -0.40098571599E-01 -0.11194517435E+00 -0.25655985907E-01  0.88836808088E+00  0.88000000000E+00 0. -1.
        -11    1    4    4    0    0  0.34869996683E-01  0.45213064080E-01  0.18150530647E-01  0.59915279486E-01  0.51100000000E-03 0. -1.
         11    1    4    4    0    0  0.27970817467E-01  0.66463581450E-01  0.98558722833E-02  0.72781684704E-01  0.51100000000E-03 0.  1.
</event>
<event>
 8    1  0.1183092E+005  0.1043930E+01  0.7957747E-01            NaN
         13   -1    0    0    0    0  0.00000000000E+00  0.00000000000E+00  0.74505805969E-08  0.10566000000E+00  0.10566000000E+00 0.  1.
     999900   -1    0    0    0    0 -0.00000000000E+00 -0.00000000000E+00 -0.74505805969E-08  0.93827000000E+00  0.93827000000E+00 0.  1.
     999902    2    1    2    0    0  0.18832683544E-01  0.14819707066E-01 -0.23350285434E-02  0.10198520839E+01  0.10195678138E+01 0.  0.
     999903    2    3    3    0    0  0.36703270330E-01  0.10279010705E+00  0.71557107807E-01  0.13220452038E+00  0.21087422134E-01 0.  0.
         14    1    1    2    0    0 -0.18832683544E-01 -0.14819707066E-01  0.23350285434E-02  0.24077916132E-01  0.00000000000E+00 0. -1.
     999901    1    3    3    0    0 -0.17870586786E-01 -0.87970399983E-01 -0.73892136350E-01  0.88764756348E+00  0.88000000000E+00 0.  1.
        -11    1    4    4    0    0  0.28643653930E-01  0.95275411524E-01  0.59780148768E-01  0.11606804151E+00  0.51100000000E-03 0.  1.
         11    1    4    4    0    0  0.80596164001E-02  0.75146955243E-02  0.11776959039E-01  0.16136478877E-01  0.51100000000E-03 0. -1.
</event>
<event>
 8    1  0.1183092E+005  0.1043930E+01  0.7957747E-01            NaN
         13   -1    0    0    0    0  0.00000000000E+00  0.00000000000E+00  0.74505805969E-08  0.10566000000E+00  0.10566000000E+00 0. -1.
     999900   -1    0    0    0    0 -0.00000000000E+00 -0.00000000000E+00 -0.74505805969E-08  0.93827000000E+00  0.93827000000E+00 0. -1.
     999902    2    1    2    0    0  0.21064032460E-01 -0.14429873053E-02  0.80862913445E-02  0.10213210685E+01  0.10210707915E+01 0.  0.
     999903    2    3    3    0    0 -0.42330836666E-01  0.10930092986E+00 -0.53013925193E-01  0.13002069204E+00  0.18876204410E-01 0.  0.
         14    1    1    2    0    0 -0.21064032460E-01  0.14429873053E-02 -0.80862913445E-02  0.22608931500E-01  0.00000000000E+00 0.  1.
     999901    1    3    3    0    0  0.63394869126E-01 -0.11074391716E+00  0.61100216538E-01  0.89130037646E+00  0.88000000000E+00 0.  1.
        -11    1    4    4    0    0 -0.23161710943E-01  0.50248316295E-01 -0.34601085904E-01  0.65259898951E-01  0.51100000000E-03 0. -1.
         11    1    4    4    0    0 -0.19169125723E-01  0.59052613563E-01 -0.18412839289E-01  0.64760793088E-01  0.51100000000E-03 0.  1.
</event>
<event>
 8    1  0.1183092E+005  0.1043930E+01  0.7957747E-01            NaN
         13   -1    0    0    0    0  0.00000000000E+00  0.00000000000E+00  0.74505805969E-08  0.10566000000E+00  0.10566000000E+00 0.  1.
     999900   -1    0    0    0    0 -0.00000000000E+00 -0.00000000000E+00 -0.74505805969E-08  0.93827000000E+00  0.93827000000E+00 0. -1.
     999902    2    1    2    0    0 -0.16895025521E-03  0.17965534805E-01  0.16318083657E-01  0.10196592596E+01  0.10193703630E+01 0.  0.
     999903    2    3    3    0    0 -0.22194037010E-01  0.14477877450E-03 -0.12447985388E+00  0.12801653799E+00  0.20010090930E-01 0.  0.
         14    1    1    2    0    0  0.16895025521E-03 -0.17965534805E-01 -0.16318083657E-01  0.24270740394E-01  0.00000000000E+00 0. -1.
     999901    1    3    3    0    0  0.22025086755E-01  0.17820756031E-01  0.14079793753E+00  0.89164272161E+00  0.88000000000E+00 0.  1.
        -11    1    4    4    0    0  0.12735743946E-02 -0.52442034499E-02 -0.31792438237E-01  0.32251262171E-01  0.51100000000E-03 0. -1.
         11    1    4    4    0    0 -0.23467611405E-01  0.53889822244E-02 -0.92687415639E-01  0.95765275823E-01  0.51100000000E-03 0.  1.
</event>
<event>
 8    1  0.1183092E+005  0.1043930E+01  0.7957747E-01            NaN
         13   -1    0    0    0    0  0.00000000000E+00  0.00000000000E+00  0.74505805969E-08  0.10566000000E+00  0.10566000000E+00 0.  1.
     999900   -1    0    0    0    0 -0.00000000000E+00 -0.00000000000E+00 -0.74505805969E-08  0.93827000000E+00  0.93827000000E+00 0.  1.
     999902    2    1    2    0    0 -0.11109767297E-01 -0.24614286638E-02 -0.20388229626E-01  0.10205812213E+01  0.10203141005E+01 0.  0.
     999903    2    3    3    0    0 -0.25380247787E-01  0.11965142763E+00 -0.44302536509E-01  0.13171278874E+00  0.20613657255E-01 0.  0.
         14    1    1    2    0    0  0.11109767297E-01  0.24614286638E-02  0.20388229626E-01  0.23348778720E-01  0.00000000000E+00 0.  1.
     999901    1    3    3    0    0  0.14270480490E-01 -0.12211285630E+00  0.23914306884E-01  0.88886843254E+00  0.88000000000E+00 0.  1.
        -11    1    4    4    0    0 -0.16378903263E-01  0.84822475078E-01 -0.40875593777E-01  0.95572988015E-01  0.51100000000E-03 0. -1.
         11    1    4    4    0    0 -0.90013445235E-02  0.34828952554E-01 -0.34269427321E-02  0.36139800728E-01  0.51100000000E-03 0.  1.
</event>
<event>
 8    1  0.1183092E+005  0.1043930E+01  0.7957747E-01            NaN
         13   -1    0    0    0    0  0.00000000000E+00  0.00000000000E+00  0.74505805969E-08  0.10566000000E+00  0.10566000000E+00 0. -1.
     999900   -1    0    0    0    0 -0.00000000000E+00 -0.00000000000E+00 -0.74505805969E-08  0.93827000000E+00  0.93827000000E+00 0. -1.
     999902    2    1    2    0    0  0.16634296500E-01 -0.17595602493E-01 -0.13320025417E-02  0.10196796541E+01  0.10193912486E+01 0.  0.
     999903    2    3    3    0    0 -0.11801281281E+00  0.44033406054E-01  0.41048251881E-03  0.12730584506E+00  0.18456566723E-01 0.  0.
         14    1    1    2    0    0 -0.16634296500E-01  0.17595602493E-01  0.13320025417E-02  0.24250345934E-01  0.00000000000E+00 0. -1.
     999901    1    3    3    0    0  0.13464710931E+00 -0.61629008547E-01 -0.17424850605E-02  0.89237380900E+00  0.88000000000E+00 0. -1.
        -11    1    4    4    0    0 -0.74816904183E-01  0.23075458896E-01 -0.74591721585E-02  0.78650787186E-01  0.51100000000E-03 0. -1.
         11    1    4    4    0    0 -0.43195908628E-01  0.20957947158E-01  0.78696546773E-02  0.48655057877E-01  0.51100000000E-03 0.  1.
</event>
<event>
 8    1  0.1183092E+005  0.1043930E+01  0.7957747E-01            NaN
         13   -1    0    0    0    0  0.00000000000E+00  0.00000000000E+00  0.74505805969E-08  0.10566000000E+00  0.10566000000E+00 0. -1.
     999900   -1    0    0    0    0 -0.00000000000E+00 -0.00000000000E+00 -0.74505805969E-08  0.93827000000E+00  0.93827000000E+00 0. -1.
     999902    2    1    2    0    0 -0.21392275625E-01 -0.88979216270E-02  0.46015456536E-02  0.10203084698E+01  0.10200349979E+01 0.  0.
     999903    2    3    3    0    0 -0.23045227477E-01  0.72143121820E-01 -0.10362492637E+00  0.12998080417E+00  0.20522464568E-01 0.  0.
         14    1    1    2    0    0  0.21392275625E-01  0.88979216270E-02 -0.46015456536E-02  0.23621530181E-01  0.00000000000E+00 0. -1.
     999901    1    3    3    0    0  0.16529518516E-02 -0.81041043446E-01  0.10822647202E+00  0.89032766565E+00  0.88000000000E+00 0.  1.
        -11    1    4    4    0    0 -0.20392883683E-01  0.32227982075E-01 -0.56428507218E-01  0.68109838359E-01  0.51100000000E-03 0.  1.
         11    1    4    4    0    0 -0.26523437938E-02  0.39915139744E-01 -0.47196419153E-01  0.61870965810E-01  0.51100000000E-03 0. -1.
</event>
<event>
 8    1  0.1183092E+005  0.1043930E+01  0.7957747E-01            NaN
         13   -1    0    0    0    0  0.00000000000E+00  0.00000000000E+00  0.74505805969E-08  0.10566000000E+00  0.10566000000E+00 0.  1.
     999900   -1    0    0    0    0 -0.00000000000E+00 -0.00000000000E+00 -0.74505805969E-08  0.93827000000E+00  0.93827000000E+00 0. -1.
     999902    2    1    2    0    0 -0.51862632996E-02 -0.20866173654E-01  0.97263851057E-02  0.10203313327E+01  0.10200583961E+01 0.  0.
     999903    2    3    3    0    0 -0.21400955974E-02  0.10658352485E+00 -0.68290057104E-01  0.12772880638E+00  0.16925965274E-01 0.  0.
         14    1    1    2    0    0  0.51862632996E-02  0.20866173654E-01 -0.97263851057E-02  0.23598667275E-01  0.00000000000E+00 0. -1.
     999901    1    3    3    0    0 -0.30461677022E-02 -0.12744969850E+00  0.78016442210E-01  0.89260252635E+00  0.88000000000E+00 0.  1.
        -11    1    4    4    0    0 -0.15385258009E-02  0.54684629339E-01 -0.25041820294E-01  0.60167513097E-01  0.51100000000E-03 0.  1.
         11    1    4    4    0    0 -0.60156979652E-03  0.51898895512E-01 -0.43248236810E-01  0.67561293280E-01  0.51100000000E-03 0. -1.
</event>
<event>
 8    1  0.1183092E+005  0.1043930E+01  0.7957747E-01            NaN
         13   -1    0    0    0    0  0.00000000000E+00  0.00000000000E+00  0.74505805969E-08  0.10566000000E+00  0.10566000000E+00 0. -1.
     999900   -1    0    0    0    0 -0.00000000000E+00 -0.00000000000E+00 -0.74505805969E-08  0.93827000000E+00  0.93827000000E+00 0.  1.
     999902    2    1    2    0    0 -0.34386518431E-01 -0.15873866980E-01  0.41331530427E-02  0.10058315058E+01  0.10051097069E+01 0.  0.
     999903    2    3    3    0    0  0.54267540749E-01 -0.68763178568E-01  0.74983579174E-01  0.11696897183E+00  0.19643383622E-01 0.  0.
         14    1    1    2    0    0  0.34386518431E-01  0.15873866980E-01 -0.41331530427E-02  0.38098494154E-01  0.00000000000E+00 0.  1.
     999901    1    3    3    0    0 -0.88654059180E-01  0.52889311588E-01 -0.70850426131E-01  0.88886253401E+00  0.88000000000E+00 0.  1.
        -11    1    4    4    0    0  0.47286973341E-01 -0.61443830951E-01  0.56654270624E-01  0.96027963170E-01  0.51100000000E-03 0.  1.
         11    1    4    4    0    0  0.69805674081E-02 -0.73193476175E-02  0.18329308550E-01  0.20941008663E-01  0.51100000000E-03 0. -1.
</event>
<event>
 8    1  0.1183092E+005  0.1043930E+01  0.7957747E-01            NaN
         13   -1    0    0    0    0  0.00000000000E+00  0.00000000000E+00  0.74505805969E-08  0.10566000000E+00  0.10566000000E+00 0.  1.
     999900   -1    0    0    0    0 -0.00000000000E+00 -0.00000000000E+00 -0.74505805969E-08  0.93827000000E+00  0.93827000000E+00 0.  1.
     999902    2    1    2    0    0  0.62132839631E-02  0.51303982124E-04  0.25960177043E-01  0.10172365865E+01  0.10168862939E+01 0.  0.
     999903    2    3    3    0    0 -0.11912105368E+00  0.33891962566E-01  0.23886980948E-01  0.12770964232E+00  0.20016851026E-01 0.  0.
         14    1    1    2    0    0 -0.62132839631E-02 -0.51303982124E-04 -0.25960177043E-01  0.26693413453E-01  0.00000000000E+00 0. -1.
     999901    1    3    3    0    0  0.12533433765E+00 -0.33840658584E-01  0.20731960952E-02  0.88952694423E+00  0.88000000000E+00 0. -1.
        -11    1    4    4    0    0 -0.10402350951E+00  0.23678196605E-01  0.24506503685E-01  0.10946404601E+00  0.51100000000E-03 0.  1.
         11    1    4    4    0    0 -0.15097544176E-01  0.10213765962E-01 -0.61952273767E-03  0.18245596309E-01  0.51100000000E-03 0. -1.
</event>
<event>
 8    1  0.1183092E+005  0.1043930E+01  0.7957747E-01            NaN
         13   -1    0    0    0    0  0.00000000000E+00  0.00000000000E+00  0.74505805969E-08  0.10566000000E+00  0.10566000000E+00 0. -1.
     999900   -1    0    0    0    0 -0.00000000000E+00 -0.00000000000E+00 -0.74505805969E-08  0.93827000000E+00  0.93827000000E+00 0.  1.
     999902    2    1    2    0    0  0.13958758317E-01  0.18625378058E-01  0.36664244608E-02  0.10203674384E+01  0.10200953460E+01 0.  0.
     999903    2    3    3    0    0 -0.72298952901E-01 -0.84807151511E-01  0.59766549993E-01  0.12835515988E+00  0.21991248983E-01 0.  0.
         14    1    1    2    0    0 -0.13958758317E-01 -0.18625378058E-01 -0.36664244608E-02  0.23562561615E-01  0.00000000000E+00 0. -1.
     999901    1    3    3    0    0  0.86257711218E-01  0.10343252957E+00 -0.56100125532E-01  0.89201227850E+00  0.88000000000E+00 0.  1.
        -11    1    4    4    0    0 -0.51199953125E-01 -0.61737553052E-01  0.31389480690E-01  0.86130838123E-01  0.51100000000E-03 0.  1.
         11    1    4    4    0    0 -0.21098999776E-01 -0.23069598460E-01  0.28377069303E-01  0.42224321757E-01  0.51100000000E-03 0. -1.
</event>
<event>
 8    1  0.1183092E+005  0.1043930E+01  0.7957747E-01            NaN
         13   -1    0    0    0    0  0.00000000000E+00  0.00000000000E+00  0.74505805969E-08  0.10566000000E+00  0.10566000000E+00 0.  1.
     999900   -1    0    0    0    0 -0.00000000000E+00 -0.00000000000E+00 -0.74505805969E-08  0.93827000000E+00  0.93827000000E+00 0.  1.
     999902    2    1    2    0    0 -0.21857776290E-01  0.37649705032E-02  0.80600544741E-02  0.10203312317E+01  0.10200582927E+01 0.  0.
     999903    2    3    3    0    0 -0.40700687664E-01  0.98833350172E-01  0.75383186351E-01  0.13245429416E+00  0.20903066165E-01 0.  0.
         14    1    1    2    0    0  0.21857776290E-01 -0.37649705032E-02 -0.80600544741E-02  0.23598768302E-01  0.00000000000E+00 0. -1.
     999901    1    3    3    0    0  0.18842911373E-01 -0.95068379669E-01 -0.67323131877E-01  0.88787693754E+00  0.88000000000E+00 0. -1.
        -11    1    4    4    0    0 -0.20594734227E-01  0.74644118979E-01  0.52527196078E-01  0.93569519743E-01  0.51100000000E-03 0.  1.
         11    1    4    4    0    0 -0.20105953437E-01  0.24189231193E-01  0.22855990272E-01  0.38884774419E-01  0.51100000000E-03 0. -1.
</event>
<event>
 8    1  0.1183092E+005  0.1043930E+01  0.7957747E-01            NaN
         13   -1    0    0    0    0  0.00000000000E+00  0.00000000000E+00  0.74505805969E-08  0.10566000000E+00  0.10566000000E+00 0.  1.
     999900   -1    0    0    0    0 -0.00000000000E+00 -0.00000000000E+00 -0.74505805969E-08  0.93827000000E+00  0.93827000000E+00 0.  1.
     999902    2    1    2    0    0  0.66592416013E-02  0.76795695923E-02 -0.26375652405E-01  0.10156634769E+01  0.10152700636E+01 0.  0.
     999903    2    3    3    0    0  0.74924992956E-01  0.24697937725E-01 -0.10099812224E+00  0.12970729816E+00  0.19990492806E-01 0.  0.
         14    1    1    2    0    0 -0.66592416013E-02 -0.76795695923E-02  0.26375652405E-01  0.28266523091E-01  0.00000000000E+00 0.  1.
     999901    1    3    3    0    0 -0.68265751355E-01 -0.17018368132E-01  0.74622469833E-01  0.88595617875E+00  0.88000000000E+00 0. -1.
        -11    1    4    4    0    0  0.28446005686E-01  0.19453023325E-02 -0.26024759038E-01  0.38607106142E-01  0.51100000000E-03 0. -1.
         11    1    4    4    0    0  0.46478987270E-01  0.22752635392E-01 -0.74973363201E-01  0.91100192017E-01  0.51100000000E-03 0.  1.
</event>
<event>
 8    1  0.1183092E+005  0.1043930E+01  0.7957747E-01            NaN
         13   -1    0    0    0    0  0.00000000000E+00  0.00000000000E+00  0.74505805969E-08  0.10566000000E+00  0.10566000000E+00 0. -1.
     999900   -1    0    0    0    0 -0.00000000000E+00 -0.00000000000E+00 -0.74505805969E-08  0.93827000000E+00  0.93827000000E+00 0.  1.
     999902    2    1    2    0    0  0.15410699201E-01 -0.20952236731E-01 -0.73025605168E-02  0.10169149438E+01  0.10165560435E+01 0.  0.
     999903    2    3    3    0    0  0.40728286066E-01  0.62762456256E-01 -0.10117367976E+00  0.12761133021E+00  0.21227786540E-01 0.  0.
         14    1    1    2    0    0 -0.15410699201E-01  0.20952236731E-01  0.73025605168E-02  0.27015056246E-01  0.00000000000E+00 0.  1.
     999901    1    3    3    0    0 -0.25317586864E-01 -0.83714692987E-01  0.93871119244E-01  0.88930361354E+00  0.88000000000E+00 0. -1.
        -11    1    4    4    0    0  0.28456528467E-01  0.56326965231E-01 -0.75236433343E-01  0.98200219183E-01  0.51100000000E-03 0.  1.
         11    1    4    4    0    0  0.12271757599E-01  0.64354910257E-02 -0.25937246418E-01  0.29411111031E-01  0.51100000000E-03 0. -1.
</event>
<event>
 8    1  0.1183092E+005  0.1043930E+01  0.7957747E-01            NaN
         13   -1    0    0    0    0  0.00000000000E+00  0.00000000000E+00  0.74505805969E-08  0.10566000000E+00  0.10566000000E+00 0. -1.
     999900   -1    0    0    0    0 -0.00000000000E+00 -0.00000000000E+00 -0.74505805969E-08  0.93827000000E+00  0.93827000000E+00 0. -1.
     999902    2    1    2    0    0 -0.38903920091E-02 -0.99912884637E-02  0.20809697274E-01  0.10205205042E+01  0.10202519762E+01 0.  0.
     999903    2    3    3    0    0 -0.35029852355E-01 -0.12072293834E+00 -0.32459728737E-01  0.13143738317E+00  0.20519096117E-01 0.  0.
         14    1    1    2    0    0  0.38903920091E-02  0.99912884637E-02 -0.20809697274E-01  0.23409495847E-01  0.00000000000E+00 0.  1.
     999901    1    3    3    0    0  0.31139460346E-01  0.11073164988E+00  0.53269426012E-01  0.88908312099E+00  0.88000000000E+00 0.  1.
        -11    1    4    4    0    0 -0.16029912842E-01 -0.49493109950E-01 -0.32131784785E-02  0.52125921336E-01  0.51100000000E-03 0. -1.
         11    1    4    4    0    0 -0.18999939513E-01 -0.71229828395E-01 -0.29246550259E-01  0.79311461830E-01  0.51100000000E-03 0.  1.
</event>
<event>
 8    1  0.1183092E+005  0.1043930E+01  0.7957747E-01            NaN
         13   -1    0    0    0    0  0.00000000000E+00  0.00000000000E+00  0.74505805969E-08  0.10566000000E+00  0.10566000000E+00 0.  1.
     999900   -1    0    0    0    0 -0.00000000000E+00 -0.00000000000E+00 -0.74505805969E-08  0.93827000000E+00  0.93827000000E+00 0.  1.
     999902    2    1    2    0    0  0.29850768362E-01 -0.20708212011E-01  0.44160448367E-02  0.10073321877E+01  0.10066671428E+01 0.  0.
     999903    2    3    3    0    0 -0.10920885685E+00 -0.21389985512E-01  0.26230529580E-01  0.11614538573E+00  0.20435362727E-01 0.  0.
         14    1    1    2    0    0 -0.29850768362E-01  0.20708212011E-01 -0.44160448367E-02  0.36597812346E-01  0.00000000000E+00 0. -1.
     999901    1    3    3    0    0  0.13905962521E+00  0.68177350144E-03 -0.21814484743E-01  0.89118680192E+00  0.88000000000E+00 0.  1.
        -11    1    4    4    0    0 -0.45545801653E-01 -0.15414172159E-01  0.19342260050E-01  0.51830501603E-01  0.51100000000E-03 0. -1.
         11    1    4    4    0    0 -0.63663055197E-01 -0.59758133534E-02  0.68882695296E-02  0.64314884127E-01  0.51100000000E-03 0.  1.
</event>
<event>
 8    1  0.1183092E+005  0.1043930E+01  0.7957747E-01            NaN
         13   -1    0    0    0    0  0.00000000000E+00  0.00000000000E+00  0.74505805969E-08  0.10566000000E+00  0.10566000000E+00 0. -1.
     999900   -1    0    0    0    0 -0.00000000000E+00 -0.00000000000E+00 -0.74505805969E-08  0.93827000000E+00  0.93827000000E+00 0.  1.
     999902    2    1    2    0    0 -0.19791594144E-01 -0.79682817880E-02 -0.94026645313E-02  0.10206145370E+01  0.10203481868E+01 0.  0.
     999903    2    3    3    0    0  0.59468609743E-01 -0.82108312882E-01  0.78588014226E-01  0.12959193143E+00  0.18431009832E-01 0.  0.
         14    1    1    2    0    0  0.19791594144E-01  0.79682817880E-02  0.94026645313E-02  0.23315462974E-01  0.00000000000E+00 0. -1.
     999901    1    3    3    0    0 -0.79260203887E-01  0.74140031094E-01 -0.87990678757E-01  0.89102260559E+00  0.88000000000E+00 0.  1.
        -11    1    4    4    0    0  0.27807284631E-01 -0.42747808614E-01  0.50592160392E-01  0.71836258491E-01  0.51100000000E-03 0. -1.
         11    1    4    4    0    0  0.31661325113E-01 -0.39360504267E-01  0.27995853834E-01  0.57755672942E-01  0.51100000000E-03 0.  1.
</event>
<event>
 8    1  0.1183092E+005  0.1043930E+01  0.7957747E-01            NaN
         13   -1    0    0    0    0  0.00000000000E+00  0.00000000000E+00  0.74505805969E-08  0.10566000000E+00  0.10566000000E+00 0. -1.
     999900   -1    0    0    0    0 -0.00000000000E+00 -0.00000000000E+00 -0.74505805969E-08  0.93827000000E+00  0.93827000000E+00 0.  1.
     999902    2    1    2    0    0  0.12549386593E-01  0.12878975463E-01 -0.13250636058E-01  0.10215931589E+01  0.10213489354E+01 0.  0.
     999903    2    3    3    0    0  0.13034196763E+00  0.17199949920E-01  0.98722865503E-02  0.13343301993E+00  0.20543659914E-01 0.  0.
         14    1    1    2    0    0 -0.12549386593E-01 -0.12878975463E-01  0.13250636058E-01  0.22336841065E-01  0.00000000000E+00 0. -1.
     999901    1    3    3    0    0 -0.11779258104E+00 -0.43209744575E-02 -0.23122922608E-01  0.88816013901E+00  0.88000000000E+00 0. -1.
        -11    1    4    4    0    0  0.10595620117E+00  0.16785254038E-01  0.15513503518E-01  0.10839460887E+00  0.51100000000E-03 0. -1.
         11    1    4    4    0    0  0.24385766461E-01  0.41469588201E-03 -0.56412169675E-02  0.25038411060E-01  0.51100000000E-03 0.  1.
</event>
<event>
 8    1  0.1183092E+005  0.1043930E+01  0.7957747E-01            NaN
         13   -1    0    0    0    0  0.00000000000E+00  0.00000000000E+00  0.74505805969E-08  0.10566000000E+00  0.10566000000E+00 0.  1.
     999900   -1    0    0    0    0 -0.00000000000E+00 -0.00000000000E+00 -0.74505805969E-08  0.93827000000E+00  0.93827000000E+00 0.  1.
     999902    2    1    2    0    0 -0.11172493193E-01 -0.21176295809E-01  0.14906256722E-02  0.10199407926E+01  0.10196586381E+01 0.  0.
     999903    2    3    3    0    0 -0.96108415911E-01 -0.11021481886E-02  0.87376400055E-01  0.13146262817E+00  0.20242158460E-01 0.  0.
         14    1    1    2    0    0  0.11172493193E-01  0.21176295809E-01 -0.14906256722E-02  0.23989207433E-01  0.00000000000E+00 0. -1.
     999901    1    3    3    0    0  0.84935922718E-01 -0.20074147621E-01 -0.85885774382E-01  0.88847816440E+00  0.88000000000E+00 0.  1.
        -11    1    4    4    0    0 -0.51374400087E-01  0.70674083920E-03  0.59951815646E-01  0.78957645527E-01  0.51100000000E-03 0. -1.
         11    1    4    4    0    0 -0.44734015824E-01 -0.18088890278E-02  0.27424584408E-01  0.52504982642E-01  0.51100000000E-03 0.  1.
</event>
<event>
 8    1  0.1183092E+005  0.1043930E+01  0.7957747E-01            NaN
         13   -1    0    0    0    0  0.00000000000E+00  0.00000000000E+00  0.74505805969E-08  0.10566000000E+00  0.10566000000E+00 0.  1.
     999900   -1    0    0    0    0 -0.00000000000E+00 -0.00000000000E+00 -0.74505805969E-08  0.93827000000E+00  0.93827000000E+00 0.  1.
     999902    2    1    2    0    0  0.12907701506E-01 -0.18867569081E-01 -0.55687075860E-02  0.10204012001E+01  0.10201298960E+01 0.  0.
     999903    2    3    3    0    0  0.43748674226E-01  0.96457072875E-01  0.71000186988E-01  0.12904620108E+00  0.19848981241E-01 0.  0.
         14    1    1    2    0    0 -0.12907701506E-01  0.18867569081E-01  0.55687075860E-02  0.23528799914E-01  0.00000000000E+00 0.  1.
     999901    1    3    3    0    0 -0.30840972720E-01 -0.11532464196E+00 -0.76568894574E-01  0.89135499901E+00  0.88000000000E+00 0.  1.
        -11    1    4    4    0    0  0.20263875918E-01  0.67060596435E-01  0.43923800935E-01  0.82688026165E-01  0.51100000000E-03 0. -1.
         11    1    4    4    0    0  0.23484798308E-01  0.29396476440E-01  0.27076386053E-01  0.46358174914E-01  0.51100000000E-03 0.  1.
</event>
<event>
 8    1  0.1183092E+005  0.1043930E+01  0.7957747E-01            NaN
         13   -1    0    0    0    0  0.00000000000E+00  0.00000000000E+00  0.74505805969E-08  0.10566000000E+00  0.10566000000E+00 0. -1.
     999900   -1    0    0    0    0 -0.00000000000E+00 -0.00000000000E+00 -0.74505805969E-08  0.93827000000E+00  0.93827000000E+00 0.  1.
     999902    2    1    2    0    0 -0.37217428052E-02  0.21734063249E-01  0.75041282816E-02  0.10206376662E+01  0.10203718502E+01 0.  0.
     999903    2    3    3    0    0 -0.18355770917E-01 -0.11485027467E+00 -0.50045640293E-01  0.12812356990E+00  0.19584767895E-01 0.  0.
         14    1    1    2    0    0  0.37217428052E-02 -0.21734063249E-01 -0.75041282816E-02  0.23292333848E-01  0.00000000000E+00 0.  1.
     999901    1    3    3    0    0  0.14634028112E-01  0.13658433792E+00  0.57549768574E-01  0.89251409625E+00  0.88000000000E+00 0. -1.
        -11    1    4    4    0    0  0.60376238946E-04 -0.44913515461E-01 -0.26051174133E-01  0.51924486624E-01  0.51100000000E-03 0.  1.
         11    1    4    4    0    0 -0.18416147156E-01 -0.69936759211E-01 -0.23994466159E-01  0.76199083278E-01  0.51100000000E-03 0. -1.
</event>
<event>
 8    1  0.1183092E+005  0.1043930E+01  0.7957747E-01            NaN
         13   -1    0    0    0    0  0.00000000000E+00  0.00000000000E+00  0.74505805969E-08  0.10566000000E+00  0.10566000000E+00 0. -1.
     999900   -1    0    0    0    0 -0.00000000000E+00 -0.00000000000E+00 -0.74505805969E-08  0.93827000000E+00  0.93827000000E+00 0. -1.
     999902    2    1    2    0    0  0.27736561365E-01 -0.88261665926E-02  0.11793012475E-01  0.10125246948E+01  0.10120375311E+01 0.  0.
     999903    2    3    3    0    0 -0.25880701064E-01 -0.11845249927E+00  0.16711034676E-01  0.12408959271E+00  0.20449035847E-01 0.  0.
         14    1    1    2    0    0 -0.27736561365E-01  0.88261665926E-02 -0.11793012475E-01  0.31405305225E-01  0.00000000000E+00 0. -1.
     999901    1    3    3    0    0  0.53617262429E-01  0.10962633268E+00 -0.49180222011E-02  0.88843510207E+00  0.88000000000E+00 0.  1.
        -11    1    4    4    0    0 -0.90311967940E-02 -0.24656935069E-01  0.11435325352E-01  0.28645326834E-01  0.51100000000E-03 0. -1.
         11    1    4    4    0    0 -0.16849504270E-01 -0.93795564200E-01  0.52757093241E-02  0.95444265871E-01  0.51100000000E-03 0.  1.
</event>
<event>
 8    1  0.1183092E+005  0.1043930E+01  0.7957747E-01            NaN
         13   -1    0    0    0    0  0.00000000000E+00  0.00000000000E+00  0.74505805969E-08  0.10566000000E+00  0.10566000000E+00 0. -1.
     999900   -1    0    0    0    0 -0.00000000000E+00 -0.00000000000E+00 -0.74505805969E-08  0.93827000000E+00  0.93827000000E+00 0. -1.
     999902    2    1    2    0    0 -0.19752183910E-01  0.11023628976E-01  0.86944097643E-02  0.10196965123E+01  0.10194085125E+01 0.  0.
     999903    2    3    3    0    0  0.10474109421E+00 -0.61856200415E-01  0.33074205439E-01  0.12761780486E+00  0.19887551548E-01 0.  0.
         14    1    1    2    0    0  0.19752183910E-01 -0.11023628976E-01 -0.86944097643E-02  0.24233487701E-01  0.00000000000E+00 0. -1.
     999901    1    3    3    0    0 -0.12449327812E+00  0.72879829390E-01 -0.24379795675E-01  0.89207870744E+00  0.88000000000E+00 0. -1.
        -11    1    4    4    0    0  0.18074853535E-01 -0.20026664389E-01  0.58822311722E-02  0.27615745173E-01  0.51100000000E-03 0.  1.
         11    1    4    4    0    0  0.86666240671E-01 -0.41829536025E-01  0.27191974267E-01  0.10000205969E+00  0.51100000000E-03 0. -1.
</event>
<event>
 8    1  0.1183092E+005  0.1043930E+01  0.7957747E-01            NaN
         13   -1    0    0    0    0  0.00000000000E+00  0.00000000000E+00  0.74505805969E-08  0.10566000000E+00  0.10566000000E+00 0. -1.
     999900   -1    0    0    0    0 -0.00000000000E+00 -0.00000000000E+00 -0.74505805969E-08  0.93827000000E+00  0.93827000000E+00 0. -1.
     999902    2    1    2    0    0 -0.20313948106E-01 -0.27681226314E-02  0.12904116710E-01  0.10197053180E+01  0.10194175299E+01 0.  0.
     999903    2    3    3    0    0 -0.46382514912E-02  0.93418910174E-01  0.89510936411E-01  0.13101736512E+00  0.20118053361E-01 0.  0.
         14    1    1    2    0    0  0.20313948106E-01  0.27681226314E-02 -0.12904116710E-01  0.24224682013E-01  0.00000000000E+00 0.  1.
     999901    1    3    3    0    0 -0.15675696615E-01 -0.96187032806E-01 -0.76606819702E-01  0.88868795287E+00  0.88000000000E+00 0.  1.
        -11    1    4    4    0    0 -0.53797508578E-03  0.71975615576E-01  0.56820857616E-01  0.91704141869E-01  0.51100000000E-03 0. -1.
         11    1    4    4    0    0 -0.41002764054E-02  0.21443294599E-01  0.32690078795E-01  0.39313223252E-01  0.51100000000E-03 0.  1.
</event>
<event>
 8    1  0.1183092E+005  0.1043930E+01  0.7957747E-01            NaN
         13   -1    0    0    0    0  0.00000000000E+00  0.00000000000E+00  0.74505805969E-08  0.10566000000E+00  0.10566000000E+00 0.  1.
     999900   -1    0    0    0    0 -0.00000000000E+00 -0.00000000000E+00 -0.74505805969E-08  0.93827000000E+00  0.93827000000E+00 0.  1.
     999902    2    1    2    0    0  0.46452466786E-02  0.17162953647E-01  0.25790018467E-01  0.10126047650E+01  0.10121201212E+01 0.  0.
     999903    2    3    3    0    0  0.92025827983E-01 -0.72215049071E-01  0.34774941922E-01  0.12372652689E+00  0.20376224920E-01 0.  0.
         14    1    1    2    0    0 -0.46452466786E-02 -0.17162953647E-01 -0.25790018467E-01  0.31325234989E-01  0.00000000000E+00 0. -1.
     999901    1    3    3    0    0 -0.87380581304E-01  0.89378002718E-01 -0.89849234548E-02  0.88887823812E+00  0.88000000000E+00 0.  1.
        -11    1    4    4    0    0  0.40623684131E-02 -0.77047719374E-02  0.69352708494E-02  0.11145647154E-01  0.51100000000E-03 0. -1.
         11    1    4    4    0    0  0.87963459570E-01 -0.64510277133E-01  0.27839671072E-01  0.11258087973E+00  0.51100000000E-03 0.  1.
</event>
<event>
 8    1  0.1183092E+005  0.1043930E+01  0.7957747E-01            NaN
         13   -1    0    0    0    0  0.00000000000E+00  0.00000000000E+00  0.74505805969E-08  0.10566000000E+00  0.10566000000E+00 0. -1.
     999900   -1    0    0    0    0 -0.00000000000E+00 -0.00000000000E+00 -0.74505805969E-08  0.93827000000E+00  0.93827000000E+00 0. -1.
     999902    2    1    2    0    0 -0.27810872322E-02 -0.22432910836E-01 -0.23286248243E-02  0.10212057304E+01  0.10209528644E+01 0.  0.
     999903    2    3    3    0    0 -0.14771227765E-01 -0.12645069873E+00  0.37376109058E-01  0.13410938302E+00  0.19503453723E-01 0.  0.
         14    1    1    2    0    0  0.27810872322E-02  0.22432910836E-01  0.23286248243E-02  0.22724269589E-01  0.00000000000E+00 0. -1.
     999901    1    3    3    0    0  0.11990140533E-01  0.10401778789E+00 -0.39704733882E-01  0.88709634739E+00  0.88000000000E+00 0. -1.
        -11    1    4    4    0    0 -0.69658709523E-02 -0.55149083864E-01  0.26418393764E-01  0.61547846910E-01  0.51100000000E-03 0.  1.
         11    1    4    4    0    0 -0.78053568124E-02 -0.71301614861E-01  0.10957715294E-01  0.72561536107E-01  0.51100000000E-03 0. -1.
</event>
<event>
 8    1  0.1183092E+005  0.1043930E+01  0.7957747E-01            NaN
         13   -1    0    0    0    0  0.00000000000E+00  0.00000000000E+00  0.74505805969E-08  0.10566000000E+00  0.10566000000E+00 0. -1.
     999900   -1    0    0    0    0 -0.00000000000E+00 -0.00000000000E+00 -0.74505805969E-08  0.93827000000E+00  0.93827000000E+00 0.  1.
     999902    2    1    2    0    0  0.20151118010E-01  0.62210574605E-02 -0.89507766412E-02  0.10210196199E+01  0.10207625477E+01 0.  0.
     999903    2    3    3    0    0 -0.65388113084E-01 -0.54672706380E-02 -0.11146976059E+00  0.13087147543E+00  0.19908268982E-01 0.  0.
         14    1    1    2    0    0 -0.20151118010E-01 -0.62210574605E-02  0.89507766412E-02  0.22910380081E-01  0.00000000000E+00 0. -1.
     999901    1    3    3    0    0  0.85539231094E-01  0.11688328098E-01  0.10251898395E+00  0.89014814449E+00  0.88000000000E+00 0. -1.
        -11    1    4    4    0    0 -0.21850394907E-01 -0.10917012525E-01 -0.45427165967E-01  0.51580126492E-01  0.51100000000E-03 0. -1.
         11    1    4    4    0    0 -0.43537718177E-01  0.54497418873E-02 -0.66042594623E-01  0.79291348937E-01  0.51100000000E-03 0.  1.
</event>
<event>
 8    1  0.1183092E+005  0.1043930E+01  0.7957747E-01            NaN
         13   -1    0    0    0    0  0.00000000000E+00  0.00000000000E+00  0.74505805969E-08  0.10566000000E+00  0.10566000000E+00 0.  1.
     999900   -1    0    0    0    0 -0.00000000000E+00 -0.00000000000E+00 -0.74505805969E-08  0.93827000000E+00  0.93827000000E+00 0.  1.
     999902    2    1    2    0    0 -0.20950464848E-02  0.28410526154E-01 -0.76358116705E-02  0.10144367324E+01  0.10140079049E+01 0.  0.
     999903    2    3    3    0    0 -0.15427076817E-01  0.11863255616E+00  0.41796861434E-01  0.12834342638E+00  0.20331733539E-01 0.  0.
         14    1    1    2    0    0  0.20950464848E-02 -0.28410526154E-01  0.76358116705E-02  0.29493267639E-01  0.00000000000E+00 0.  1.
     999901    1    3    3    0    0  0.13332030332E-01 -0.90222030009E-01 -0.49432673104E-01  0.88609330598E+00  0.88000000000E+00 0. -1.
        -11    1    4    4    0    0 -0.81913693130E-02  0.99501862737E-01  0.28088055777E-01  0.10371556883E+00  0.51100000000E-03 0. -1.
         11    1    4    4    0    0 -0.72357075039E-02  0.19130693426E-01  0.13708805657E-01  0.24627857552E-01  0.51100000000E-03 0.  1.
</event>
<event>
 8    1  0.1183092E+005  0.1043930E+01  0.7957747E-01            NaN
         13   -1    0    0    0    0  0.00000000000E+00  0.00000000000E+00  0.74505805969E-08  0.10566000000E+00  0.10566000000E+00 0.  1.
     999900   -1    0    0    0    0 -0.00000000000E+00 -0.00000000000E+00 -0.74505805969E-08  0.93827000000E+00  0.93827000000E+00 0.  1.
     999902    2    1    2    0    0  0.80736801961E-02  0.22374002699E-01  0.57664582125E-02  0.10194548626E+01  0.10191610200E+01 0.  0.
     999903    2    3    3    0    0  0.37072474791E-01 -0.53609499126E-01  0.11036878846E+00  0.12953572579E+00  0.18705293514E-01 0.  0.
         14    1    1    2    0    0 -0.80736801961E-02 -0.22374002699E-01 -0.57664582125E-02  0.24475137365E-01  0.00000000000E+00 0.  1.
     999901    1    3    3    0    0 -0.28998794595E-01  0.75983501826E-01 -0.10460233025E+00  0.88991913685E+00  0.88000000000E+00 0.  1.
        -11    1    4    4    0    0  0.15992460909E-01 -0.24843482641E-01  0.32729090672E-01  0.44095486536E-01  0.51100000000E-03 0. -1.
         11    1    4    4    0    0  0.21080013882E-01 -0.28766016485E-01  0.77639697786E-01  0.85440239250E-01  0.51100000000E-03 0.  1.
</event>
<event>
 8    1  0.1183092E+005  0.1043930E+01  0.7957747E-01            NaN
         13   -1    0    0    0    0  0.00000000000E+00  0.00000000000E+00  0.74505805969E-08  0.10566000000E+00  0.10566000000E+00 0. -1.
     999900   -1    0    0    0    0 -0.00000000000E+00 -0.00000000000E+00 -0.74505805969E-08  0.93827000000E+00  0.93827000000E+00 0.  1.
     999902    2    1    2    0    0  0.59681326718E-02  0.34166618451E-01  0.11726714195E-01  0.10073172666E+01  0.10066516693E+01 0.  0.
     999903    2    3    3    0    0 -0.65198590522E-01  0.11177463943E-01  0.98159974130E-01  0.11992563254E+00  0.19260968612E-01 0.  0.
         14    1    1    2    0    0 -0.59681326718E-02 -0.34166618451E-01 -0.11726714195E-01  0.36612733438E-01  0.00000000000E+00 0. -1.
     999901    1    3    3    0    0  0.71166723194E-01  0.22989154508E-01 -0.86433259935E-01  0.88739163403E+00  0.88000000000E+00 0.  1.
        -11    1    4    4    0    0 -0.38860538016E-01 -0.13724125281E-02  0.46731040839E-01  0.60795363556E-01  0.51100000000E-03 0. -1.
         11    1    4    4    0    0 -0.26338052506E-01  0.12549876472E-01  0.51428933291E-01  0.59130268981E-01  0.51100000000E-03 0.  1.
</event>
<event>
 8    1  0.1183092E+005  0.1043930E+01  0.7957747E-01            NaN
         13   -1    0    0    0    0  0.00000000000E+00  0.00000000000E+00  0.74505805969E-08  0.10566000000E+00  0.10566000000E+00 0.  1.
     999900   -1    0    0    0    0 -0.00000000000E+00 -0.00000000000E+00 -0.74505805969E-08  0.93827000000E+00  0.93827000000E+00 0.  1.
     999902    2    1    2    0    0  0.12242836560E-01  0.17908971235E-01  0.68634852099E-02  0.10211764129E+01  0.10209228867E+01 0.  0.
     999903    2    3    3    0    0  0.44112681804E-01 -0.11075247273E+00  0.48462461307E-01  0.13027802978E+00  0.20290785435E-01 0.  0.
         14    1    1    2    0    0 -0.12242836560E-01 -0.17908971235E-01 -0.68634852099E-02  0.22753587123E-01  0.00000000000E+00 0. -1.
     999901    1    3    3    0    0 -0.31869845244E-01  0.12866144397E+00 -0.41598976097E-01  0.89089838310E+00  0.88000000000E+00 0.  1.
        -11    1    4    4    0    0  0.27413639332E-01 -0.61021257662E-01  0.16705121016E-01  0.68952329165E-01  0.51100000000E-03 0. -1.
         11    1    4    4    0    0  0.16699042472E-01 -0.49731215072E-01  0.31757340291E-01  0.61325700611E-01  0.51100000000E-03 0.  1.
</event>
<event>
 8    1  0.1183092E+005  0.1043930E+01  0.7957747E-01            NaN
         13   -1    0    0    0    0  0.00000000000E+00  0.00000000000E+00  0.74505805969E-08  0.10566000000E+00  0.10566000000E+00 0.  1.
     999900   -1    0    0    0    0 -0.00000000000E+00 -0.00000000000E+00 -0.74505805969E-08  0.93827000000E+00  0.93827000000E+00 0. -1.
     999902    2    1    2    0    0 -0.48589804552E-02 -0.22574311621E-01  0.17461643617E-02  0.10207727479E+01  0.10205100413E+01 0.  0.
     999903    2    3    3    0    0  0.52500159517E-01  0.91041682615E-01 -0.71781175863E-01  0.12858166136E+00  0.18326257328E-01 0.  0.
         14    1    1    2    0    0  0.48589804552E-02  0.22574311621E-01 -0.17461643617E-02  0.23157252129E-01  0.00000000000E+00 0.  1.
     999901    1    3    3    0    0 -0.57359139972E-01 -0.11361599424E+00  0.73527340225E-01  0.89219108651E+00  0.88000000000E+00 0.  1.
        -11    1    4    4    0    0  0.11144140691E-01  0.35213579813E-01 -0.20675294801E-01  0.42331040751E-01  0.51100000000E-03 0. -1.
         11    1    4    4    0    0  0.41356018826E-01  0.55828102803E-01 -0.51105881063E-01  0.86250620611E-01  0.51100000000E-03 0.  1.
</event>
<event>
 8    1  0.1183092E+005  0.1043930E+01  0.7957747E-01            NaN
         13   -1    0    0    0    0  0.00000000000E+00  0.00000000000E+00  0.74505805969E-08  0.10566000000E+00  0.10566000000E+00 0. -1.
     999900   -1    0    0    0    0 -0.00000000000E+00 -0.00000000000E+00 -0.74505805969E-08  0.93827000000E+00  0.93827000000E+00 0. -1.
     999902    2    1    2    0    0 -0.27335347474E-02  0.29684441385E-02 -0.23042934924E-01  0.10205363957E+01  0.10202682364E+01 0.  0.
     999903    2    3    3    0    0  0.11829949089E-01 -0.93941632920E-01 -0.90463186213E-01  0.13253349683E+00  0.20409841515E-01 0.  0.
         14    1    1    2    0    0  0.27335347474E-02 -0.29684441385E-02  0.23042934924E-01  0.23393604313E-01  0.00000000000E+00 0. -1.
     999901    1    3    3    0    0 -0.14563483836E-01  0.96910077059E-01  0.67420251289E-01  0.88800289886E+00  0.88000000000E+00 0. -1.
        -11    1    4    4    0    0  0.64195640993E-02 -0.88860057329E-02 -0.15730309979E-01  0.19180085353E-01  0.51100000000E-03 0.  1.
         11    1    4    4    0    0  0.54103849893E-02 -0.85055627188E-01 -0.74732876234E-01  0.11335341148E+00  0.51100000000E-03 0. -1.
</event>
<event>
 8    1  0.1183092E+005  0.1043930E+01  0.7957747E-01            NaN
         13   -1    0    0    0    0  0.00000000000E+00  0.00000000000E+00  0.74505805969E-08  0.10566000000E+00  0.10566000000E+00 0.  1.
     999900   -1    0    0    0    0 -0.00000000000E+00 -0.00000000000E+00 -0.74505805969E-08  0.93827000000E+00  0.93827000000E+00 0.  1.
     999902    2    1    2    0    0  0.19925605129E-01 -0.84817005092E-02  0.10061875173E-01  0.10200509231E+01  0.10197713839E+01 0.  0.
     999903    2    3    3    0    0  0.31160319074E-01 -0.63563138495E-02  0.12692780571E+00  0.13225118113E+00  0.19192155609E-01 0.  0.
         14    1    1    2    0    0 -0.19925605129E-01  0.84817005092E-02 -0.10061875173E-01  0.23879076936E-01  0.00000000000E+00 0. -1.
     999901    1    3    3    0    0 -0.11234713945E-01 -0.21253866597E-02 -0.11686593053E+00  0.88779974194E+00  0.88000000000E+00 0.  1.
        -11    1    4    4    0    0  0.54409705275E-02  0.63364200839E-02  0.32717809612E-01  0.33770853803E-01  0.51100000000E-03 0.  1.
         11    1    4    4    0    0  0.25719348547E-01 -0.12692733933E-01  0.94209996096E-01  0.98480327323E-01  0.51100000000E-03 0. -1.
</event>
<event>
 8    1  0.1183092E+005  0.1043930E+01  0.7957747E-01            NaN
         13   -1    0    0    0    0  0.00000000000E+00  0.00000000000E+00  0.74505805969E-08  0.10566000000E+00  0.10566000000E+00 0.  1.
     999900   -1    0    0    0    0 -0.00000000000E+00 -0.00000000000E+00 -0.74505805969E-08  0.93827000000E+00  0.93827000000E+00 0. -1.
     999902    2    1    2    0    0 -0.41702827831E-02 -0.19099927710E-01  0.12790283944E-01  0.10205678541E+01  0.10203004239E+01 0.  0.
     999903    2    3    3    0    0  0.92410925425E-01  0.19557921553E-01  0.88852690836E-01  0.13118163383E+00  0.19787090546E-01 0.  0.
         14    1    1    2    0    0  0.41702827831E-02  0.19099927710E-01 -0.12790283944E-01  0.23362145885E-01  0.00000000000E+00 0.  1.
     999901    1    3    3    0    0 -0.96581208209E-01 -0.38657849263E-01 -0.76062406892E-01  0.88938622028E+00  0.88000000000E+00 0. -1.
        -11    1    4    4    0    0  0.58635474344E-01  0.73513018698E-02  0.43770719496E-01  0.73541127928E-01  0.51100000000E-03 0. -1.
         11    1    4    4    0    0  0.33775451082E-01  0.12206619683E-01  0.45081971340E-01  0.57640505903E-01  0.51100000000E-03 0.  1.
</event>
<event>
 8    1  0.1183092E+005  0.1043930E+01  0.7957747E-01            NaN
         13   -1    0    0    0    0  0.00000000000E+00  0.00000000000E+00  0.74505805969E-08  0.10566000000E+00  0.10566000000E+00 0. -1.
     999900   -1    0    0    0    0 -0.00000000000E+00 -0.00000000000E+00 -0.74505805969E-08  0.93827000000E+00  0.93827000000E+00 0. -1.
     999902    2    1    2    0    0  0.13704993433E-01  0.13536727349E-01 -0.14554636618E-01  0.10197865272E+01  0.10195006885E+01 0.  0.
     999903    2    3    3    0    0  0.76639928552E-01  0.75856790862E-01  0.72278592057E-01  0.13108826232E+00  0.18221039503E-01 0.  0.
         14    1    1    2    0    0 -0.13704993433E-01 -0.13536727349E-01  0.14554636618E-01  0.24143472811E-01  0.00000000000E+00 0. -1.
     999901    1    3    3    0    0 -0.62934935119E-01 -0.62320063514E-01 -0.86833228674E-01  0.88869826487E+00  0.88000000000E+00 0. -1.
        -11    1    4    4    0    0  0.35215705212E-01  0.30437000979E-01  0.41390500457E-01  0.62289578352E-01  0.51100000000E-03 0. -1.
         11    1    4    4    0    0  0.41424223340E-01  0.45419789883E-01  0.30888091599E-01  0.68798683970E-01  0.51100000000E-03 0.  1.
</event>
<event>
 8    1  0.1183092E+005  0.1043930E+01  0.7957747E-01            NaN
         13   -1    0    0    0    0  0.00000000000E+00  0.00000000000E+00  0.74505805969E-08  0.10566000000E+00  0.10566000000E+00 0. -1.
     999900   -1    0    0    0    0 -0.00000000000E+00 -0.00000000000E+00 -0.74505805969E-08  0.93827000000E+00  0.93827000000E+00 0. -1.
     999902    2    1    2    0    0  0.38393251818E-02 -0.23318073516E-01  0.48324828629E-02  0.10198089333E+01  0.10195236312E+01 0.  0.
     999903    2    3    3    0    0  0.43113229483E-01  0.84219292563E-01 -0.83583631597E-01  0.12799946147E+00  0.21118685329E-01 0.  0.
         14    1    1    2    0    0 -0.38393251818E-02  0.23318073516E-01 -0.48324828629E-02  0.24121066746E-01  0.00000000000E+00 0.  1.
     999901    1    3    3    0    0 -0.39273904301E-01 -0.10753736608E+00  0.88416114460E-01  0.89180947178E+00  0.88000000000E+00 0. -1.
        -11    1    4    4    0    0  0.57004742045E-02  0.18437141616E-01 -0.75690472013E-02  0.20735843211E-01  0.51100000000E-03 0.  1.
         11    1    4    4    0    0  0.37412755278E-01  0.65782150947E-01 -0.76014584396E-01  0.10726361826E+00  0.51100000000E-03 0. -1.
</event>
<event>
 8    1  0.1183092E+005  0.1043930E+01  0.7957747E-01            NaN
         13   -1    0    0    0    0  0.00000000000E+00  0.00000000000E+00  0.74505805969E-08  0.10566000000E+00  0.10566000000E+00 0. -1.
     999900   -1    0    0    0    0 -0.00000000000E+00 -0.00000000000E+00 -0.74505805969E-08  0.93827000000E+00  0.93827000000E+00 0.  1.
     999902    2    1    2    0    0 -0.19927951147E-01  0.87637201245E-02  0.10635011638E-01  0.10197013083E+01  0.10194134238E+01 0.  0.
     999903    2    3    3    0    0 -0.12706912347E+00 -0.87653253120E-02  0.31933603672E-01  0.13277395603E+00  0.19641163104E-01 0.  0.
         14    1    1    2    0    0  0.19927951147E-01 -0.87637201245E-02 -0.10635011638E-01  0.24228691666E-01  0.00000000000E+00 0. -1.
     999901    1    3    3    0    0  0.10714117233E+00  0.17529045437E-01 -0.21298592034E-01  0.88692735230E+00  0.88000000000E+00 0.  1.
        -11    1    4    4    0    0 -0.11581039597E+00 -0.32270852837E-02  0.25358669429E-01  0.11859926277E+00  0.51100000000E-03 0.  1.
         11    1    4    4    0    0 -0.11258727504E-01 -0.55382400283E-02  0.65749342430E-02  0.14174693257E-01  0.51100000000E-03 0. -1.
</event>
<event>
 8    1  0.1183092E+005  0.1043930E+01  0.7957747E-01            NaN
         13   -1    0    0    0    0  0.00000000000E+00  0.00000000000E+00  0.74505805969E-08  0.10566000000E+00  0.10566000000E+00 0.  1.
     999900   -1    0    0    0    0 -0.00000000000E+00 -0.00000000000E+00 -0.74505805969E-08  0.93827000000E+00  0.93827000000E+00 0. -1.
     999902    2    1    2    0    0 -0.36934128119E-02 -0.12726067230E-01  0.19568426971E-01  0.10202970269E+01  0.10200232868E+01 0.  0.
     999903    2    3    3    0    0 -0.78590127227E-01  0.20600393073E-01  0.10274450207E+00  0.13258174015E+00  0.20510992754E-01 0.  0.
         14    1    1    2    0    0  0.36934128119E-02  0.12726067230E-01 -0.19568426971E-01  0.23632973141E-01  0.00000000000E+00 0. -1.
     999901    1    3    3    0    0  0.74896714415E-01 -0.33326460303E-01 -0.83176075099E-01  0.88771528671E+00  0.88000000000E+00 0. -1.
        -11    1    4    4    0    0 -0.39135896236E-02 -0.29665679298E-02  0.30276469093E-02  0.57917593037E-02  0.51100000000E-03 0. -1.
         11    1    4    4    0    0 -0.74676537603E-01  0.23566961003E-01  0.99716855160E-01  0.12678998085E+00  0.51100000000E-03 0.  1.
</event>
<event>
 8    1  0.1183092E+005  0.1043930E+01  0.7957747E-01            NaN
         13   -1    0    0    0    0  0.00000000000E+00  0.00000000000E+00  0.74505805969E-08  0.10566000000E+00  0.10566000000E+00 0. -1.
     999900   -1    0    0    0    0 -0.00000000000E+00 -0.00000000000E+00 -0.74505805969E-08  0.93827000000E+00  0.93827000000E+00 0. -1.
     999902    2    1    2    0    0 -0.68547639966E-02  0.15126222937E-01 -0.17069840156E-01  0.10201146719E+01  0.10198366408E+01 0.  0.
     999903    2    3    3    0    0 -0.99443724918E-01  0.12648977671E-01 -0.84540731384E-01  0.13268514027E+00  0.20227706864E-01 0.  0.
         14    1    1    2    0    0  0.68547639966E-02 -0.15126222937E-01  0.17069840156E-01  0.23815328105E-01  0.00000000000E+00 0. -1.
     999901    1    3    3    0    0  0.92588960922E-01  0.24772452667E-02  0.67470891228E-01  0.88742953162E+00  0.88000000000E+00 0.  1.
        -11    1    4    4    0    0 -0.64038550327E-01  0.51758397859E-03 -0.61148808493E-01  0.88547398167E-01  0.51100000000E-03 0.  1.
         11    1    4    4    0    0 -0.35405174592E-01  0.12131393692E-01 -0.23391922892E-01  0.44137742107E-01  0.51100000000E-03 0. -1.
</event>
<event>
 8    1  0.1183092E+005  0.1043930E+01  0.7957747E-01            NaN
         13   -1    0    0    0    0  0.00000000000E+00  0.00000000000E+00  0.74505805969E-08  0.10566000000E+00  0.10566000000E+00 0.  1.
     999900   -1    0    0    0    0 -0.00000000000E+00 -0.00000000000E+00 -0.74505805969E-08  0.93827000000E+00  0.93827000000E+00 0. -1.
     999902    2    1    2    0    0 -0.18043405086E-01  0.13226066585E-01  0.93099525448E-02  0.10196984396E+01  0.10194104861E+01 0.  0.
     999903    2    3    3    0    0  0.84015976176E-01  0.90392612627E-01 -0.33423784535E-01  0.12941928930E+00  0.20067246912E-01 0.  0.
         14    1    1    2    0    0  0.18043405086E-01 -0.13226066585E-01 -0.93099525448E-02  0.24231560428E-01  0.00000000000E+00 0. -1.
     999901    1    3    3    0    0 -0.10205938126E+00 -0.77166546043E-01  0.42733737080E-01  0.89027915028E+00  0.88000000000E+00 0.  1.
        -11    1    4    4    0    0  0.17661583950E-01  0.32332077270E-01 -0.90209423382E-02  0.37933274178E-01  0.51100000000E-03 0.  1.
         11    1    4    4    0    0  0.66354392227E-01  0.58060535357E-01 -0.24402842197E-01  0.91486015117E-01  0.51100000000E-03 0. -1.
</event>
<event>
 8    1  0.1183092E+005  0.1043930E+01  0.7957747E-01            NaN
         13   -1    0    0    0    0  0.00000000000E+00  0.00000000000E+00  0.74505805969E-08  0.10566000000E+00  0.10566000000E+00 0.  1.
     999900   -1    0    0    0    0 -0.00000000000E+00 -0.00000000000E+00 -0.74505805969E-08  0.93827000000E+00  0.93827000000E+00 0. -1.
     999902    2    1    2    0    0 -0.36838624414E-02 -0.13880248844E-01 -0.17429466385E-01  0.10213464120E+01  0.10210967020E+01 0.  0.
     999903    2    3    3    0    0 -0.25457975910E-02 -0.86521838016E-01  0.97364231792E-01  0.13092196889E+00  0.12971459695E-01 0.  0.
         14    1    1    2    0    0  0.36838624414E-02  0.13880248844E-01  0.17429466385E-01  0.22583588044E-01  0.00000000000E+00 0.  1.
     999901    1    3    3    0    0 -0.11380648504E-02  0.72641589172E-01 -0.11479369818E+00  0.89042444307E+00  0.88000000000E+00 0. -1.
        -11    1    4    4    0    0  0.62718402149E-03 -0.79090748476E-01  0.91365095999E-01  0.12084528018E+00  0.51100000000E-03 0.  1.
         11    1    4    4    0    0 -0.31729816125E-02 -0.74310895395E-02  0.59991357925E-02  0.10076688708E-01  0.51100000000E-03 0. -1.
</event>
<event>
 8    1  0.1183092E+005  0.1043930E+01  0.7957747E-01            NaN
         13   -1    0    0    0    0  0.00000000000E+00  0.00000000000E+00  0.74505805969E-08  0.10566000000E+00  0.10566000000E+00 0. -1.
     999900   -1    0    0    0    0 -0.00000000000E+00 -0.00000000000E+00 -0.74505805969E-08  0.93827000000E+00  0.93827000000E+00 0.  1.
     999902    2    1    2    0    0  0.23230485006E-01 -0.61192989637E-02 -0.15249786028E-02  0.10198587139E+01  0.10195746023E+01 0.  0.
     999903    2    3    3    0    0 -0.78518668056E-01 -0.10035999015E+00  0.62372458334E-03  0.12899463061E+00  0.20047863638E-01 0.  0.
         14    1    1    2    0    0 -0.23230485006E-01  0.61192989637E-02  0.15249786028E-02  0.24071286072E-01  0.00000000000E+00 0. -1.
     999901    1    3    3    0    0  0.10174915306E+00  0.94240691189E-01 -0.21487031861E-02  0.89086408332E+00  0.88000000000E+00 0.  1.
        -11    1    4    4    0    0 -0.47199883449E-01 -0.73946731260E-01  0.44674850241E-02  0.87841719047E-01  0.51100000000E-03 0.  1.
         11    1    4    4    0    0 -0.31318784607E-01 -0.26413258893E-01 -0.38437604408E-02  0.41152911561E-01  0.51100000000E-03 0. -1.
</event>
<event>
 8    1  0.1183092E+005  0.1043930E+01  0.7957747E-01            NaN
         13   -1    0    0    0    0  0.00000000000E+00  0.00000000000E+00  0.74505805969E-08  0.10566000000E+00  0.10566000000E+00 0.  1.
     999900   -1    0    0    0    0 -0.00000000000E+00 -0.00000000000E+00 -0.74505805969E-08  0.93827000000E+00  0.93827000000E+00 0. -1.
     999902    2    1    2    0    0 -0.10718228236E-01 -0.96623881890E-02  0.18608543758E-01  0.10203817503E+01  0.10201099923E+01 0.  0.
     999903    2    3    3    0    0  0.16225753044E-01 -0.55090848855E-01  0.11827987038E+00  0.13318160576E+00  0.21188102449E-01 0.  0.
         14    1    1    2    0    0  0.10718228236E-01  0.96623881890E-02 -0.18608543758E-01  0.23548249677E-01  0.00000000000E+00 0.  1.
     999901    1    3    3    0    0 -0.26943981280E-01  0.45428460666E-01 -0.99671326624E-01  0.88720014457E+00  0.88000000000E+00 0. -1.
        -11    1    4    4    0    0  0.20159890405E-01 -0.53047299159E-01  0.10982136328E+00  0.12361808154E+00  0.51100000000E-03 0. -1.
         11    1    4    4    0    0 -0.39341373613E-02 -0.20435496961E-02  0.84585071035E-02  0.95635242227E-02  0.51100000000E-03 0.  1.
</event>
<event>
 8    1  0.1183092E+005  0.1043930E+01  0.7957747E-01            NaN
         13   -1    0    0    0    0  0.00000000000E+00  0.00000000000E+00  0.74505805969E-08  0.10566000000E+00  0.10566000000E+00 0. -1.
     999900   -1    0    0    0    0 -0.00000000000E+00 -0.00000000000E+00 -0.74505805969E-08  0.93827000000E+00  0.93827000000E+00 0. -1.
     999902    2    1    2    0    0 -0.21109202385E-01 -0.39101287841E-02  0.47730831544E-02  0.10219375046E+01  0.10217008336E+01 0.  0.
     999903    2    3    3    0    0  0.98265353843E-01  0.12084214021E-01  0.82339736893E-01  0.13035313422E+00  0.20248440327E-01 0.  0.
         14    1    1    2    0    0  0.21109202385E-01  0.39101287841E-02 -0.47730831544E-02  0.21992495430E-01  0.00000000000E+00 0.  1.
     999901    1    3    3    0    0 -0.11937455623E+00 -0.15994342805E-01 -0.77566653738E-01  0.89158437035E+00  0.88000000000E+00 0. -1.
        -11    1    4    4    0    0  0.68063495039E-01  0.16541956034E-01  0.63001138750E-01  0.94210828843E-01  0.51100000000E-03 0. -1.
         11    1    4    4    0    0  0.30201858803E-01 -0.44577420133E-02  0.19338598143E-01  0.36142305380E-01  0.51100000000E-03 0.  1.
</event>
<event>
 8    1  0.1183092E+005  0.1043930E+01  0.7957747E-01            NaN
         13   -1    0    0    0    0  0.00000000000E+00  0.00000000000E+00  0.74505805969E-08  0.10566000000E+00  0.10566000000E+00 0. -1.
     999900   -1    0    0    0    0 -0.00000000000E+00 -0.00000000000E+00 -0.74505805969E-08  0.93827000000E+00  0.93827000000E+00 0. -1.
     999902    2    1    2    0    0  0.53478615663E-02  0.15942048714E-01 -0.13371616615E-01  0.10224463162E+01  0.10222205832E+01 0.  0.
     999903    2    3    3    0    0 -0.45990779658E-01  0.33343393223E-01  0.11657526608E+00  0.13125348899E+00  0.20267018177E-01 0.  0.
         14    1    1    2    0    0 -0.53478615663E-02 -0.15942048714E-01  0.13371616615E-01  0.21483683842E-01  0.00000000000E+00 0. -1.
     999901    1    3    3    0    0  0.51338641224E-01 -0.17401344509E-01 -0.12994688269E+00  0.89119282717E+00  0.88000000000E+00 0. -1.
        -11    1    4    4    0    0 -0.27326773614E-01  0.30478795226E-01  0.71692825882E-01  0.82558051810E-01  0.51100000000E-03 0. -1.
         11    1    4    4    0    0 -0.18664006044E-01  0.28645979961E-02  0.44882440196E-01  0.48695437181E-01  0.51100000000E-03 0.  1.
</event>
<event>
 8    1  0.1183092E+005  0.1043930E+01  0.7957747E-01            NaN
         13   -1    0    0    0    0  0.00000000000E+00  0.00000000000E+00  0.74505805969E-08  0.10566000000E+00  0.10566000000E+00 0. -1.
     999900   -1    0    0    0    0 -0.00000000000E+00 -0.00000000000E+00 -0.74505805969E-08  0.93827000000E+00  0.93827000000E+00 0.  1.
     999902    2    1    2    0    0  0.10317665970E-01 -0.94061392959E-02 -0.19546755591E-01  0.10199090645E+01  0.10196261543E+01 0.  0.
     999903    2    3    3    0    0 -0.27612841546E-01 -0.12297962784E+00  0.26864242347E-01  0.13058817674E+00  0.21098021369E-01 0.  0.
         14    1    1    2    0    0 -0.10317665970E-01  0.94061392959E-02  0.19546755591E-01  0.24020935487E-01  0.00000000000E+00 0. -1.
     999901    1    3    3    0    0  0.37930507516E-01  0.11357348854E+00 -0.46410997938E-01  0.88932088777E+00  0.88000000000E+00 0. -1.
        -11    1    4    4    0    0 -0.23761329172E-01 -0.66937708471E-01  0.21194140364E-01  0.74126313049E-01  0.51100000000E-03 0.  1.
         11    1    4    4    0    0 -0.38515123740E-02 -0.56041919367E-01  0.56701019830E-02  0.56461863691E-01  0.51100000000E-03 0. -1.
</event>
<event>
 8    1  0.1183092E+005  0.1043930E+01  0.7957747E-01            NaN
         13   -1    0    0    0    0  0.00000000000E+00  0.00000000000E+00  0.74505805969E-08  0.10566000000E+00  0.10566000000E+00 0. -1.
     999900   -1    0    0    0    0 -0.00000000000E+00 -0.00000000000E+00 -0.74505805969E-08  0.93827000000E+00  0.93827000000E+00 0. -1.
     999902    2    1    2    0    0 -0.11020158969E-01 -0.93950502141E-02 -0.17836067413E-01  0.10209553145E+01  0.10206967807E+01 0.  0.
     999903    2    3    3    0    0 -0.66656194399E-01 -0.16655931397E-01 -0.11343561425E+00  0.13400133477E+00  0.19189862875E-01 0.  0.
         14    1    1    2    0    0  0.11020158969E-01  0.93950502141E-02  0.17836067413E-01  0.22974685482E-01  0.00000000000E+00 0. -1.
     999901    1    3    3    0    0  0.55636035430E-01  0.72608811829E-02  0.95599546839E-01  0.88695397975E+00  0.88000000000E+00 0.  1.
        -11    1    4    4    0    0 -0.24021310785E-01 -0.10412782103E-01 -0.28146086231E-01  0.38443630085E-01  0.51100000000E-03 0. -1.
         11    1    4    4    0    0 -0.42634883614E-01 -0.62431492944E-02 -0.85289528020E-01  0.95557704686E-01  0.51100000000E-03 0.  1.
</event>
<event>
 8    1  0.1183092E+005  0.1043930E+01  0.7957747E-01            NaN
         13   -1    0    0    0    0  0.00000000000E+00  0.00000000000E+00  0.74505805969E-08  0.10566000000E+00  0.10566000000E+00 0.  1.
     999900   -1    0    0    0    0 -0.00000000000E+00 -0.00000000000E+00 -0.74505805969E-08  0.93827000000E+00  0.93827000000E+00 0. -1.
     999902    2    1    2    0    0 -0.88537125370E-02 -0.63525170511E-02 -0.21582273062E-01  0.10197527957E+01  0.10194661481E+01 0.  0.
     999903    2    3    3    0    0  0.10212216217E+00 -0.60558301399E-01 -0.51009175152E-01  0.13064096109E+00  0.19206272171E-01 0.  0.
         14    1    1    2    0    0  0.88537125370E-02  0.63525170511E-02  0.21582273062E-01  0.24177204328E-01  0.00000000000E+00 0.  1.
     999901    1    3    3    0    0 -0.11097587471E+00  0.54205784348E-01  0.29426902090E-01  0.88911183458E+00  0.88000000000E+00 0. -1.
        -11    1    4    4    0    0  0.12984191829E-01 -0.72525325696E-02  0.10728962843E-03  0.14881569077E-01  0.51100000000E-03 0.  1.
         11    1    4    4    0    0  0.89137970341E-01 -0.53305768829E-01 -0.51116464780E-01  0.11575939201E+00  0.51100000000E-03 0. -1.
</event>
<event>
 8    1  0.1183092E+005  0.1043930E+01  0.7957747E-01            NaN
         13   -1    0    0    0    0  0.00000000000E+00  0.00000000000E+00  0.74505805969E-08  0.10566000000E+00  0.10566000000E+00 0.  1.
     999900   -1    0    0    0    0 -0.00000000000E+00 -0.00000000000E+00 -0.74505805969E-08  0.93827000000E+00  0.93827000000E+00 0. -1.
     999902    2    1    2    0    0  0.10555495396E-01  0.86125312690E-02 -0.18837856613E-01  0.10206822255E+01  0.10204174373E+01 0.  0.
     999903    2    3    3    0    0 -0.11483851672E+00  0.47826627328E-01  0.31246587922E-01  0.12952014417E+00  0.17995757374E-01 0.  0.
         14    1    1    2    0    0 -0.10555495396E-01 -0.86125312690E-02  0.18837856613E-01  0.23247774510E-01  0.00000000000E+00 0.  1.
     999901    1    3    3    0    0  0.12539401212E+00 -0.39214096059E-01 -0.50084444535E-01  0.89116208132E+00  0.88000000000E+00 0. -1.
        -11    1    4    4    0    0 -0.29027050992E-01  0.39859540861E-02  0.84336670608E-02  0.30493366170E-01  0.51100000000E-03 0. -1.
         11    1    4    4    0    0 -0.85811465730E-01  0.43840673242E-01  0.22812920861E-01  0.99026777996E-01  0.51100000000E-03 0.  1.
</event>
<event>
 8    1  0.1183092E+005  0.1043930E+01  0.7957747E-01            NaN
         13   -1    0    0    0    0  0.00000000000E+00  0.00000000000E+00  0.74505805969E-08  0.10566000000E+00  0.10566000000E+00 0. -1.
     999900   -1    0    0    0    0 -0.00000000000E+00 -0.00000000000E+00 -0.74505805969E-08  0.93827000000E+00  0.93827000000E+00 0. -1.
     999902    2    1    2    0    0  0.14936830917E-01 -0.14174496222E-01  0.14659492695E-01  0.10186530147E+01  0.10183393532E+01 0.  0.
     999903    2    3    3    0    0  0.31696344687E-01 -0.11659274543E+00 -0.45438008827E-01  0.13051896581E+00  0.19288888921E-01 0.  0.
         14    1    1    2    0    0 -0.14936830917E-01  0.14174496222E-01 -0.14659492695E-01  0.25276985324E-01  0.00000000000E+00 0.  1.
     999901    1    3    3    0    0 -0.16759513770E-01  0.10241824921E+00  0.60097501523E-01  0.88813404887E+00  0.88000000000E+00 0.  1.
        -11    1    4    4    0    0  0.14015084743E-01 -0.33917668145E-01 -0.21971192193E-01  0.42776456377E-01  0.51100000000E-03 0.  1.
         11    1    4    4    0    0  0.17681259943E-01 -0.82675077284E-01 -0.23466816635E-01  0.87742509430E-01  0.51100000000E-03 0. -1.
</event>
<event>
 8    1  0.1183092E+005  0.1043930E+01  0.7957747E-01            NaN
         13   -1    0    0    0    0  0.00000000000E+00  0.00000000000E+00  0.74505805969E-08  0.10566000000E+00  0.10566000000E+00 0.  1.
     999900   -1    0    0    0    0 -0.00000000000E+00 -0.00000000000E+00 -0.74505805969E-08  0.93827000000E+00  0.93827000000E+00 0.  1.
     999902    2    1    2    0    0  0.18233512948E-01  0.79523488070E-02 -0.13554498389E-01  0.10198587459E+01  0.10195746350E+01 0.  0.
     999903    2    3    3    0    0 -0.16195346767E-01 -0.10739639022E-01 -0.12849041861E+00  0.13152040805E+00  0.20253418335E-01 0.  0.
         14    1    1    2    0    0 -0.18233512948E-01 -0.79523488070E-02  0.13554498389E-01  0.24071254071E-01  0.00000000000E+00 0.  1.
     999901    1    3    3    0    0  0.34428859714E-01  0.18691987829E-01  0.11493592023E+00  0.88833833788E+00  0.88000000000E+00 0. -1.
        -11    1    4    4    0    0 -0.15954422222E-01  0.12211448261E-02 -0.68394005114E-01  0.70242692429E-01  0.51100000000E-03 0.  1.
         11    1    4    4    0    0 -0.24092454431E-03 -0.11960783848E-01 -0.60096413501E-01  0.61277715620E-01  0.51100000000E-03 0. -1.
</event>
<event>
 8    1  0.1206504E+005  0.1043930E+01  0.7957747E-01            NaN
         13   -1    0    0    0    0  0.00000000000E+00  0.00000000000E+00  0.74505805969E-08  0.10566000000E+00  0.10566000000E+00 0.  1.
     999900   -1    0    0    0    0 -0.00000000000E+00 -0.00000000000E+00 -0.74505805969E-08  0.93827000000E+00  0.93827000000E+00 0. -1.
     999902    2    1    2    0    0 -0.16405405442E-01  0.15537801676E-01 -0.50470463478E-02  0.10207776073E+01  0.10205150123E+01 0.  0.
     999903    2    3    3    0    0 -0.50309006671E-01  0.50242913747E-01  0.10964090942E+00  0.13201035650E+00  0.18715198959E-01 0.  0.
         14    1    1    2    0    0  0.16405405442E-01 -0.15537801676E-01  0.50470463478E-02  0.23152392651E-01  0.00000000000E+00 0. -1.
     999901    1    3    3    0    0  0.33903601229E-01 -0.34705112070E-01 -0.11468795576E+00  0.88876725085E+00  0.88000000000E+00 0. -1.
        -11    1    4    4    0    0 -0.41873184797E-01  0.32292334589E-01  0.70507364202E-01  0.88134601638E-01  0.51100000000E-03 0. -1.
         11    1    4    4    0    0 -0.84358218744E-02  0.17950579158E-01  0.39133545214E-01  0.43875754863E-01  0.51100000000E-03 0.  1.
</event>
<event>
 8    1  0.1183092E+005  0.1043930E+01  0.7957747E-01            NaN
         13   -1    0    0    0    0  0.00000000000E+00  0.00000000000E+00  0.74505805969E-08  0.10566000000E+00  0.10566000000E+00 0.  1.
     999900   -1    0    0    0    0 -0.00000000000E+00 -0.00000000000E+00 -0.74505805969E-08  0.93827000000E+00  0.93827000000E+00 0. -1.
     999902    2    1    2    0    0 -0.92917919997E-02 -0.22555701749E-01  0.67224315511E-03  0.10195261275E+01  0.10192340142E+01 0.  0.
     999903    2    3    3    0    0 -0.74845710151E-03 -0.12941125204E+00  0.25649769058E-01  0.13266933302E+00  0.13978874379E-01 0.  0.
         14    1    1    2    0    0  0.92917919997E-02  0.22555701749E-01 -0.67224315511E-03  0.24403872456E-01  0.00000000000E+00 0. -1.
     999901    1    3    3    0    0 -0.85433348982E-02  0.10685555029E+00 -0.24977525903E-01  0.88685679453E+00  0.88000000000E+00 0.  1.
        -11    1    4    4    0    0  0.40940978698E-02 -0.45588845763E-01  0.14208921043E-01  0.47929730372E-01  0.51100000000E-03 0. -1.
         11    1    4    4    0    0 -0.48425549713E-02 -0.83822406273E-01  0.11440848015E-01  0.84739602645E-01  0.51100000000E-03 0.  1.
</event>
<event>
 8    1  0.1183092E+005  0.1043930E+01  0.7957747E-01            NaN
         13   -1    0    0    0    0  0.00000000000E+00  0.00000000000E+00  0.74505805969E-08  0.10566000000E+00  0.10566000000E+00 0.  1.
     999900   -1    0    0    0    0 -0.00000000000E+00 -0.00000000000E+00 -0.74505805969E-08  0.93827000000E+00  0.93827000000E+00 0.  1.
     999902    2    1    2    0    0  0.20373090312E-01  0.26086636347E-02  0.10769624588E-01  0.10207383474E+01  0.10204748508E+01 0.  0.
     999903    2    3    3    0    0 -0.24562877805E-01 -0.44140088281E-01 -0.11704723274E+00  0.12914323975E+00  0.20645564178E-01 0.  0.
         14    1    1    2    0    0 -0.20373090312E-01 -0.26086636347E-02 -0.10769624588E-01  0.23191652563E-01  0.00000000000E+00 0. -1.
     999901    1    3    3    0    0  0.44935968117E-01  0.46748751915E-01  0.12781685733E+00  0.89159510769E+00  0.88000000000E+00 0. -1.
        -11    1    4    4    0    0 -0.22687281248E-01 -0.43214863407E-01 -0.93282269952E-01  0.10528095819E+00  0.51100000000E-03 0.  1.
         11    1    4    4    0    0 -0.18755965567E-02 -0.92522487348E-03 -0.23764962792E-01  0.23862281555E-01  0.51100000000E-03 0. -1.
</event>
<event>
 8    1  0.1183092E+005  0.1043930E+01  0.7957747E-01            NaN
         13   -1    0    0    0    0  0.00000000000E+00  0.00000000000E+00  0.74505805969E-08  0.10566000000E+00  0.10566000000E+00 0. -1.
     999900   -1    0    0    0    0 -0.00000000000E+00 -0.00000000000E+00 -0.74505805969E-08  0.93827000000E+00  0.93827000000E+00 0.  1.
     999902    2    1    2    0    0  0.74521391602E-03  0.23067008824E-01  0.44581265628E-02  0.10204243170E+01  0.10201535520E+01 0.  0.
     999903    2    3    3    0    0  0.19718841507E-01  0.97165437981E-01 -0.85081635221E-01  0.13257976718E+00  0.22551163258E-01 0.  0.
         14    1    1    2    0    0 -0.74521391602E-03 -0.23067008824E-01 -0.44581265628E-02  0.23505682979E-01  0.00000000000E+00 0.  1.
     999901    1    3    3    0    0 -0.18973627591E-01 -0.74098429157E-01  0.89539761784E-01  0.88784454984E+00  0.88000000000E+00 0. -1.
        -11    1    4    4    0    0  0.94629199782E-02  0.47532417355E-01 -0.56318514363E-01  0.74302851461E-01  0.51100000000E-03 0.  1.
         11    1    4    4    0    0  0.10255921529E-01  0.49633020626E-01 -0.28763120858E-01  0.58276915715E-01  0.51100000000E-03 0. -1.
</event>
<event>
 8    1  0.1183092E+005  0.1043930E+01  0.7957747E-01            NaN
         13   -1    0    0    0    0  0.00000000000E+00  0.00000000000E+00  0.74505805969E-08  0.10566000000E+00  0.10566000000E+00 0. -1.
     999900   -1    0    0    0    0 -0.00000000000E+00 -0.00000000000E+00 -0.74505805969E-08  0.93827000000E+00  0.93827000000E+00 0. -1.
     999902    2    1    2    0    0  0.17182603978E-01  0.11483816782E-01 -0.10839440823E-01  0.10205930464E+01  0.10203261993E+01 0.  0.
     999903    2    3    3    0    0  0.61010305131E-01  0.11194244786E+00  0.30913998870E-01  0.13281145517E+00  0.20732542858E-01 0.  0.
         14    1    1    2    0    0 -0.17182603978E-01 -0.11483816782E-01  0.10839440823E-01  0.23336953630E-01  0.00000000000E+00 0. -1.
     999901    1    3    3    0    0 -0.43827701153E-01 -0.10045863108E+00 -0.41753439693E-01  0.88778159120E+00  0.88000000000E+00 0. -1.
        -11    1    4    4    0    0  0.33403809233E-01  0.41100609773E-01  0.16007017328E-01  0.55331368316E-01  0.51100000000E-03 0.  1.
         11    1    4    4    0    0  0.27606495898E-01  0.70841838087E-01  0.14906981542E-01  0.77480086854E-01  0.51100000000E-03 0. -1.
</event>
<event>
 8    1  0.1183092E+005  0.1043930E+01  0.7957747E-01            NaN
         13   -1    0    0    0    0  0.00000000000E+00  0.00000000000E+00  0.74505805969E-08  0.10566000000E+00  0.10566000000E+00 0.  1.
     999900   -1    0    0    0    0 -0.00000000000E+00 -0.00000000000E+00 -0.74505805969E-08  0.93827000000E+00  0.93827000000E+00 0.  1.
     999902    2    1    2    0    0  0.77334869690E-03 -0.15770102256E-01  0.17821615119E-01  0.10201202508E+01  0.10198423515E+01 0.  0.
     999903    2    3    3    0    0 -0.87190785735E-01 -0.96280052382E-01  0.13362053261E-01  0.13206652001E+00  0.19772193492E-01 0.  0.
         14    1    1    2    0    0 -0.77334869690E-03  0.15770102256E-01 -0.17821615119E-01  0.23809749239E-01  0.00000000000E+00 0.  1.
     999901    1    3    3    0    0  0.87964134432E-01  0.80509950125E-01  0.44595618580E-02  0.88805373075E+00  0.88000000000E+00 0.  1.
        -11    1    4    4    0    0 -0.24035982865E-02 -0.83178985676E-02 -0.20837914489E-02  0.89200913172E-02  0.51100000000E-03 0.  1.
         11    1    4    4    0    0 -0.84787187449E-01 -0.87962153814E-01  0.15445844710E-01  0.12314642869E+00  0.51100000000E-03 0. -1.
</event>
<event>
 8    1  0.1183092E+005  0.1043930E+01  0.7957747E-01            NaN
         13   -1    0    0    0    0  0.00000000000E+00  0.00000000000E+00  0.74505805969E-08  0.10566000000E+00  0.10566000000E+00 0. -1.
     999900   -1    0    0    0    0 -0.00000000000E+00 -0.00000000000E+00 -0.74505805969E-08  0.93827000000E+00  0.93827000000E+00 0. -1.
     999902    2    1    2    0    0 -0.15293387748E-01  0.90981326753E-02 -0.16519062529E-01  0.10196494902E+01  0.10193603582E+01 0.  0.
     999903    2    3    3    0    0 -0.26776733750E-01 -0.11247358555E+00  0.52470910047E-01  0.12854278158E+00  0.20068616777E-01 0.  0.
         14    1    1    2    0    0  0.15293387748E-01 -0.90981326753E-02  0.16519062529E-01  0.24280509752E-01  0.00000000000E+00 0. -1.
     999901    1    3    3    0    0  0.11483346003E-01  0.12157171823E+00 -0.68989972577E-01  0.89110670866E+00  0.88000000000E+00 0.  1.
        -11    1    4    4    0    0 -0.14773896971E-01 -0.69759451869E-01  0.21669378139E-01  0.74528331705E-01  0.51100000000E-03 0. -1.
         11    1    4    4    0    0 -0.12002836779E-01 -0.42714133682E-01  0.30801531908E-01  0.54014449880E-01  0.51100000000E-03 0.  1.
</event>
<event>
 8    1  0.1183092E+005  0.1043930E+01  0.7957747E-01            NaN
         13   -1    0    0    0    0  0.00000000000E+00  0.00000000000E+00  0.74505805969E-08  0.10566000000E+00  0.10566000000E+00 0. -1.
     999900   -1    0    0    0    0 -0.00000000000E+00 -0.00000000000E+00 -0.74505805969E-08  0.93827000000E+00  0.93827000000E+00 0. -1.
     999902    2    1    2    0    0 -0.17084994296E-01  0.11283213150E-01 -0.12484178715E-01  0.10199495361E+01  0.10196675898E+01 0.  0.
     999903    2    3    3    0    0 -0.69287255321E-01 -0.40243976446E-01  0.10006833075E+00  0.12975394262E+00  0.20052765796E-01 0.  0.
         14    1    1    2    0    0  0.17084994296E-01 -0.11283213150E-01  0.12484178715E-01  0.23980463867E-01  0.00000000000E+00 0.  1.
     999901    1    3    3    0    0  0.52202261026E-01  0.51527189596E-01 -0.11255250947E+00  0.89019559351E+00  0.88000000000E+00 0. -1.
        -11    1    4    4    0    0 -0.42145243307E-01 -0.35163634594E-01  0.69384049814E-01  0.88470956934E-01  0.51100000000E-03 0.  1.
         11    1    4    4    0    0 -0.27142012015E-01 -0.50803418515E-02  0.30684280937E-01  0.41282985686E-01  0.51100000000E-03 0. -1.
</event>
<event>
 8    1  0.1183092E+005  0.1043930E+01  0.7957747E-01            NaN
         13   -1    0    0    0    0  0.00000000000E+00  0.00000000000E+00  0.74505805969E-08  0.10566000000E+00  0.10566000000E+00 0. -1.
     999900   -1    0    0    0    0 -0.00000000000E+00 -0.00000000000E+00 -0.74505805969E-08  0.93827000000E+00  0.93827000000E+00 0.  1.
     999902    2    1    2    0    0 -0.11982617414E-01  0.13496628571E-01  0.14629515255E-01  0.10206971608E+01  0.10204327166E+01 0.  0.
     999903    2    3    3    0    0  0.10899380505E+00  0.57324369483E-01 -0.36131426265E-01  0.12989255881E+00  0.20021588186E-01 0.  0.
         14    1    1    2    0    0  0.11982617414E-01 -0.13496628571E-01 -0.14629515255E-01  0.23232839248E-01  0.00000000000E+00 0.  1.
     999901    1    3    3    0    0 -0.12097642246E+00 -0.43827740911E-01  0.50760941520E-01  0.89080460195E+00  0.88000000000E+00 0. -1.
        -11    1    4    4    0    0  0.61424351823E-01  0.33082402961E-01 -0.10113001222E-01  0.70497732569E-01  0.51100000000E-03 0.  1.
         11    1    4    4    0    0  0.47569453226E-01  0.24241966521E-01 -0.26018425043E-01  0.59394826237E-01  0.51100000000E-03 0. -1.
</event>
<event>
 7    1  0.1183092E+005  0.1043930E+01  0.7957747E-01            NaN
         13   -1    0    0    0    0  0.00000000000E+00  0.00000000000E+00  0.74505805969E-08  0.10566000000E+00  0.10566000000E+00 0. -1.
     999900   -1    0    0    0    0 -0.00000000000E+00 -0.00000000000E+00 -0.74505805969E-08  0.93827000000E+00  0.93827000000E+00 0. -1.
     999902    2    1    2    0    0  0.12832803324E-02 -0.80596349767E-02 -0.22900128927E-01  0.10196190883E+01  0.10193292229E+01 0.  0.
         14    1    1    2    0    0 -0.12832803324E-02  0.80596349767E-02  0.22900128927E-01  0.24310911732E-01  0.00000000000E+00 0. -1.
     999901    1    3    3    0    0  0.34373684915E-03  0.83318780804E-01  0.66240813530E-01  0.88641411472E+00  0.88000000000E+00 0.  1.
        -11    1    3    3    0    0 -0.29949187802E-02 -0.74093492923E-01 -0.47815345686E-01  0.88234820995E-01  0.51100000000E-03 0.  1.
         11    1    3    3    0    0  0.39344622634E-02 -0.17284922858E-01 -0.41325596771E-01  0.44970152557E-01  0.51100000000E-03 0. -1.
</event>
<event>
 8    1  0.1183092E+005  0.1043930E+01  0.7957747E-01            NaN
         13   -1    0    0    0    0  0.00000000000E+00  0.00000000000E+00  0.74505805969E-08  0.10566000000E+00  0.10566000000E+00 0.  1.
     999900   -1    0    0    0    0 -0.00000000000E+00 -0.00000000000E+00 -0.74505805969E-08  0.93827000000E+00  0.93827000000E+00 0.  1.
     999902    2    1    2    0    0 -0.18649578042E-01  0.14367922469E-01  0.27983362422E-02  0.10202218866E+01  0.10199463825E+01 0.  0.
     999903    2    3    3    0    0 -0.55244351488E-01 -0.11547907437E+00 -0.88827926103E-02  0.12986472856E+00  0.19964687099E-01 0.  0.
         14    1    1    2    0    0  0.18649578042E-01 -0.14367922469E-01 -0.27983362422E-02  0.23708113442E-01  0.00000000000E+00 0.  1.
     999901    1    3    3    0    0  0.36594773446E-01  0.12984699684E+00  0.11681128853E-01  0.89035715800E+00  0.88000000000E+00 0. -1.
        -11    1    4    4    0    0 -0.31649686261E-01 -0.44036960829E-01 -0.13561674458E-02  0.54249948116E-01  0.51100000000E-03 0. -1.
         11    1    4    4    0    0 -0.23594665228E-01 -0.71442113537E-01 -0.75266251645E-02  0.75614780442E-01  0.51100000000E-03 0.  1.
</event>
<event>
 8    1  0.1183092E+005  0.1043930E+01  0.7957747E-01            NaN
         13   -1    0    0    0    0  0.00000000000E+00  0.00000000000E+00  0.74505805969E-08  0.10566000000E+00  0.10566000000E+00 0. -1.
     999900   -1    0    0    0    0 -0.00000000000E+00 -0.00000000000E+00 -0.74505805969E-08  0.93827000000E+00  0.93827000000E+00 0.  1.
     999902    2    1    2    0    0 -0.36522772786E-02  0.52464386641E-02  0.22855031567E-01  0.10201978127E+01  0.10199217422E+01 0.  0.
     999903    2    3    3    0    0 -0.12312489381E+00  0.12155157996E-01 -0.35236338809E-01  0.13020003524E+00  0.20073919917E-01 0.  0.
         14    1    1    2    0    0  0.36522772786E-02 -0.52464386641E-02 -0.22855031567E-01  0.23732187339E-01  0.00000000000E+00 0.  1.
     999901    1    3    3    0    0  0.11947261654E+00 -0.69087193318E-02  0.58091370376E-01  0.88999777742E+00  0.88000000000E+00 0. -1.
        -11    1    4    4    0    0 -0.28695025727E-01  0.20662031681E-02 -0.17233839256E-01  0.33540125723E-01  0.51100000000E-03 0.  1.
         11    1    4    4    0    0 -0.94429868087E-01  0.10088954828E-01 -0.18002499553E-01  0.96659909516E-01  0.51100000000E-03 0. -1.
</event>
<event>
 8    1  0.1183092E+005  0.1043930E+01  0.7957747E-01            NaN
         13   -1    0    0    0    0  0.00000000000E+00  0.00000000000E+00  0.74505805969E-08  0.10566000000E+00  0.10566000000E+00 0. -1.
     999900   -1    0    0    0    0 -0.00000000000E+00 -0.00000000000E+00 -0.74505805969E-08  0.93827000000E+00  0.93827000000E+00 0.  1.
     999902    2    1    2    0    0  0.21815359393E-01 -0.49703641837E-02  0.69091646116E-02  0.10205131048E+01  0.10202444051E+01 0.  0.
     999903    2    3    3    0    0  0.50295782956E-01  0.71018060929E-01 -0.95659055858E-01  0.13084709154E+00  0.19926756805E-01 0.  0.
         14    1    1    2    0    0 -0.21815359393E-01  0.49703641837E-02 -0.69091646116E-02  0.23416895208E-01  0.00000000000E+00 0.  1.
     999901    1    3    3    0    0 -0.28480423563E-01 -0.75988425113E-01  0.10256822047E+00  0.88966601325E+00  0.88000000000E+00 0. -1.
        -11    1    4    4    0    0  0.82031436320E-02  0.27615502075E-01 -0.30681604833E-01  0.42089541651E-01  0.51100000000E-03 0. -1.
         11    1    4    4    0    0  0.42092639324E-01  0.43402558855E-01 -0.64977451024E-01  0.88757549893E-01  0.51100000000E-03 0.  1.
</event>
<event>
 8    1  0.1183092E+005  0.1043930E+01  0.7957747E-01            NaN
         13   -1    0    0    0    0  0.00000000000E+00  0.00000000000E+00  0.74505805969E-08  0.10566000000E+00  0.10566000000E+00 0. -1.
     999900   -1    0    0    0    0 -0.00000000000E+00 -0.00000000000E+00 -0.74505805969E-08  0.93827000000E+00  0.93827000000E+00 0.  1.
     999902    2    1    2    0    0  0.30086178926E-02  0.15115949202E-01 -0.17341526136E-01  0.10207293054E+01  0.10204656009E+01 0.  0.
     999903    2    3    3    0    0 -0.99321972927E-01 -0.68197828908E-01 -0.46406800137E-01  0.13041614386E+00  0.18411444949E-01 0.  0.
         14    1    1    2    0    0 -0.30086178926E-02 -0.15115949202E-01  0.17341526136E-01  0.23200694615E-01  0.00000000000E+00 0. -1.
     999901    1    3    3    0    0  0.10233059082E+00  0.83313778110E-01  0.29065274001E-01  0.89031316153E+00  0.88000000000E+00 0.  1.
        -11    1    4    4    0    0 -0.19976191540E-01 -0.71015025021E-02 -0.36153544765E-02  0.21513053601E-01  0.51100000000E-03 0.  1.
         11    1    4    4    0    0 -0.79345781387E-01 -0.61096326406E-01 -0.42791445661E-01  0.10890309025E+00  0.51100000000E-03 0. -1.
</event>
<event>
 8    1  0.1183092E+005  0.1043930E+01  0.7957747E-01            NaN
         13   -1    0    0    0    0  0.00000000000E+00  0.00000000000E+00  0.74505805969E-08  0.10566000000E+00  0.10566000000E+00 0.  1.
     999900   -1    0    0    0    0 -0.00000000000E+00 -0.00000000000E+00 -0.74505805969E-08  0.93827000000E+00  0.93827000000E+00 0. -1.
     999902    2    1    2    0    0 -0.38610759281E-02 -0.13871549593E-01 -0.19583576029E-01  0.10196227121E+01  0.10193329342E+01 0.  0.
     999903    2    3    3    0    0 -0.83886174473E-01 -0.99334521205E-01 -0.56668757065E-03  0.13166461738E+00  0.20760851726E-01 0.  0.
         14    1    1    2    0    0  0.38610759281E-02  0.13871549593E-01  0.19583576029E-01  0.24307287909E-01  0.00000000000E+00 0.  1.
     999901    1    3    3    0    0  0.80025098545E-01  0.85462971612E-01 -0.19016888458E-01  0.88795809471E+00  0.88000000000E+00 0. -1.
        -11    1    4    4    0    0 -0.80521161041E-01 -0.89419991980E-01  0.35957022496E-02  0.12038597317E+00  0.51100000000E-03 0. -1.
         11    1    4    4    0    0 -0.33650134325E-02 -0.99145292250E-02 -0.41623898202E-02  0.11278644208E-01  0.51100000000E-03 0.  1.
</event>
<event>
 8    1  0.1183092E+005  0.1043930E+01  0.7957747E-01            NaN
         13   -1    0    0    0    0  0.00000000000E+00  0.00000000000E+00  0.74505805969E-08  0.10566000000E+00  0.10566000000E+00 0.  1.
     999900   -1    0    0    0    0 -0.00000000000E+00 -0.00000000000E+00 -0.74505805969E-08  0.93827000000E+00  0.93827000000E+00 0.  1.
     999902    2    1    2    0    0  0.67662991373E-02  0.18131585992E-01  0.14108044752E-01  0.10199805920E+01  0.10196993841E+01 0.  0.
     999903    2    3    3    0    0 -0.84317321765E-01  0.64289027120E-01  0.76046219408E-01  0.13191354905E+00  0.19382135598E-01 0.  0.
         14    1    1    2    0    0 -0.67662991373E-02 -0.18131585992E-01 -0.14108044752E-01  0.23949407953E-01  0.00000000000E+00 0. -1.
     999901    1    3    3    0    0  0.91083620903E-01 -0.46157441128E-01 -0.61938174656E-01  0.88806704299E+00  0.88000000000E+00 0.  1.
        -11    1    4    4    0    0 -0.12778927557E-01  0.18710049107E-01  0.12149895866E-01  0.25714743196E-01  0.51100000000E-03 0. -1.
         11    1    4    4    0    0 -0.71538394208E-01  0.45578978012E-01  0.63896323542E-01  0.10619880586E+00  0.51100000000E-03 0.  1.
</event>
<event>
 8    1  0.1183092E+005  0.1043930E+01  0.7957747E-01            NaN
         13   -1    0    0    0    0  0.00000000000E+00  0.00000000000E+00  0.74505805969E-08  0.10566000000E+00  0.10566000000E+00 0. -1.
     999900   -1    0    0    0    0 -0.00000000000E+00 -0.00000000000E+00 -0.74505805969E-08  0.93827000000E+00  0.93827000000E+00 0.  1.
     999902    2    1    2    0    0  0.11072637350E-01  0.64951925483E-02  0.19849289086E-01  0.10202913642E+01  0.10200174914E+01 0.  0.
     999903    2    3    3    0    0 -0.93685998411E-01 -0.84706969437E-01  0.19802488024E-01  0.12939731423E+00  0.19979725464E-01 0.  0.
         14    1    1    2    0    0 -0.11072637350E-01 -0.64951925483E-02 -0.19849289086E-01  0.23638635776E-01  0.00000000000E+00 0.  1.
     999901    1    3    3    0    0  0.10475863576E+00  0.91202161985E-01  0.46801061498E-04  0.89089404999E+00  0.88000000000E+00 0.  1.
        -11    1    4    4    0    0 -0.39146624855E-01 -0.29267123552E-01  0.16375998246E-01  0.51550530532E-01  0.51100000000E-03 0.  1.
         11    1    4    4    0    0 -0.54539373556E-01 -0.55439845885E-01  0.34264897786E-02  0.77846783703E-01  0.51100000000E-03 0. -1.
</event>
<event>
 8    1  0.1183092E+005  0.1043930E+01  0.7957747E-01            NaN
         13   -1    0    0    0    0  0.00000000000E+00  0.00000000000E+00  0.74505805969E-08  0.10566000000E+00  0.10566000000E+00 0.  1.
     999900   -1    0    0    0    0 -0.00000000000E+00 -0.00000000000E+00 -0.74505805969E-08  0.93827000000E+00  0.93827000000E+00 0. -1.
     999902    2    1    2    0    0 -0.22265456428E-02  0.31409203050E-02 -0.23061796026E-01  0.10205490393E+01  0.10202811732E+01 0.  0.
     999903    2    3    3    0    0  0.83023581362E-01  0.18182843811E-01  0.94384238646E-01  0.12853591461E+00  0.19737425575E-01 0.  0.
         14    1    1    2    0    0  0.22265456428E-02 -0.31409203050E-02  0.23061796026E-01  0.23380960669E-01  0.00000000000E+00 0.  1.
     999901    1    3    3    0    0 -0.85250127005E-01 -0.15041923506E-01 -0.11744603467E+00  0.89201312472E+00  0.88000000000E+00 0. -1.
        -11    1    4    4    0    0  0.63510686363E-01  0.88474733138E-02  0.80109730248E-01  0.10261439990E+00  0.51100000000E-03 0. -1.
         11    1    4    4    0    0  0.19512894999E-01  0.93353704969E-02  0.14274508397E-01  0.25921514704E-01  0.51100000000E-03 0.  1.
</event>
<event>
 8    1  0.1183092E+005  0.1043930E+01  0.7957747E-01            NaN
         13   -1    0    0    0    0  0.00000000000E+00  0.00000000000E+00  0.74505805969E-08  0.10566000000E+00  0.10566000000E+00 0. -1.
     999900   -1    0    0    0    0 -0.00000000000E+00 -0.00000000000E+00 -0.74505805969E-08  0.93827000000E+00  0.93827000000E+00 0.  1.
     999902    2    1    2    0    0 -0.16348281826E-02  0.10229586858E-01 -0.20956305064E-01  0.10205530063E+01  0.10202852321E+01 0.  0.
     999903    2    3    3    0    0  0.21200736917E-01  0.81495320258E-01  0.96555460882E-01  0.12959325252E+00  0.19506296521E-01 0.  0.
         14    1    1    2    0    0  0.16348281826E-02 -0.10229586858E-01  0.20956305064E-01  0.23376993656E-01  0.00000000000E+00 0. -1.
     999901    1    3    3    0    0 -0.22835565099E-01 -0.71265733400E-01 -0.11751176595E+00  0.89095975382E+00  0.88000000000E+00 0.  1.
        -11    1    4    4    0    0  0.15133956921E-01  0.39886382975E-01  0.61480097944E-01  0.74833306509E-01  0.51100000000E-03 0.  1.
         11    1    4    4    0    0  0.60667799960E-02  0.41608937284E-01  0.35075362938E-01  0.54759946015E-01  0.51100000000E-03 0. -1.
</event>
<event>
 8    1  0.1183092E+005  0.1043930E+01  0.7957747E-01            NaN
         13   -1    0    0    0    0  0.00000000000E+00  0.00000000000E+00  0.74505805969E-08  0.10566000000E+00  0.10566000000E+00 0.  1.
     999900   -1    0    0    0    0 -0.00000000000E+00 -0.00000000000E+00 -0.74505805969E-08  0.93827000000E+00  0.93827000000E+00 0.  1.
     999902    2    1    2    0    0  0.21230489630E-01  0.36507771363E-02  0.76386983865E-02  0.10210736753E+01  0.10208178285E+01 0.  0.
     999903    2    3    3    0    0 -0.55649998981E-01  0.45172400269E-01  0.10796868999E+00  0.13107324729E+00  0.19633899393E-01 0.  0.
         14    1    1    2    0    0 -0.21230489630E-01 -0.36507771363E-02 -0.76386983865E-02  0.22856324654E-01  0.00000000000E+00 0. -1.
     999901    1    3    3    0    0  0.76880488612E-01 -0.41521623133E-01 -0.10032999160E+00  0.89000042805E+00  0.88000000000E+00 0.  1.
        -11    1    4    4    0    0 -0.29246309614E-01  0.13680898805E-01  0.57904834564E-01  0.66300411801E-01  0.51100000000E-03 0. -1.
         11    1    4    4    0    0 -0.26403689368E-01  0.31491501464E-01  0.50063855427E-01  0.64772835494E-01  0.51100000000E-03 0.  1.
</event>
<event>
 8    1  0.1183092E+005  0.1043930E+01  0.7957747E-01            NaN
         13   -1    0    0    0    0  0.00000000000E+00  0.00000000000E+00  0.74505805969E-08  0.10566000000E+00  0.10566000000E+00 0. -1.
     999900   -1    0    0    0    0 -0.00000000000E+00 -0.00000000000E+00 -0.74505805969E-08  0.93827000000E+00  0.93827000000E+00 0. -1.
     999902    2    1    2    0    0  0.11709031153E-01 -0.60418414667E-02 -0.14996343308E-01  0.10239676461E+01  0.10237730436E+01 0.  0.
     999903    2    3    3    0    0 -0.14976812258E-01  0.80675523239E-01  0.10100935867E+00  0.13172924836E+00  0.20417134477E-01 0.  0.
         14    1    1    2    0    0 -0.11709031153E-01  0.60418414667E-02  0.14996343308E-01  0.19962353856E-01  0.00000000000E+00 0. -1.
     999901    1    3    3    0    0  0.26685843411E-01 -0.86717364705E-01 -0.11600570198E+00  0.89223839778E+00  0.88000000000E+00 0. -1.
        -11    1    4    4    0    0  0.46254201718E-02  0.92833949598E-02  0.10094549989E-01  0.14482299342E-01  0.51100000000E-03 0. -1.
         11    1    4    4    0    0 -0.19602232429E-01  0.71392128279E-01  0.90914808682E-01  0.11724694902E+00  0.51100000000E-03 0.  1.
</event>
<event>
 8    1  0.1183092E+005  0.1043930E+01  0.7957747E-01            NaN
         13   -1    0    0    0    0  0.00000000000E+00  0.00000000000E+00  0.74505805969E-08  0.10566000000E+00  0.10566000000E+00 0.  1.
     999900   -1    0    0    0    0 -0.00000000000E+00 -0.00000000000E+00 -0.74505805969E-08  0.93827000000E+00  0.93827000000E+00 0. -1.
     999902    2    1    2    0    0  0.14677671384E-01  0.14918155921E-01 -0.10862276736E-01  0.10203508891E+01  0.10200784100E+01 0.  0.
     999903    2    3    3    0    0 -0.44448016736E-01 -0.79110196089E-01  0.87883798565E-01  0.12788914465E+00  0.19950487531E-01 0.  0.
         14    1    1    2    0    0 -0.14677671384E-01 -0.14918155921E-01  0.10862276736E-01  0.23579110866E-01  0.00000000000E+00 0. -1.
     999901    1    3    3    0    0  0.59125688120E-01  0.94028352009E-01 -0.98746075301E-01  0.89246174448E+00  0.88000000000E+00 0. -1.
        -11    1    4    4    0    0 -0.23372043997E-01 -0.36861797148E-01  0.55617524865E-01  0.70700882050E-01  0.51100000000E-03 0. -1.
         11    1    4    4    0    0 -0.21075972739E-01 -0.42248398941E-01  0.32266273700E-01  0.57188262602E-01  0.51100000000E-03 0.  1.
</event>
<event>
 8    1  0.1183092E+005  0.1043930E+01  0.7957747E-01            NaN
         13   -1    0    0    0    0  0.00000000000E+00  0.00000000000E+00  0.74505805969E-08  0.10566000000E+00  0.10566000000E+00 0. -1.
     999900   -1    0    0    0    0 -0.00000000000E+00 -0.00000000000E+00 -0.74505805969E-08  0.93827000000E+00  0.93827000000E+00 0. -1.
     999902    2    1    2    0    0  0.13334564174E-01 -0.10949708283E-01 -0.16881432075E-01  0.10197910385E+01  0.10195053079E+01 0.  0.
     999903    2    3    3    0    0  0.88470633990E-01  0.93556998131E-01 -0.39764460991E-02  0.13033411468E+00  0.19778886432E-01 0.  0.
         14    1    1    2    0    0 -0.13334564174E-01  0.10949708283E-01  0.16881432075E-01  0.24138961495E-01  0.00000000000E+00 0. -1.
     999901    1    3    3    0    0 -0.75136069817E-01 -0.10450670641E+00 -0.12904985976E-01  0.88945692382E+00  0.88000000000E+00 0.  1.
        -11    1    4    4    0    0  0.15840491740E-01  0.27422347121E-01 -0.51963061775E-02  0.32096246184E-01  0.51100000000E-03 0.  1.
         11    1    4    4    0    0  0.72630142250E-01  0.66134651010E-01  0.12198600784E-02  0.98237868498E-01  0.51100000000E-03 0. -1.
</event>
<event>
 8    1  0.1183092E+005  0.1043930E+01  0.7957747E-01            NaN
         13   -1    0    0    0    0  0.00000000000E+00  0.00000000000E+00  0.74505805969E-08  0.10566000000E+00  0.10566000000E+00 0. -1.
     999900   -1    0    0    0    0 -0.00000000000E+00 -0.00000000000E+00 -0.74505805969E-08  0.93827000000E+00  0.93827000000E+00 0.  1.
     999902    2    1    2    0    0  0.16337008678E-01  0.12105992546E-02 -0.17527158249E-01  0.10199390709E+01  0.10196568755E+01 0.  0.
     999903    2    3    3    0    0 -0.74178513313E-01 -0.10300922046E+00 -0.12470669059E-01  0.12916390362E+00  0.20357924163E-01 0.  0.
         14    1    1    2    0    0 -0.16337008678E-01 -0.12105992546E-02  0.17527158249E-01  0.23990929107E-01  0.00000000000E+00 0. -1.
     999901    1    3    3    0    0  0.90515521991E-01  0.10421981971E+00 -0.50564891899E-02  0.89077516727E+00  0.88000000000E+00 0.  1.
        -11    1    4    4    0    0 -0.55385332060E-01 -0.79661909727E-01 -0.88979424320E-03  0.97028901486E-01  0.51100000000E-03 0. -1.
         11    1    4    4    0    0 -0.18793181254E-01 -0.23347310729E-01 -0.11580874816E-01  0.32135002138E-01  0.51100000000E-03 0.  1.
</event>
<event>
 8    1  0.1183092E+005  0.1043930E+01  0.7957747E-01            NaN
         13   -1    0    0    0    0  0.00000000000E+00  0.00000000000E+00  0.74505805969E-08  0.10566000000E+00  0.10566000000E+00 0. -1.
     999900   -1    0    0    0    0 -0.00000000000E+00 -0.00000000000E+00 -0.74505805969E-08  0.93827000000E+00  0.93827000000E+00 0. -1.
     999902    2    1    2    0    0 -0.11482400810E-01  0.17466261097E-02  0.20767153742E-01  0.10201356539E+01  0.10198581183E+01 0.  0.
     999903    2    3    3    0    0 -0.99138975030E-01 -0.81081430016E-01 -0.20101426240E-01  0.13097065083E+00  0.18614762351E-01 0.  0.
         14    1    1    2    0    0  0.11482400810E-01 -0.17466261097E-02 -0.20767153742E-01  0.23794346087E-01  0.00000000000E+00 0.  1.
     999901    1    3    3    0    0  0.87656574220E-01  0.82828056126E-01  0.40868579983E-01  0.88916500309E+00  0.88000000000E+00 0. -1.
        -11    1    4    4    0    0 -0.26367183055E-01 -0.23973382440E-01 -0.13908451265E-01  0.38257777581E-01  0.51100000000E-03 0.  1.
         11    1    4    4    0    0 -0.72771791975E-01 -0.57108047576E-01 -0.61929749757E-02  0.92712873245E-01  0.51100000000E-03 0. -1.
</event>
<event>
 8    1  0.1183092E+005  0.1043930E+01  0.7957747E-01            NaN
         13   -1    0    0    0    0  0.00000000000E+00  0.00000000000E+00  0.74505805969E-08  0.10566000000E+00  0.10566000000E+00 0. -1.
     999900   -1    0    0    0    0 -0.00000000000E+00 -0.00000000000E+00 -0.74505805969E-08  0.93827000000E+00  0.93827000000E+00 0. -1.
     999902    2    1    2    0    0 -0.65383736346E-02 -0.12141259390E-01 -0.83890924008E-02  0.10277888296E+01  0.10276620753E+01 0.  0.
     999903    2    3    3    0    0  0.91670512470E-01 -0.43959886228E-01 -0.90840491414E-01  0.13792611915E+00  0.20872589889E-01 0.  0.
         14    1    1    2    0    0  0.65383736346E-02  0.12141259390E-01  0.83890924008E-02  0.16141170363E-01  0.00000000000E+00 0.  1.
     999901    1    3    3    0    0 -0.98208886104E-01  0.31818626837E-01  0.82451399013E-01  0.88986271049E+00  0.88000000000E+00 0.  1.
        -11    1    4    4    0    0  0.78272759072E-01 -0.29916040321E-01 -0.79118715301E-01  0.11524593925E+00  0.51100000000E-03 0. -1.
         11    1    4    4    0    0  0.13397753398E-01 -0.14043845907E-01 -0.11721776113E-01  0.22680179898E-01  0.51100000000E-03 0.  1.
</event>
<event>
 8    1  0.1183092E+005  0.1043930E+01  0.7957747E-01            NaN
         13   -1    0    0    0    0  0.00000000000E+00  0.00000000000E+00  0.74505805969E-08  0.10566000000E+00  0.10566000000E+00 0. -1.
     999900   -1    0    0    0    0 -0.00000000000E+00 -0.00000000000E+00 -0.74505805969E-08  0.93827000000E+00  0.93827000000E+00 0.  1.
     999902    2    1    2    0    0 -0.11261553001E-01  0.50206852406E-03 -0.21104326518E-01  0.10200037122E+01  0.10197230534E+01 0.  0.
     999903    2    3    3    0    0  0.12656696063E+00  0.12375417651E-01  0.66273572010E-02  0.12876484308E+00  0.19081836016E-01 0.  0.
         14    1    1    2    0    0  0.11261553001E-01 -0.50206852406E-03  0.21104326518E-01  0.23926287772E-01  0.00000000000E+00 0. -1.
     999901    1    3    3    0    0 -0.13782851363E+00 -0.11873349127E-01 -0.27731683719E-01  0.89123886914E+00  0.88000000000E+00 0.  1.
        -11    1    4    4    0    0  0.12880074913E-01  0.60488298152E-02  0.43116395096E-02  0.14877366304E-01  0.51100000000E-03 0. -1.
         11    1    4    4    0    0  0.11368688572E+00  0.63265878356E-02  0.23157176915E-02  0.11388747678E+00  0.51100000000E-03 0.  1.
</event>
<event>
 8    1  0.1194920E+005  0.1043930E+01  0.7957747E-01            NaN
         13   -1    0    0    0    0  0.00000000000E+00  0.00000000000E+00  0.74505805969E-08  0.10566000000E+00  0.10566000000E+00 0. -1.
     999900   -1    0    0    0    0 -0.00000000000E+00 -0.00000000000E+00 -0.74505805969E-08  0.93827000000E+00  0.93827000000E+00 0. -1.
     999902    2    1    2    0    0 -0.13027388415E-01 -0.19229521691E-01 -0.37240173017E-02  0.10204064871E+01  0.10201353064E+01 0.  0.
     999903    2    3    3    0    0  0.70918337931E-01  0.78339506836E-01  0.69774336545E-01  0.12801161470E+00  0.18762368504E-01 0.  0.
         14    1    1    2    0    0  0.13027388415E-01  0.19229521691E-01  0.37240173017E-02  0.23523512881E-01  0.00000000000E+00 0. -1.
     999901    1    3    3    0    0 -0.83945726346E-01 -0.97569028527E-01 -0.73498353847E-01  0.89239487242E+00  0.88000000000E+00 0. -1.
        -11    1    4    4    0    0  0.36801451769E-01  0.40760536730E-01  0.47382788621E-01  0.72533840277E-01  0.51100000000E-03 0.  1.
         11    1    4    4    0    0  0.34116886162E-01  0.37578970105E-01  0.22391547924E-01  0.55477774424E-01  0.51100000000E-03 0. -1.
</event>
<event>
 8    1  0.1183092E+005  0.1043930E+01  0.7957747E-01            NaN
         13   -1    0    0    0    0  0.00000000000E+00  0.00000000000E+00  0.74505805969E-08  0.10566000000E+00  0.10566000000E+00 0.  1.
     999900   -1    0    0    0    0 -0.00000000000E+00 -0.00000000000E+00 -0.74505805969E-08  0.93827000000E+00  0.93827000000E+00 0. -1.
     999902    2    1    2    0    0  0.47890609523E-02  0.23556170917E-01 -0.79357270344E-03  0.10198788451E+01  0.10195952141E+01 0.  0.
     999903    2    3    3    0    0  0.11525765513E-02  0.13125833100E+00 -0.12929372855E-01  0.13322205868E+00  0.18731533498E-01 0.  0.
         14    1    1    2    0    0 -0.47890609523E-02 -0.23556170917E-01  0.79357270344E-03  0.24051154873E-01  0.00000000000E+00 0. -1.
     999901    1    3    3    0    0  0.36364844010E-02 -0.10770216008E+00  0.12135800151E-01  0.88665678645E+00  0.88000000000E+00 0.  1.
        -11    1    4    4    0    0  0.90263099570E-02  0.43887771382E-01 -0.62333873316E-02  0.45240766869E-01  0.51100000000E-03 0.  1.
         11    1    4    4    0    0 -0.78737334057E-02  0.87370559619E-01 -0.66959855231E-02  0.87981291812E-01  0.51100000000E-03 0. -1.
</event>
<event>
 8    1  0.1183092E+005  0.1043930E+01  0.7957747E-01            NaN
         13   -1    0    0    0    0  0.00000000000E+00  0.00000000000E+00  0.74505805969E-08  0.10566000000E+00  0.10566000000E+00 0.  1.
     999900   -1    0    0    0    0 -0.00000000000E+00 -0.00000000000E+00 -0.74505805969E-08  0.93827000000E+00  0.93827000000E+00 0.  1.
     999902    2    1    2    0    0 -0.10882396289E-01 -0.19407930577E-01  0.19194667653E-03  0.10216784571E+01  0.10214361157E+01 0.  0.
     999903    2    3    3    0    0  0.17178065466E-01  0.35273676293E-01  0.12340086967E+00  0.13097204848E+00  0.19661756661E-01 0.  0.
         14    1    1    2    0    0  0.10882396289E-01  0.19407930577E-01 -0.19194667653E-03  0.22251542908E-01  0.00000000000E+00 0. -1.
     999901    1    3    3    0    0 -0.28060461755E-01 -0.54681606870E-01 -0.12320892299E+00  0.89070640862E+00  0.88000000000E+00 0.  1.
        -11    1    4    4    0    0  0.12199975368E-02  0.13856051604E-01  0.21379892053E-01  0.25511555524E-01  0.51100000000E-03 0. -1.
         11    1    4    4    0    0  0.15958067929E-01  0.21417624689E-01  0.10202097761E+00  0.10546049295E+00  0.51100000000E-03 0.  1.
</event>
<event>
 8    1  0.1183092E+005  0.1043930E+01  0.7957747E-01            NaN
         13   -1    0    0    0    0  0.00000000000E+00  0.00000000000E+00  0.74505805969E-08  0.10566000000E+00  0.10566000000E+00 0. -1.
     999900   -1    0    0    0    0 -0.00000000000E+00 -0.00000000000E+00 -0.74505805969E-08  0.93827000000E+00  0.93827000000E+00 0.  1.
     999902    2    1    2    0    0  0.86380116515E-02 -0.20058728164E-01  0.83317471997E-02  0.10205551025E+01  0.10202873769E+01 0.  0.
     999903    2    3    3    0    0  0.56091678167E-01  0.11293769658E+00 -0.18007009999E-01  0.12890851917E+00  0.19797834200E-01 0.  0.
         14    1    1    2    0    0 -0.86380116515E-02  0.20058728164E-01 -0.83317471997E-02  0.23374897481E-01  0.00000000000E+00 0.  1.
     999901    1    3    3    0    0 -0.47453666515E-01 -0.13299642474E+00  0.26338757198E-01  0.89164658334E+00  0.88000000000E+00 0. -1.
        -11    1    4    4    0    0  0.20699140712E-01  0.34584666134E-01  0.29408595448E-02  0.40416127148E-01  0.51100000000E-03 0. -1.
         11    1    4    4    0    0  0.35392537454E-01  0.78353030443E-01 -0.20947869543E-01  0.88492392026E-01  0.51100000000E-03 0.  1.
</event>
<event>
 8    1  0.1183092E+005  0.1043930E+01  0.7957747E-01            NaN
         13   -1    0    0    0    0  0.00000000000E+00  0.00000000000E+00  0.74505805969E-08  0.10566000000E+00  0.10566000000E+00 0.  1.
     999900   -1    0    0    0    0 -0.00000000000E+00 -0.00000000000E+00 -0.74505805969E-08  0.93827000000E+00  0.93827000000E+00 0.  1.
     999902    2    1    2    0    0 -0.16214631779E-01  0.12423490013E-01 -0.12332856153E-01  0.10200688029E+01  0.10197896871E+01 0.  0.
     999903    2    3    3    0    0  0.13656517582E-01 -0.93699991752E-01  0.83889138676E-01  0.12798520183E+00  0.19407095939E-01 0.  0.
         14    1    1    2    0    0  0.16214631779E-01 -0.12423490013E-01  0.12332856153E-01  0.23861197135E-01  0.00000000000E+00 0.  1.
     999901    1    3    3    0    0 -0.29871149361E-01  0.10612348177E+00 -0.96221994829E-01  0.89208360103E+00  0.88000000000E+00 0.  1.
        -11    1    4    4    0    0  0.11947804014E-01 -0.58473221018E-01  0.40780162571E-01  0.72285201648E-01  0.51100000000E-03 0.  1.
         11    1    4    4    0    0  0.17087135681E-02 -0.35226770734E-01  0.43108976105E-01  0.55700000182E-01  0.51100000000E-03 0. -1.
</event>
<event>
 8    1  0.1183092E+005  0.1043930E+01  0.7957747E-01            NaN
         13   -1    0    0    0    0  0.00000000000E+00  0.00000000000E+00  0.74505805969E-08  0.10566000000E+00  0.10566000000E+00 0.  1.
     999900   -1    0    0    0    0 -0.00000000000E+00 -0.00000000000E+00 -0.74505805969E-08  0.93827000000E+00  0.93827000000E+00 0. -1.
     999902    2    1    2    0    0 -0.18780949287E-01 -0.37889327085E-02 -0.11231466308E-01  0.10217213102E+01  0.10214799116E+01 0.  0.
     999903    2    3    3    0    0 -0.23957869225E-01 -0.29671612257E-01  0.12374621348E+00  0.13103860146E+00  0.20089939082E-01 0.  0.
         14    1    1    2    0    0  0.18780949287E-01  0.37889327085E-02  0.11231466308E-01  0.22208689800E-01  0.00000000000E+00 0.  1.
     999901    1    3    3    0    0  0.51769199380E-02  0.25882679548E-01 -0.13497767978E+00  0.89068270874E+00  0.88000000000E+00 0. -1.
        -11    1    4    4    0    0 -0.15181783996E-01 -0.70994428032E-02  0.71653056327E-01  0.73588791643E-01  0.51100000000E-03 0. -1.
         11    1    4    4    0    0 -0.87760852292E-02 -0.22572169453E-01  0.52093157149E-01  0.57449809822E-01  0.51100000000E-03 0.  1.
</event>
<event>
 8    1  0.1183092E+005  0.1043930E+01  0.7957747E-01            NaN
         13   -1    0    0    0    0  0.00000000000E+00  0.00000000000E+00  0.74505805969E-08  0.10566000000E+00  0.10566000000E+00 0. -1.
     999900   -1    0    0    0    0 -0.00000000000E+00 -0.00000000000E+00 -0.74505805969E-08  0.93827000000E+00  0.93827000000E+00 0. -1.
     999902    2    1    2    0    0 -0.85296534466E-02  0.15298093273E-01  0.16061740480E-01  0.10201651909E+01  0.10198883520E+01 0.  0.
     999903    2    3    3    0    0  0.29489522080E-03 -0.55758175235E-01  0.11739277065E+00  0.13146116611E+00  0.19796831214E-01 0.  0.
         14    1    1    2    0    0  0.85296534466E-02 -0.15298093273E-01 -0.16061740480E-01  0.23764809130E-01  0.00000000000E+00 0.  1.
     999901    1    3    3    0    0 -0.88245486674E-02  0.71056268508E-01 -0.10133103017E+00  0.88870402476E+00  0.88000000000E+00 0. -1.
        -11    1    4    4    0    0 -0.73914820431E-02 -0.90279967985E-02  0.19914410922E-01  0.23086437931E-01  0.51100000000E-03 0.  1.
         11    1    4    4    0    0  0.76863772639E-02 -0.46730178436E-01  0.97478359724E-01  0.10837472818E+00  0.51100000000E-03 0. -1.
</event>
<event>
 8    1  0.1183092E+005  0.1043930E+01  0.7957747E-01            NaN
         13   -1    0    0    0    0  0.00000000000E+00  0.00000000000E+00  0.74505805969E-08  0.10566000000E+00  0.10566000000E+00 0.  1.
     999900   -1    0    0    0    0 -0.00000000000E+00 -0.00000000000E+00 -0.74505805969E-08  0.93827000000E+00  0.93827000000E+00 0.  1.
     999902    2    1    2    0    0  0.31620437348E-02 -0.18549254361E-01 -0.14111044529E-01  0.10204099036E+01  0.10201388025E+01 0.  0.
     999903    2    3    3    0    0 -0.28665556301E-03 -0.39354284376E-01 -0.12548981594E+00  0.13313882126E+00  0.20722209112E-01 0.  0.
         14    1    1    2    0    0 -0.31620437348E-02  0.18549254361E-01  0.14111044529E-01  0.23520096421E-01  0.00000000000E+00 0.  1.
     999901    1    3    3    0    0  0.34486992978E-02  0.20805030014E-01  0.11137877141E+00  0.88727108232E+00  0.88000000000E+00 0. -1.
        -11    1    4    4    0    0  0.67275598415E-02 -0.28356711544E-01 -0.10388223468E+00  0.10789412845E+00  0.51100000000E-03 0. -1.
         11    1    4    4    0    0 -0.70142154045E-02 -0.10997572832E-01 -0.21607581266E-01  0.25244692811E-01  0.51100000000E-03 0.  1.
</event>
<event>
 8    1  0.1183092E+005  0.1043930E+01  0.7957747E-01            NaN
         13   -1    0    0    0    0  0.00000000000E+00  0.00000000000E+00  0.74505805969E-08  0.10566000000E+00  0.10566000000E+00 0.  1.
     999900   -1    0    0    0    0 -0.00000000000E+00 -0.00000000000E+00 -0.74505805969E-08  0.93827000000E+00  0.93827000000E+00 0. -1.
     999902    2    1    2    0    0  0.45709314102E-02  0.45488927159E-02 -0.21107212953E-01  0.10218596516E+01  0.10216212837E+01 0.  0.
     999903    2    3    3    0    0  0.56368291736E-01  0.78085846820E-01 -0.91773005169E-01  0.13445652770E+00  0.19531758156E-01 0.  0.
         14    1    1    2    0    0 -0.45709314102E-02 -0.45488927159E-02  0.21107212953E-01  0.22070348378E-01  0.00000000000E+00 0.  1.
     999901    1    3    3    0    0 -0.51797360325E-01 -0.73536954104E-01  0.70665792217E-01  0.88740312392E+00  0.88000000000E+00 0.  1.
        -11    1    4    4    0    0  0.50804021670E-01  0.59115223875E-01 -0.78582234226E-01  0.11068462842E+00  0.51100000000E-03 0.  1.
         11    1    4    4    0    0  0.55642700652E-02  0.18970622946E-01 -0.13190770943E-01  0.23771899280E-01  0.51100000000E-03 0. -1.
</event>
<event>
 8    1  0.1183092E+005  0.1043930E+01  0.7957747E-01            NaN
         13   -1    0    0    0    0  0.00000000000E+00  0.00000000000E+00  0.74505805969E-08  0.10566000000E+00  0.10566000000E+00 0.  1.
     999900   -1    0    0    0    0 -0.00000000000E+00 -0.00000000000E+00 -0.74505805969E-08  0.93827000000E+00  0.93827000000E+00 0.  1.
     999902    2    1    2    0    0 -0.11439187534E-01 -0.20761895163E-01 -0.47566731054E-03  0.10202205597E+01  0.10199450244E+01 0.  0.
     999903    2    3    3    0    0 -0.10955884887E+00 -0.45859709382E-01 -0.55439677235E-01  0.13270807489E+00  0.20775490848E-01 0.  0.
         14    1    1    2    0    0  0.11439187534E-01  0.20761895163E-01  0.47566731054E-03  0.23709440347E-01  0.00000000000E+00 0. -1.
     999901    1    3    3    0    0  0.98119661334E-01  0.25097814219E-01  0.54964009924E-01  0.88751248476E+00  0.88000000000E+00 0. -1.
        -11    1    4    4    0    0 -0.55700319476E-01 -0.33625758085E-01 -0.25510788412E-01  0.69887614374E-01  0.51100000000E-03 0.  1.
         11    1    4    4    0    0 -0.53858529392E-01 -0.12233951297E-01 -0.29928888823E-01  0.62820460519E-01  0.51100000000E-03 0. -1.
</event>
<event>
 8    1  0.1183092E+005  0.1043930E+01  0.7957747E-01            NaN
         13   -1    0    0    0    0  0.00000000000E+00  0.00000000000E+00  0.74505805969E-08  0.10566000000E+00  0.10566000000E+00 0.  1.
     999900   -1    0    0    0    0 -0.00000000000E+00 -0.00000000000E+00 -0.74505805969E-08  0.93827000000E+00  0.93827000000E+00 0.  1.
     999902    2    1    2    0    0 -0.19206679626E-01  0.84960030378E-03  0.14380574497E-01  0.10199212665E+01  0.10196386470E+01 0.  0.
     999903    2    3    3    0    0  0.11632839695E+00  0.39487955330E-02 -0.47517566280E-01  0.12739073936E+00  0.20557053422E-01 0.  0.
         14    1    1    2    0    0  0.19206679626E-01 -0.84960030378E-03 -0.14380574497E-01  0.24008733531E-01  0.00000000000E+00 0.  1.
     999901    1    3    3    0    0 -0.13553507658E+00 -0.30991952292E-02  0.61898140776E-01  0.89253052711E+00  0.88000000000E+00 0.  1.
        -11    1    4    4    0    0  0.19651393280E-01 -0.57189369154E-02 -0.36911565232E-02  0.20803106854E-01  0.51100000000E-03 0.  1.
         11    1    4    4    0    0  0.96677003672E-01  0.96677324484E-02 -0.43826409756E-01  0.10658763250E+00  0.51100000000E-03 0. -1.
</event>
<event>
 8    1  0.1183092E+005  0.1043930E+01  0.7957747E-01            NaN
         13   -1    0    0    0    0  0.00000000000E+00  0.00000000000E+00  0.74505805969E-08  0.10566000000E+00  0.10566000000E+00 0.  1.
     999900   -1    0    0    0    0 -0.00000000000E+00 -0.00000000000E+00 -0.74505805969E-08  0.93827000000E+00  0.93827000000E+00 0. -1.
     999902    2    1    2    0    0  0.37886835908E-02  0.17558151035E-01  0.15207593042E-01  0.10203946292E+01  0.10201231718E+01 0.  0.
     999903    2    3    3    0    0  0.12708464193E+00  0.25944994887E-01  0.12616018981E-01  0.13175581129E+00  0.19410844889E-01 0.  0.
         14    1    1    2    0    0 -0.37886835908E-02 -0.17558151035E-01 -0.15207593042E-01  0.23535370770E-01  0.00000000000E+00 0. -1.
     999901    1    3    3    0    0 -0.12329595834E+00 -0.83868438516E-02  0.25915740606E-02  0.88863881794E+00  0.88000000000E+00 0.  1.
        -11    1    4    4    0    0  0.66454744849E-01  0.22894594202E-01  0.99292513780E-02  0.70987651817E-01  0.51100000000E-03 0. -1.
         11    1    4    4    0    0  0.60629897083E-01  0.30504006848E-02  0.26867676032E-02  0.60768159474E-01  0.51100000000E-03 0.  1.
</event>
<event>
 8    1  0.1183092E+005  0.1043930E+01  0.7957747E-01            NaN
         13   -1    0    0    0    0  0.00000000000E+00  0.00000000000E+00  0.74505805969E-08  0.10566000000E+00  0.10566000000E+00 0.  1.
     999900   -1    0    0    0    0 -0.00000000000E+00 -0.00000000000E+00 -0.74505805969E-08  0.93827000000E+00  0.93827000000E+00 0. -1.
     999902    2    1    2    0    0 -0.17150806445E-01 -0.17176039126E-01  0.18654285200E-02  0.10195856720E+01  0.10192949996E+01 0.  0.
     999903    2    3    3    0    0  0.45701119332E-01  0.72580952183E-01 -0.92505466614E-01  0.12778269606E+00  0.20360970779E-01 0.  0.
         14    1    1    2    0    0  0.17150806445E-01  0.17176039126E-01 -0.18654285200E-02  0.24344327991E-01  0.00000000000E+00 0. -1.
     999901    1    3    3    0    0 -0.62851925777E-01 -0.89756991308E-01  0.94370895134E-01  0.89180297595E+00  0.88000000000E+00 0.  1.
        -11    1    4    4    0    0  0.43532935892E-02  0.22348059914E-01 -0.28893169152E-01  0.36789445384E-01  0.51100000000E-03 0.  1.
         11    1    4    4    0    0  0.41347825743E-01  0.50232892268E-01 -0.63612297462E-01  0.90993250676E-01  0.51100000000E-03 0. -1.
</event>
<event>
 8    1  0.1183092E+005  0.1043930E+01  0.7957747E-01            NaN
         13   -1    0    0    0    0  0.00000000000E+00  0.00000000000E+00  0.74505805969E-08  0.10566000000E+00  0.10566000000E+00 0.  1.
     999900   -1    0    0    0    0 -0.00000000000E+00 -0.00000000000E+00 -0.74505805969E-08  0.93827000000E+00  0.93827000000E+00 0. -1.
     999902    2    1    2    0    0  0.48371440627E-02  0.14033826808E-01 -0.17874702613E-01  0.10206953007E+01  0.10204308137E+01 0.  0.
     999903    2    3    3    0    0  0.60414834995E-02 -0.12714290870E+00 -0.13150737168E-01  0.12942955082E+00  0.19422872639E-01 0.  0.
         14    1    1    2    0    0 -0.48371440627E-02 -0.14033826808E-01  0.17874702613E-01  0.23234699289E-01  0.00000000000E+00 0.  1.
     999901    1    3    3    0    0 -0.12043394368E-02  0.14117673551E+00 -0.47239654453E-02  0.89126574989E+00  0.88000000000E+00 0. -1.
        -11    1    4    4    0    0 -0.47015711787E-02 -0.14226242665E-01 -0.45927085605E-02  0.15679440195E-01  0.51100000000E-03 0. -1.
         11    1    4    4    0    0  0.10743054678E-01 -0.11291666603E+00 -0.85580286073E-02  0.11375011062E+00  0.51100000000E-03 0.  1.
</event>
<event>
 8    1  0.1183092E+005  0.1043930E+01  0.7957747E-01            NaN
         13   -1    0    0    0    0  0.00000000000E+00  0.00000000000E+00  0.74505805969E-08  0.10566000000E+00  0.10566000000E+00 0. -1.
     999900   -1    0    0    0    0 -0.00000000000E+00 -0.00000000000E+00 -0.74505805969E-08  0.93827000000E+00  0.93827000000E+00 0.  1.
     999902    2    1    2    0    0 -0.24514442522E-02 -0.23659321589E-01 -0.26276873012E-02  0.10199993122E+01  0.10197185490E+01 0.  0.
     999903    2    3    3    0    0  0.29022766803E-01  0.45178570912E-01 -0.11613981019E+00  0.12948581797E+00  0.19866989770E-01 0.  0.
         14    1    1    2    0    0  0.24514442522E-02  0.23659321589E-01  0.26276873012E-02  0.23930687778E-01  0.00000000000E+00 0. -1.
     999901    1    3    3    0    0 -0.31474211056E-01 -0.68837892501E-01  0.11351212288E+00  0.89051349425E+00  0.88000000000E+00 0. -1.
        -11    1    4    4    0    0  0.26700237509E-01  0.44123732627E-01 -0.94224105143E-01  0.10741624446E+00  0.51100000000E-03 0.  1.
         11    1    4    4    0    0  0.23225292946E-02  0.10548382855E-02 -0.21915705043E-01  0.22069573504E-01  0.51100000000E-03 0. -1.
</event>
<event>
 7    1  0.1183092E+005  0.1043930E+01  0.7957747E-01            NaN
         13   -1    0    0    0    0  0.00000000000E+00  0.00000000000E+00  0.74505805969E-08  0.10566000000E+00  0.10566000000E+00 0. -1.
     999900   -1    0    0    0    0 -0.00000000000E+00 -0.00000000000E+00 -0.74505805969E-08  0.93827000000E+00  0.93827000000E+00 0.  1.
     999903    2    1    2    0    0 -0.93000080385E-01 -0.63368823804E-01 -0.16365715437E-01  0.11544086266E+00  0.19852791923E-01 0.  0.
         14    1    1    2    0    0 -0.13980199823E-01  0.39092600894E-01  0.18762475507E-02  0.41559568532E-01  0.00000000000E+00 0. -1.
     999901    1    1    2    0    0  0.10698028021E+00  0.24276222910E-01  0.14489467886E-01  0.88692956881E+00  0.88000000000E+00 0. -1.
        -11    1    3    3    0    0 -0.79875499005E-01 -0.60963073946E-01 -0.11128309644E-01  0.10109743875E+00  0.51100000000E-03 0. -1.
         11    1    3    3    0    0 -0.13124581380E-01 -0.24057498585E-02 -0.52374057932E-02  0.14343423902E-01  0.51100000000E-03 0.  1.
</event>
<event>
 8    1  0.1183092E+005  0.1043930E+01  0.7957747E-01            NaN
         13   -1    0    0    0    0  0.00000000000E+00  0.00000000000E+00  0.74505805969E-08  0.10566000000E+00  0.10566000000E+00 0.  1.
     999900   -1    0    0    0    0 -0.00000000000E+00 -0.00000000000E+00 -0.74505805969E-08  0.93827000000E+00  0.93827000000E+00 0. -1.
     999902    2    1    2    0    0  0.15295811834E-01  0.86827166566E-02 -0.14989259538E-01  0.10208209254E+01  0.10205593233E+01 0.  0.
     999903    2    3    3    0    0 -0.41857436154E-01 -0.43471696546E-01  0.11155916256E+00  0.12840785975E+00  0.20032432043E-01 0.  0.
         14    1    1    2    0    0 -0.15295811834E-01 -0.86827166566E-02  0.14989259538E-01  0.23109074618E-01  0.00000000000E+00 0.  1.
     999901    1    3    3    0    0  0.57153247988E-01  0.52154413203E-01 -0.12654842210E+00  0.89241306563E+00  0.88000000000E+00 0. -1.
        -11    1    4    4    0    0 -0.40036762107E-01 -0.30382021169E-01  0.91116156491E-01  0.10405971663E+00  0.51100000000E-03 0. -1.
         11    1    4    4    0    0 -0.18206740467E-02 -0.13089675378E-01  0.20443006067E-01  0.24348143123E-01  0.51100000000E-03 0.  1.
</event>
<event>
 8    1  0.1183092E+005  0.1043930E+01  0.7957747E-01            NaN
         13   -1    0    0    0    0  0.00000000000E+00  0.00000000000E+00  0.74505805969E-08  0.10566000000E+00  0.10566000000E+00 0.  1.
     999900   -1    0    0    0    0 -0.00000000000E+00 -0.00000000000E+00 -0.74505805969E-08  0.93827000000E+00  0.93827000000E+00 0.  1.
     999902    2    1    2    0    0  0.11682853494E-01 -0.37580096018E-02 -0.20291066334E-01  0.10202163104E+01  0.10199406752E+01 0.  0.
     999903    2    3    3    0    0 -0.12326644135E+00 -0.60457074419E-02 -0.36290128907E-01  0.12978241855E+00  0.17185359056E-01 0.  0.
         14    1    1    2    0    0 -0.11682853494E-01  0.37580096018E-02  0.20291066334E-01  0.23713689610E-01  0.00000000000E+00 0.  1.
     999901    1    3    3    0    0  0.13494929485E+00  0.22876978400E-02  0.15999062573E-01  0.89043389184E+00  0.88000000000E+00 0. -1.
        -11    1    4    4    0    0 -0.75445465221E-01  0.40223695435E-02 -0.18628277222E-01  0.77816910196E-01  0.51100000000E-03 0. -1.
         11    1    4    4    0    0 -0.47820976130E-01 -0.10068076985E-01 -0.17661851685E-01  0.51965508351E-01  0.51100000000E-03 0.  1.
</event>
<event>
 8    1  0.1183092E+005  0.1043930E+01  0.7957747E-01            NaN
         13   -1    0    0    0    0  0.00000000000E+00  0.00000000000E+00  0.74505805969E-08  0.10566000000E+00  0.10566000000E+00 0. -1.
     999900   -1    0    0    0    0 -0.00000000000E+00 -0.00000000000E+00 -0.74505805969E-08  0.93827000000E+00  0.93827000000E+00 0.  1.
     999902    2    1    2    0    0  0.91264972304E-02  0.18535076537E-01 -0.10382785819E-01  0.10208076244E+01  0.10205457176E+01 0.  0.
     999903    2    3    3    0    0 -0.10860512343E+00  0.71187878684E-01  0.32365913959E-02  0.13130296472E+00  0.19162622877E-01 0.  0.
         14    1    1    2    0    0 -0.91264972304E-02 -0.18535076537E-01  0.10382785819E-01  0.23122375641E-01  0.00000000000E+00 0. -1.
     999901    1    3    3    0    0  0.11773162066E+00 -0.52652802147E-01 -0.13619377214E-01  0.88950465963E+00  0.88000000000E+00 0.  1.
        -11    1    4    4    0    0 -0.89407972146E-01  0.65422651391E-01 -0.10744937132E-02  0.11079406327E+00  0.51100000000E-03 0. -1.
         11    1    4    4    0    0 -0.19197151280E-01  0.57652272935E-02  0.43110851090E-02  0.20508901454E-01  0.51100000000E-03 0.  1.
</event>
<event>
 8    1  0.1183092E+005  0.1043930E+01  0.7957747E-01            NaN
         13   -1    0    0    0    0  0.00000000000E+00  0.00000000000E+00  0.74505805969E-08  0.10566000000E+00  0.10566000000E+00 0. -1.
     999900   -1    0    0    0    0 -0.00000000000E+00 -0.00000000000E+00 -0.74505805969E-08  0.93827000000E+00  0.93827000000E+00 0.  1.
     999902    2    1    2    0    0 -0.26702292340E-01 -0.35103660482E-02 -0.84840329359E-02  0.10156932527E+01  0.10153006794E+01 0.  0.
     999903    2    3    3    0    0  0.10295458749E+00 -0.13749673924E-01  0.63194318329E-01  0.12325079739E+00  0.20212287607E-01 0.  0.
         14    1    1    2    0    0  0.26702292340E-01  0.35103660482E-02  0.84840329359E-02  0.28236747349E-01  0.00000000000E+00 0. -1.
     999901    1    3    3    0    0 -0.12965687983E+00  0.10239307876E-01 -0.71678351265E-01  0.89244245526E+00  0.88000000000E+00 0.  1.
        -11    1    4    4    0    0  0.63482052879E-01 -0.60311223625E-02  0.27400824243E-01  0.69407577143E-01  0.51100000000E-03 0. -1.
         11    1    4    4    0    0  0.39472534610E-01 -0.77185515618E-02  0.35793494086E-01  0.53843220247E-01  0.51100000000E-03 0.  1.
</event>
<event>
 8    1  0.1183092E+005  0.1043930E+01  0.7957747E-01            NaN
         13   -1    0    0    0    0  0.00000000000E+00  0.00000000000E+00  0.74505805969E-08  0.10566000000E+00  0.10566000000E+00 0.  1.
     999900   -1    0    0    0    0 -0.00000000000E+00 -0.00000000000E+00 -0.74505805969E-08  0.93827000000E+00  0.93827000000E+00 0. -1.
     999902    2    1    2    0    0  0.12665735050E-02  0.22658146659E-01  0.80465828675E-03  0.10212222195E+01  0.10209697245E+01 0.  0.
     999903    2    3    3    0    0  0.96852436123E-02 -0.10632329223E+00 -0.69790391205E-01  0.12898304387E+00  0.19169780565E-01 0.  0.
         14    1    1    2    0    0 -0.12665735050E-02 -0.22658146659E-01 -0.80465828675E-03  0.22707780460E-01  0.00000000000E+00 0. -1.
     999901    1    3    3    0    0 -0.84186701073E-02  0.12898143889E+00  0.70595049492E-01  0.89223917567E+00  0.88000000000E+00 0.  1.
        -11    1    4    4    0    0  0.42864259512E-02 -0.10006245541E+00 -0.65280209629E-01  0.11955181019E+00  0.51100000000E-03 0.  1.
         11    1    4    4    0    0  0.53988176610E-02 -0.62608368199E-02 -0.45101815759E-02  0.94312336770E-02  0.51100000000E-03 0. -1.
</event>
<event>
 8    1  0.1183092E+005  0.1043930E+01  0.7957747E-01            NaN
         13   -1    0    0    0    0  0.00000000000E+00  0.00000000000E+00  0.74505805969E-08  0.10566000000E+00  0.10566000000E+00 0.  1.
     999900   -1    0    0    0    0 -0.00000000000E+00 -0.00000000000E+00 -0.74505805969E-08  0.93827000000E+00  0.93827000000E+00 0.  1.
     999902    2    1    2    0    0  0.12076177759E-01 -0.20503100350E-01 -0.30495550234E-02  0.10199401901E+01  0.10196580213E+01 0.  0.
     999903    2    3    3    0    0  0.68981617570E-01 -0.25481731312E-01 -0.10761660305E+00  0.13191018870E+00  0.20277633945E-01 0.  0.
         14    1    1    2    0    0 -0.12076177759E-01  0.20503100350E-01  0.30495550234E-02  0.23989809901E-01  0.00000000000E+00 0. -1.
     999901    1    3    3    0    0 -0.56905439811E-01  0.49786309620E-02  0.10456704803E+00  0.88803000140E+00  0.88000000000E+00 0. -1.
        -11    1    4    4    0    0  0.57434980275E-01 -0.18552709331E-01 -0.98890543482E-01  0.11585586172E+00  0.51100000000E-03 0.  1.
         11    1    4    4    0    0  0.11546637295E-01 -0.69290219813E-02 -0.87260595685E-02  0.16054326988E-01  0.51100000000E-03 0. -1.
</event>
<event>
 8    1  0.1183092E+005  0.1043930E+01  0.7957747E-01            NaN
         13   -1    0    0    0    0  0.00000000000E+00  0.00000000000E+00  0.74505805969E-08  0.10566000000E+00  0.10566000000E+00 0.  1.
     999900   -1    0    0    0    0 -0.00000000000E+00 -0.00000000000E+00 -0.74505805969E-08  0.93827000000E+00  0.93827000000E+00 0.  1.
     999902    2    1    2    0    0 -0.13117004746E-01 -0.18817710491E-01  0.70211705634E-02  0.10199412760E+01  0.10196591331E+01 0.  0.
     999903    2    3    3    0    0 -0.24678590706E-01 -0.36768892490E-01  0.12283759140E+00  0.13209592996E+00  0.19981905711E-01 0.  0.
         14    1    1    2    0    0  0.13117004746E-01  0.18817710491E-01 -0.70211705634E-02  0.23988723970E-01  0.00000000000E+00 0.  1.
     999901    1    3    3    0    0  0.11561585960E-01  0.17951181999E-01 -0.11581642084E+00  0.88784534607E+00  0.88000000000E+00 0.  1.
        -11    1    4    4    0    0  0.20178871319E-02 -0.11884374178E-01  0.28991828255E-01  0.31402188533E-01  0.51100000000E-03 0. -1.
         11    1    4    4    0    0 -0.26696477838E-01 -0.24884518312E-01  0.93845763147E-01  0.10069374143E+00  0.51100000000E-03 0.  1.
</event>
<event>
 8    1  0.1183092E+005  0.1043930E+01  0.7957747E-01            NaN
         13   -1    0    0    0    0  0.00000000000E+00  0.00000000000E+00  0.74505805969E-08  0.10566000000E+00  0.10566000000E+00 0.  1.
     999900   -1    0    0    0    0 -0.00000000000E+00 -0.00000000000E+00 -0.74505805969E-08  0.93827000000E+00  0.93827000000E+00 0.  1.
     999902    2    1    2    0    0 -0.16974205688E-01 -0.14007854875E-01  0.82620427993E-02  0.10204224478E+01  0.10201516393E+01 0.  0.
     999903    2    3    3    0    0  0.55807721613E-01  0.61993473097E-02  0.11621288395E+00  0.13061408417E+00  0.20041728706E-01 0.  0.
         14    1    1    2    0    0  0.16974205688E-01  0.14007854875E-01 -0.82620427993E-02  0.23507552151E-01  0.00000000000E+00 0.  1.
     999901    1    3    3    0    0 -0.72781927301E-01 -0.20207202185E-01 -0.10795084115E+00  0.88980836368E+00  0.88000000000E+00 0.  1.
        -11    1    4    4    0    0  0.33356285463E-01 -0.35807970803E-02  0.51965657144E-01  0.61855917510E-01  0.51100000000E-03 0.  1.
         11    1    4    4    0    0  0.22451436150E-01  0.97801443901E-02  0.64247226807E-01  0.68758166663E-01  0.51100000000E-03 0. -1.
</event>
<event>
 8    1  0.1183092E+005  0.1043930E+01  0.7957747E-01            NaN
         13   -1    0    0    0    0  0.00000000000E+00  0.00000000000E+00  0.74505805969E-08  0.10566000000E+00  0.10566000000E+00 0. -1.
     999900   -1    0    0    0    0 -0.00000000000E+00 -0.00000000000E+00 -0.74505805969E-08  0.93827000000E+00  0.93827000000E+00 0. -1.
     999902    2    1    2    0    0  0.16092734980E-01 -0.43285226126E-02  0.15935974510E-01  0.10208720836E+01  0.10206116516E+01 0.  0.
     999903    2    3    3    0    0 -0.67275932417E-01  0.99579921507E-01 -0.42502793913E-01  0.12892904215E+00  0.19339042597E-01 0.  0.
         14    1    1    2    0    0 -0.16092734980E-01  0.43285226126E-02 -0.15935974510E-01  0.23057916444E-01  0.00000000000E+00 0. -1.
     999901    1    3    3    0    0  0.83368667398E-01 -0.10390844412E+00  0.58438768423E-01  0.89194304141E+00  0.88000000000E+00 0.  1.
        -11    1    4    4    0    0 -0.29552055553E-01  0.28246810286E-01 -0.17258433833E-01  0.44377031651E-01  0.51100000000E-03 0.  1.
         11    1    4    4    0    0 -0.37723876864E-01  0.71333111221E-01 -0.25244360079E-01  0.84552010496E-01  0.51100000000E-03 0. -1.
</event>
<event>
 8    1  0.1183092E+005  0.1043930E+01  0.7957747E-01            NaN
         13   -1    0    0    0    0  0.00000000000E+00  0.00000000000E+00  0.74505805969E-08  0.10566000000E+00  0.10566000000E+00 0. -1.
     999900   -1    0    0    0    0 -0.00000000000E+00 -0.00000000000E+00 -0.74505805969E-08  0.93827000000E+00  0.93827000000E+00 0.  1.
     999902    2    1    2    0    0 -0.22907433924E-01 -0.23570097960E-02 -0.66705914637E-02  0.10199549543E+01  0.10196731369E+01 0.  0.
     999903    2    3    3    0    0 -0.54158052137E-01  0.11200219072E+00 -0.37915864989E-01  0.13145571686E+00  0.19115630779E-01 0.  0.
         14    1    1    2    0    0  0.22907433924E-01  0.23570097960E-02  0.66705914637E-02  0.23975045665E-01  0.00000000000E+00 0.  1.
     999901    1    3    3    0    0  0.31250618213E-01 -0.11435920051E+00  0.31245273525E-01  0.88849923748E+00  0.88000000000E+00 0.  1.
        -11    1    4    4    0    0 -0.20852679305E-01  0.26443866397E-01 -0.57320703134E-02  0.34164748723E-01  0.51100000000E-03 0.  1.
         11    1    4    4    0    0 -0.33305372832E-01  0.85558324320E-01 -0.32183794675E-01  0.97290968134E-01  0.51100000000E-03 0. -1.
</event>
<event>
 8    1  0.1183092E+005  0.1043930E+01  0.7957747E-01            NaN
         13   -1    0    0    0    0  0.00000000000E+00  0.00000000000E+00  0.74505805969E-08  0.10566000000E+00  0.10566000000E+00 0.  1.
     999900   -1    0    0    0    0 -0.00000000000E+00 -0.00000000000E+00 -0.74505805969E-08  0.93827000000E+00  0.93827000000E+00 0. -1.
     999902    2    1    2    0    0 -0.14860489057E-01 -0.10089699767E-01  0.13511270051E-01  0.10214535547E+01  0.10212062347E+01 0.  0.
     999903    2    3    3    0    0 -0.12814047652E+00  0.77543221024E-02 -0.28427734846E-01  0.13302255295E+00  0.20168099838E-01 0.  0.
         14    1    1    2    0    0  0.14860489057E-01  0.10089699767E-01 -0.13511270051E-01  0.22476445333E-01  0.00000000000E+00 0. -1.
     999901    1    3    3    0    0  0.11327998746E+00 -0.17844021869E-01  0.41939004896E-01  0.88843100171E+00  0.88000000000E+00 0.  1.
        -11    1    4    4    0    0 -0.74183901321E-01  0.50981760015E-02 -0.26574327757E-01  0.78966439900E-01  0.51100000000E-03 0.  1.
         11    1    4    4    0    0 -0.53956575201E-01  0.26561461009E-02 -0.18534070881E-02  0.54056113052E-01  0.51100000000E-03 0. -1.
</event>
<event>
 8    1  0.1183092E+005  0.1043930E+01  0.7957747E-01            NaN
         13   -1    0    0    0    0  0.00000000000E+00  0.00000000000E+00  0.74505805969E-08  0.10566000000E+00  0.10566000000E+00 0. -1.
     999900   -1    0    0    0    0 -0.00000000000E+00 -0.00000000000E+00 -0.74505805969E-08  0.93827000000E+00  0.93827000000E+00 0. -1.
     999902    2    1    2    0    0 -0.68635883323E-02 -0.16999306303E-01 -0.14069496857E-01  0.10208207810E+01  0.10205591756E+01 0.  0.
     999903    2    3    3    0    0 -0.21055443886E-01 -0.76021309979E-01  0.10263271519E+00  0.13104304925E+00  0.20401844034E-01 0.  0.
         14    1    1    2    0    0  0.68635883323E-02  0.16999306303E-01  0.14069496857E-01  0.23109218970E-01  0.00000000000E+00 0. -1.
     999901    1    3    3    0    0  0.14191855554E-01  0.59022003676E-01 -0.11670221205E+00  0.88977773178E+00  0.88000000000E+00 0. -1.
        -11    1    4    4    0    0 -0.12602920014E-01 -0.51282477298E-01  0.52310359077E-01  0.74332771093E-01  0.51100000000E-03 0. -1.
         11    1    4    4    0    0 -0.84525238716E-02 -0.24738832681E-01  0.50322356114E-01  0.56710278153E-01  0.51100000000E-03 0.  1.
</event>
<event>
 8    1  0.1183092E+005  0.1043930E+01  0.7957747E-01            NaN
         13   -1    0    0    0    0  0.00000000000E+00  0.00000000000E+00  0.74505805969E-08  0.10566000000E+00  0.10566000000E+00 0.  1.
     999900   -1    0    0    0    0 -0.00000000000E+00 -0.00000000000E+00 -0.74505805969E-08  0.93827000000E+00  0.93827000000E+00 0. -1.
     999902    2    1    2    0    0  0.19927818442E-01 -0.12878126733E-01  0.88902916329E-02  0.10185922538E+01  0.10182770636E+01 0.  0.
     999903    2    3    3    0    0  0.12789244705E-01 -0.70098900891E-01 -0.10591480858E+00  0.12926363781E+00  0.20340125257E-01 0.  0.
         14    1    1    2    0    0 -0.19927818442E-01  0.12878126733E-01 -0.88902916329E-02  0.25337746177E-01  0.00000000000E+00 0. -1.
     999901    1    3    3    0    0  0.71385737368E-02  0.57220774157E-01  0.11480510022E+00  0.88932861602E+00  0.88000000000E+00 0.  1.
        -11    1    4    4    0    0  0.99311958412E-02 -0.12052360756E-01 -0.17538287033E-01  0.23489160982E-01  0.51100000000E-03 0.  1.
         11    1    4    4    0    0  0.28580488641E-02 -0.58046540135E-01 -0.88376521551E-01  0.10577447682E+00  0.51100000000E-03 0. -1.
</event>
<event>
 8    1  0.1183092E+005  0.1043930E+01  0.7957747E-01            NaN
         13   -1    0    0    0    0  0.00000000000E+00  0.00000000000E+00  0.74505805969E-08  0.10566000000E+00  0.10566000000E+00 0. -1.
     999900   -1    0    0    0    0 -0.00000000000E+00 -0.00000000000E+00 -0.74505805969E-08  0.93827000000E+00  0.93827000000E+00 0. -1.
     999902    2    1    2    0    0 -0.73015819509E-02 -0.20756088611E-01 -0.46348910415E-02  0.10214442150E+01  0.10211966871E+01 0.  0.
     999903    2    3    3    0    0 -0.10343778345E+00  0.12285021004E-01 -0.78737816406E-01  0.13249813803E+00  0.22490354865E-01 0.  0.
         14    1    1    2    0    0  0.73015819509E-02  0.20756088611E-01  0.46348910415E-02  0.22485785029E-01  0.00000000000E+00 0. -1.
     999901    1    3    3    0    0  0.96136201502E-01 -0.33041109615E-01  0.74102925364E-01  0.88894607694E+00  0.88000000000E+00 0.  1.
        -11    1    4    4    0    0 -0.83806322496E-01  0.11116073017E-01 -0.51827230109E-01  0.99163449272E-01  0.51100000000E-03 0.  1.
         11    1    4    4    0    0 -0.19631460957E-01  0.11689479874E-02 -0.26910586297E-01  0.33334688757E-01  0.51100000000E-03 0. -1.
</event>
<event>
 8    1  0.1183092E+005  0.1043930E+01  0.7957747E-01            NaN
         13   -1    0    0    0    0  0.00000000000E+00  0.00000000000E+00  0.74505805969E-08  0.10566000000E+00  0.10566000000E+00 0. -1.
     999900   -1    0    0    0    0 -0.00000000000E+00 -0.00000000000E+00 -0.74505805969E-08  0.93827000000E+00  0.93827000000E+00 0.  1.
     999902    2    1    2    0    0 -0.16614106504E-01 -0.13449923756E-01  0.95675370688E-02  0.10205106330E+01  0.10202418759E+01 0.  0.
     999903    2    3    3    0    0  0.48259622973E-01  0.11230974588E+00  0.35877872223E-01  0.12881767633E+00  0.19086691446E-01 0.  0.
         14    1    1    2    0    0  0.16614106504E-01  0.13449923756E-01 -0.95675370688E-02  0.23419366976E-01  0.00000000000E+00 0. -1.
     999901    1    3    3    0    0 -0.64873729478E-01 -0.12575966964E+00 -0.26310335154E-01  0.89169295669E+00  0.88000000000E+00 0. -1.
        -11    1    4    4    0    0  0.29505513083E-01  0.84884562133E-01  0.20363985137E-01  0.92146173021E-01  0.51100000000E-03 0. -1.
         11    1    4    4    0    0  0.18754109890E-01  0.27425183748E-01  0.15513887086E-01  0.36671503309E-01  0.51100000000E-03 0.  1.
</event>
<event>
 8    1  0.1183092E+005  0.1043930E+01  0.7957747E-01            NaN
         13   -1    0    0    0    0  0.00000000000E+00  0.00000000000E+00  0.74505805969E-08  0.10566000000E+00  0.10566000000E+00 0. -1.
     999900   -1    0    0    0    0 -0.00000000000E+00 -0.00000000000E+00 -0.74505805969E-08  0.93827000000E+00  0.93827000000E+00 0. -1.
     999902    2    1    2    0    0 -0.99288032292E-02  0.21602183517E-01  0.14456183177E-02  0.10201114090E+01  0.10198333008E+01 0.  0.
     999903    2    3    3    0    0 -0.67897969790E-02 -0.26270920691E-01  0.12562964271E+00  0.13009828582E+00  0.20161702064E-01 0.  0.
         14    1    1    2    0    0  0.99288032292E-02 -0.21602183517E-01 -0.14456183177E-02  0.23818591029E-01  0.00000000000E+00 0. -1.
     999901    1    3    3    0    0 -0.31390062502E-02  0.47873104208E-01 -0.12418402439E+00  0.89001312315E+00  0.88000000000E+00 0. -1.
        -11    1    4    4    0    0 -0.16065274995E-02 -0.61917707260E-02  0.76503177380E-01  0.76771845266E-01  0.51100000000E-03 0. -1.
         11    1    4    4    0    0 -0.51832694795E-02 -0.20079149965E-01  0.49126465326E-01  0.53326440555E-01  0.51100000000E-03 0.  1.
</event>
<event>
 8    1  0.1183092E+005  0.1043930E+01  0.7957747E-01            NaN
         13   -1    0    0    0    0  0.00000000000E+00  0.00000000000E+00  0.74505805969E-08  0.10566000000E+00  0.10566000000E+00 0.  1.
     999900   -1    0    0    0    0 -0.00000000000E+00 -0.00000000000E+00 -0.74505805969E-08  0.93827000000E+00  0.93827000000E+00 0.  1.
     999902    2    1    2    0    0 -0.19706506700E-01  0.44836021637E-02  0.13368411919E-01  0.10196985425E+01  0.10194105915E+01 0.  0.
     999903    2    3    3    0    0 -0.12921733442E+00  0.20052095783E-01  0.11213390569E-01  0.13277146349E+00  0.20082712201E-01 0.  0.
         14    1    1    2    0    0  0.19706506700E-01 -0.44836021637E-02 -0.13368411919E-01  0.24231457486E-01  0.00000000000E+00 0. -1.
     999901    1    3    3    0    0  0.10951082772E+00 -0.15568493619E-01  0.21550213501E-02  0.88692707902E+00  0.88000000000E+00 0.  1.
        -11    1    4    4    0    0 -0.78103986627E-01  0.13643363249E-01  0.16493078788E-01  0.80985534861E-01  0.51100000000E-03 0. -1.
         11    1    4    4    0    0 -0.51113347796E-01  0.64087325341E-02 -0.52796882190E-02  0.51785928633E-01  0.51100000000E-03 0.  1.
</event>
<event>
 8    1  0.1183092E+005  0.1043930E+01  0.7957747E-01            NaN
         13   -1    0    0    0    0  0.00000000000E+00  0.00000000000E+00  0.74505805969E-08  0.10566000000E+00  0.10566000000E+00 0.  1.
     999900   -1    0    0    0    0 -0.00000000000E+00 -0.00000000000E+00 -0.74505805969E-08  0.93827000000E+00  0.93827000000E+00 0. -1.
     999902    2    1    2    0    0  0.14369619967E-01 -0.40484366898E-02  0.18835225489E-01  0.10198958256E+01  0.10196125998E+01 0.  0.
     999903    2    3    3    0    0  0.89431687062E-01  0.92208445149E-01  0.17081612227E-02  0.13130534767E+00  0.27161599818E-01 0.  0.
         14    1    1    2    0    0 -0.14369619967E-01  0.40484366898E-02 -0.18835225489E-01  0.24034174354E-01  0.00000000000E+00 0. -1.
     999901    1    3    3    0    0 -0.75062067095E-01 -0.96256881839E-01  0.17127064267E-01  0.88859047798E+00  0.88000000000E+00 0.  1.
        -11    1    4    4    0    0  0.22796238278E-01  0.39589598235E-01  0.70620630595E-02  0.46229196659E-01  0.51100000000E-03 0. -1.
         11    1    4    4    0    0  0.66635448784E-01  0.52618846914E-01 -0.53539018368E-02  0.85076151012E-01  0.51100000000E-03 0.  1.
</event>
<event>
 8    1  0.1183092E+005  0.1043930E+01  0.7957747E-01            NaN
         13   -1    0    0    0    0  0.00000000000E+00  0.00000000000E+00  0.74505805969E-08  0.10566000000E+00  0.10566000000E+00 0. -1.
     999900   -1    0    0    0    0 -0.00000000000E+00 -0.00000000000E+00 -0.74505805969E-08  0.93827000000E+00  0.93827000000E+00 0. -1.
     999902    2    1    2    0    0 -0.39041478809E-02  0.19233078406E-01  0.13237062175E-01  0.10202577908E+01  0.10199831303E+01 0.  0.
     999903    2    3    3    0    0 -0.81932305130E-01 -0.32872106674E-01 -0.91783693741E-01  0.12906044852E+00  0.20949341595E-01 0.  0.
         14    1    1    2    0    0  0.39041478809E-02 -0.19233078406E-01 -0.13237062175E-01  0.23672209248E-01  0.00000000000E+00 0.  1.
     999901    1    3    3    0    0  0.78028157249E-01  0.52105185080E-01  0.10502075592E+00  0.89119734224E+00  0.88000000000E+00 0.  1.
        -11    1    4    4    0    0 -0.20152531334E-01 -0.45630913247E-02 -0.34320275533E-01  0.40063558944E-01  0.51100000000E-03 0.  1.
         11    1    4    4    0    0 -0.61779773796E-01 -0.28309015349E-01 -0.57463418208E-01  0.88996889572E-01  0.51100000000E-03 0. -1.
</event>
<event>
 8    1  0.1183092E+005  0.1043930E+01  0.7957747E-01            NaN
         13   -1    0    0    0    0  0.00000000000E+00  0.00000000000E+00  0.74505805969E-08  0.10566000000E+00  0.10566000000E+00 0.  1.
     999900   -1    0    0    0    0 -0.00000000000E+00 -0.00000000000E+00 -0.74505805969E-08  0.93827000000E+00  0.93827000000E+00 0.  1.
     999902    2    1    2    0    0 -0.13501041875E-01  0.16232742473E-01 -0.12080539392E-01  0.10196047150E+01  0.10193145026E+01 0.  0.
     999903    2    3    3    0    0  0.68083757068E-01 -0.42180453425E-01 -0.99757112031E-01  0.12957361312E+00  0.20573069474E-01 0.  0.
         14    1    1    2    0    0  0.13501041875E-01 -0.16232742473E-01  0.12080539392E-01  0.24325285032E-01  0.00000000000E+00 0. -1.
     999901    1    3    3    0    0 -0.81584798943E-01  0.58413195898E-01  0.87676572638E-01  0.89003110185E+00  0.88000000000E+00 0. -1.
        -11    1    4    4    0    0  0.18030094127E-01 -0.38147008788E-02 -0.32551581604E-01  0.37409929470E-01  0.51100000000E-03 0.  1.
         11    1    4    4    0    0  0.50053662942E-01 -0.38365752546E-01 -0.67205530427E-01  0.92163683646E-01  0.51100000000E-03 0. -1.
</event>
<event>
 8    1  0.1183092E+005  0.1043930E+01  0.7957747E-01            NaN
         13   -1    0    0    0    0  0.00000000000E+00  0.00000000000E+00  0.74505805969E-08  0.10566000000E+00  0.10566000000E+00 0. -1.
     999900   -1    0    0    0    0 -0.00000000000E+00 -0.00000000000E+00 -0.74505805969E-08  0.93827000000E+00  0.93827000000E+00 0. -1.
     999902    2    1    2    0    0 -0.18977845064E-01 -0.12047421751E-01  0.10679325557E-01  0.10190433174E+01  0.10187393856E+01 0.  0.
     999903    2    3    3    0    0 -0.41940021043E-01 -0.33218217547E-01  0.11911629231E+00  0.13183756911E+00  0.18166953355E-01 0.  0.
         14    1    1    2    0    0  0.18977845064E-01  0.12047421751E-01 -0.10679325557E-01  0.24886682552E-01  0.00000000000E+00 0.  1.
     999901    1    3    3    0    0  0.22962175979E-01  0.21170795796E-01 -0.10843696675E+00  0.88720574833E+00  0.88000000000E+00 0. -1.
        -11    1    4    4    0    0 -0.25728733172E-01 -0.15409113568E-01  0.84495729932E-01  0.89661574765E-01  0.51100000000E-03 0.  1.
         11    1    4    4    0    0 -0.16211287870E-01 -0.17809103979E-01  0.34620562376E-01  0.42175994347E-01  0.51100000000E-03 0. -1.
</event>
<event>
 8    1  0.1183092E+005  0.1043930E+01  0.7957747E-01            NaN
         13   -1    0    0    0    0  0.00000000000E+00  0.00000000000E+00  0.74505805969E-08  0.10566000000E+00  0.10566000000E+00 0.  1.
     999900   -1    0    0    0    0 -0.00000000000E+00 -0.00000000000E+00 -0.74505805969E-08  0.93827000000E+00  0.93827000000E+00 0. -1.
     999902    2    1    2    0    0  0.15692796296E-02 -0.17798678753E-01  0.15209652413E-01  0.10204653643E+01  0.10201955550E+01 0.  0.
     999903    2    3    3    0    0 -0.47859089648E-02 -0.66609478032E-01  0.11378428979E+00  0.13359454972E+00  0.20997895698E-01 0.  0.
         14    1    1    2    0    0 -0.15692796296E-02  0.17798678753E-01 -0.15209652413E-01  0.23464635740E-01  0.00000000000E+00 0. -1.
     999901    1    3    3    0    0  0.63551885945E-02  0.48810799279E-01 -0.98574637377E-01  0.88687081454E+00  0.88000000000E+00 0. -1.
        -11    1    4    4    0    0  0.75556291939E-02 -0.39098509465E-01  0.66431520169E-01  0.77454431557E-01  0.51100000000E-03 0. -1.
         11    1    4    4    0    0 -0.12341538159E-01 -0.27510968567E-01  0.47352769621E-01  0.56140118163E-01  0.51100000000E-03 0.  1.
</event>
<event>
 8    1  0.1183092E+005  0.1043930E+01  0.7957747E-01            NaN
         13   -1    0    0    0    0  0.00000000000E+00  0.00000000000E+00  0.74505805969E-08  0.10566000000E+00  0.10566000000E+00 0.  1.
     999900   -1    0    0    0    0 -0.00000000000E+00 -0.00000000000E+00 -0.74505805969E-08  0.93827000000E+00  0.93827000000E+00 0. -1.
     999902    2    1    2    0    0 -0.15994642262E-01 -0.89308816789E-02  0.12717295421E-02  0.10255668161E+01  0.10254024028E+01 0.  0.
     999903    2    3    3    0    0  0.10335786396E+00  0.44381691989E-01  0.68768923354E-01  0.13335432879E+00  0.20040697658E-01 0.  0.
         14    1    1    2    0    0  0.15994642262E-01  0.89308816789E-02 -0.12717295421E-02  0.18363183947E-01  0.00000000000E+00 0.  1.
     999901    1    3    3    0    0 -0.11935250622E+00 -0.53312573668E-01 -0.67497193812E-01  0.89221248726E+00  0.88000000000E+00 0. -1.
        -11    1    4    4    0    0  0.76243849026E-01  0.23076242436E-01  0.45318195494E-01  0.91649535967E-01  0.51100000000E-03 0.  1.
         11    1    4    4    0    0  0.27114014932E-01  0.21305449553E-01  0.23450727860E-01  0.41704792825E-01  0.51100000000E-03 0. -1.
</event>
<event>
 8    1  0.1183092E+005  0.1043930E+01  0.7957747E-01            NaN
         13   -1    0    0    0    0  0.00000000000E+00  0.00000000000E+00  0.74505805969E-08  0.10566000000E+00  0.10566000000E+00 0.  1.
     999900   -1    0    0    0    0 -0.00000000000E+00 -0.00000000000E+00 -0.74505805969E-08  0.93827000000E+00  0.93827000000E+00 0.  1.
     999902    2    1    2    0    0  0.13620300123E-01  0.18560597189E-01  0.57485818473E-02  0.10202012298E+01  0.10199252398E+01 0.  0.
     999903    2    3    3    0    0 -0.50523318192E-01 -0.10145065296E+00  0.56170877536E-01  0.12831586054E+00  0.21562743727E-01 0.  0.
         14    1    1    2    0    0 -0.13620300123E-01 -0.18560597189E-01 -0.57485818473E-02  0.23728770232E-01  0.00000000000E+00 0. -1.
     999901    1    3    3    0    0  0.64143618315E-01  0.12001125015E+00 -0.50422295689E-01  0.89188536922E+00  0.88000000000E+00 0. -1.
        -11    1    4    4    0    0 -0.20149075469E-01 -0.42922216941E-01  0.35413254671E-01  0.59183288830E-01  0.51100000000E-03 0.  1.
         11    1    4    4    0    0 -0.30374242723E-01 -0.58528436019E-01  0.20757622865E-01  0.69132571714E-01  0.51100000000E-03 0. -1.
</event>
<event>
 8    1  0.1183092E+005  0.1043930E+01  0.7957747E-01            NaN
         13   -1    0    0    0    0  0.00000000000E+00  0.00000000000E+00  0.74505805969E-08  0.10566000000E+00  0.10566000000E+00 0. -1.
     999900   -1    0    0    0    0 -0.00000000000E+00 -0.00000000000E+00 -0.74505805969E-08  0.93827000000E+00  0.93827000000E+00 0.  1.
     999902    2    1    2    0    0 -0.10189311653E-01 -0.20951078293E-01 -0.91490661370E-03  0.10206146229E+01  0.10203482747E+01 0.  0.
     999903    2    3    3    0    0 -0.93511884197E-01  0.87595110521E-01  0.95834103828E-02  0.12997713166E+00  0.19617266039E-01 0.  0.
         14    1    1    2    0    0  0.10189311653E-01  0.20951078293E-01  0.91490661370E-03  0.23315377066E-01  0.00000000000E+00 0.  1.
     999901    1    3    3    0    0  0.83322572544E-01 -0.10854618881E+00 -0.10498316996E-01  0.89063749127E+00  0.88000000000E+00 0.  1.
        -11    1    4    4    0    0 -0.25949135303E-01  0.32965957221E-01 -0.35352047827E-02  0.42105471762E-01  0.51100000000E-03 0.  1.
         11    1    4    4    0    0 -0.67562748895E-01  0.54629153300E-01  0.13118615165E-01  0.87871659899E-01  0.51100000000E-03 0. -1.
</event>
<event>
 7    1  0.1183092E+005  0.1043930E+01  0.7957747E-01            NaN
         13   -1    0    0    0    0  0.00000000000E+00  0.00000000000E+00  0.74505805969E-08  0.10566000000E+00  0.10566000000E+00 0.  1.
     999900   -1    0    0    0    0 -0.00000000000E+00 -0.00000000000E+00 -0.74505805969E-08  0.93827000000E+00  0.93827000000E+00 0.  1.
     999903    2    1    2    0    0 -0.23151053610E-01 -0.41165282944E-01 -0.19806686063E-01  0.56233198179E-01  0.23223177249E-01 0.  0.
         14    1    1    2    0    0  0.83755395548E-01  0.61502604539E-01  0.17502838620E-01  0.10537497809E+00  0.00000000000E+00 0. -1.
     999901    1    1    2    0    0 -0.60604341938E-01 -0.20337321595E-01  0.23038474430E-02  0.88232182373E+00  0.88000000000E+00 0.  1.
        -11    1    3    3    0    0 -0.19821974641E-01 -0.12685013779E-01 -0.12437649706E-01  0.26622856805E-01  0.51100000000E-03 0. -1.
         11    1    3    3    0    0 -0.33290789694E-02 -0.28480269165E-01 -0.73690363571E-02  0.29610341375E-01  0.51100000000E-03 0.  1.
</event>
<event>
 8    1  0.1183092E+005  0.1043930E+01  0.7957747E-01            NaN
         13   -1    0    0    0    0  0.00000000000E+00  0.00000000000E+00  0.74505805969E-08  0.10566000000E+00  0.10566000000E+00 0. -1.
     999900   -1    0    0    0    0 -0.00000000000E+00 -0.00000000000E+00 -0.74505805969E-08  0.93827000000E+00  0.93827000000E+00 0.  1.
     999902    2    1    2    0    0 -0.31161524904E-02  0.99279643489E-02  0.21481209220E-01  0.10200612499E+01  0.10197819553E+01 0.  0.
     999903    2    3    3    0    0  0.60231809570E-02  0.11735481383E+00 -0.52883207715E-01  0.13036797582E+00  0.19767256397E-01 0.  0.
         14    1    1    2    0    0  0.31161524904E-02 -0.99279643489E-02 -0.21481209220E-01  0.23868750114E-01  0.00000000000E+00 0.  1.
     999901    1    3    3    0    0 -0.91393334474E-02 -0.10742684948E+00  0.74364416935E-01  0.88969327406E+00  0.88000000000E+00 0. -1.
        -11    1    4    4    0    0 -0.61935652936E-02  0.65817546565E-01 -0.31760205387E-01  0.73343584956E-01  0.51100000000E-03 0.  1.
         11    1    4    4    0    0  0.12216746251E-01  0.51537267260E-01 -0.21123002328E-01  0.57024390869E-01  0.51100000000E-03 0. -1.
</event>
<event>
 8    1  0.1183092E+005  0.1043930E+01  0.7957747E-01            NaN
         13   -1    0    0    0    0  0.00000000000E+00  0.00000000000E+00  0.74505805969E-08  0.10566000000E+00  0.10566000000E+00 0.  1.
     999900   -1    0    0    0    0 -0.00000000000E+00 -0.00000000000E+00 -0.74505805969E-08  0.93827000000E+00  0.93827000000E+00 0. -1.
     999902    2    1    2    0    0 -0.18543055009E-01 -0.14255347312E-01  0.10283651273E-02  0.10205180938E+01  0.10202495099E+01 0.  0.
     999903    2    3    3    0    0  0.82991854636E-01  0.75671105041E-01  0.58646498933E-01  0.12826479231E+00  0.19966998681E-01 0.  0.
         14    1    1    2    0    0  0.18543055009E-01  0.14255347312E-01 -0.10283651273E-02  0.23411906178E-01  0.00000000000E+00 0. -1.
     999901    1    3    3    0    0 -0.10153490964E+00 -0.89926452353E-01 -0.57618133805E-01  0.89225330151E+00  0.88000000000E+00 0.  1.
        -11    1    4    4    0    0  0.22248253098E-02  0.82363703256E-02  0.70329640385E-02  0.11068484448E-01  0.51100000000E-03 0.  1.
         11    1    4    4    0    0  0.80767029326E-01  0.67434734715E-01  0.51613534894E-01  0.11719630787E+00  0.51100000000E-03 0. -1.
</event>
<event>
 8    1  0.1183092E+005  0.1043930E+01  0.7957747E-01            NaN
         13   -1    0    0    0    0  0.00000000000E+00  0.00000000000E+00  0.74505805969E-08  0.10566000000E+00  0.10566000000E+00 0.  1.
     999900   -1    0    0    0    0 -0.00000000000E+00 -0.00000000000E+00 -0.74505805969E-08  0.93827000000E+00  0.93827000000E+00 0.  1.
     999902    2    1    2    0    0 -0.13161845496E-01  0.21044518090E-01 -0.49663614015E-03  0.10191035511E+01  0.10188011068E+01 0.  0.
     999903    2    3    3    0    0  0.12036164909E+00  0.36253466307E-01 -0.19412833131E-01  0.12870046359E+00  0.19639522541E-01 0.  0.
         14    1    1    2    0    0  0.13161845496E-01 -0.21044518090E-01  0.49663614015E-03  0.24826448919E-01  0.00000000000E+00 0. -1.
     999901    1    3    3    0    0 -0.13352349459E+00 -0.15208948217E-01  0.18916196991E-01  0.89040308750E+00  0.88000000000E+00 0. -1.
        -11    1    4    4    0    0  0.81622142790E-01  0.16186242940E-01 -0.79732193767E-02  0.83594270152E-01  0.51100000000E-03 0. -1.
         11    1    4    4    0    0  0.38739506302E-01  0.20067223367E-01 -0.11439613754E-01  0.45106193433E-01  0.51100000000E-03 0.  1.
</event>
<event>
 8    1  0.1183092E+005  0.1043930E+01  0.7957747E-01            NaN
         13   -1    0    0    0    0  0.00000000000E+00  0.00000000000E+00  0.74505805969E-08  0.10566000000E+00  0.10566000000E+00 0. -1.
     999900   -1    0    0    0    0 -0.00000000000E+00 -0.00000000000E+00 -0.74505805969E-08  0.93827000000E+00  0.93827000000E+00 0.  1.
     999902    2    1    2    0    0 -0.67851196523E-03 -0.91163077301E-02  0.24247554433E-01  0.10180164641E+01  0.10176865971E+01 0.  0.
     999903    2    3    3    0    0 -0.66335850203E-01  0.10407572584E-01  0.11077067377E+00  0.13112395760E+00  0.20361421842E-01 0.  0.
         14    1    1    2    0    0  0.67851196523E-03  0.91163077301E-02 -0.24247554433E-01  0.25913535866E-01  0.00000000000E+00 0.  1.
     999901    1    3    3    0    0  0.65657338238E-01 -0.19523880314E-01 -0.86523119339E-01  0.88689250653E+00  0.88000000000E+00 0.  1.
        -11    1    4    4    0    0 -0.66769181600E-01  0.85428918351E-02  0.10256382811E+00  0.12268131305E+00  0.51100000000E-03 0.  1.
         11    1    4    4    0    0  0.43333139673E-03  0.18646807485E-02  0.82068456587E-02  0.84426445536E-02  0.51100000000E-03 0. -1.
</event>
<event>
 8    1  0.1183092E+005  0.1043930E+01  0.7957747E-01            NaN
         13   -1    0    0    0    0  0.00000000000E+00  0.00000000000E+00  0.74505805969E-08  0.10566000000E+00  0.10566000000E+00 0. -1.
     999900   -1    0    0    0    0 -0.00000000000E+00 -0.00000000000E+00 -0.74505805969E-08  0.93827000000E+00  0.93827000000E+00 0.  1.
     999902    2    1    2    0    0  0.12095380527E-02  0.15671191220E-01 -0.18073200687E-01  0.10199781775E+01  0.10196969122E+01 0.  0.
     999903    2    3    3    0    0  0.73249268768E-01  0.32689992953E-01 -0.10381141697E+00  0.13271812312E+00  0.20079813210E-01 0.  0.
         14    1    1    2    0    0 -0.12095380527E-02 -0.15671191220E-01  0.18073200687E-01  0.23951822469E-01  0.00000000000E+00 0. -1.
     999901    1    3    3    0    0 -0.72039730715E-01 -0.17018801733E-01  0.85738216281E-01  0.88726005441E+00  0.88000000000E+00 0.  1.
        -11    1    4    4    0    0  0.30162828808E-01  0.20900103437E-01 -0.58712030419E-01  0.69238531197E-01  0.51100000000E-03 0.  1.
         11    1    4    4    0    0  0.43086439960E-01  0.11789889516E-01 -0.45099386548E-01  0.63479591928E-01  0.51100000000E-03 0. -1.
</event>
<event>
 8    1  0.1183092E+005  0.1043930E+01  0.7957747E-01            NaN
         13   -1    0    0    0    0  0.00000000000E+00  0.00000000000E+00  0.74505805969E-08  0.10566000000E+00  0.10566000000E+00 0. -1.
     999900   -1    0    0    0    0 -0.00000000000E+00 -0.00000000000E+00 -0.74505805969E-08  0.93827000000E+00  0.93827000000E+00 0. -1.
     999902    2    1    2    0    0 -0.73180430326E-02  0.34518527048E-02  0.22629244841E-01  0.10198976933E+01  0.10196145120E+01 0.  0.
     999903    2    3    3    0    0  0.30692414267E-01 -0.12254058214E+00  0.25883226544E-01  0.13010587674E+00  0.17302577344E-01 0.  0.
         14    1    1    2    0    0  0.73180430326E-02 -0.34518527048E-02 -0.22629244841E-01  0.24032306652E-01  0.00000000000E+00 0.  1.
     999901    1    3    3    0    0 -0.38010457299E-01  0.12599243484E+00 -0.32539817026E-02  0.88979181661E+00  0.88000000000E+00 0.  1.
        -11    1    4    4    0    0  0.17000930430E-01 -0.67946584424E-01  0.55642789415E-02  0.70263733829E-01  0.51100000000E-03 0. -1.
         11    1    4    4    0    0  0.13691483836E-01 -0.54593997712E-01  0.20318947602E-01  0.59842142914E-01  0.51100000000E-03 0.  1.
</event>
<event>
 8    1  0.1183092E+005  0.1043930E+01  0.7957747E-01            NaN
         13   -1    0    0    0    0  0.00000000000E+00  0.00000000000E+00  0.74505805969E-08  0.10566000000E+00  0.10566000000E+00 0. -1.
     999900   -1    0    0    0    0 -0.00000000000E+00 -0.00000000000E+00 -0.74505805969E-08  0.93827000000E+00  0.93827000000E+00 0.  1.
     999902    2    1    2    0    0  0.10673801485E-01 -0.16430579686E-01 -0.12229079831E-01  0.10208335851E+01  0.10205722729E+01 0.  0.
     999903    2    3    3    0    0 -0.49377127282E-01 -0.50262046733E-01  0.10743902354E+00  0.13006361640E+00  0.20224403338E-01 0.  0.
         14    1    1    2    0    0 -0.10673801485E-01  0.16430579686E-01  0.12229079831E-01  0.23096414883E-01  0.00000000000E+00 0. -1.
     999901    1    3    3    0    0  0.60050928767E-01  0.33831467047E-01 -0.11966810337E+00  0.89076996872E+00  0.88000000000E+00 0.  1.
        -11    1    4    4    0    0 -0.31289728085E-01 -0.25240217140E-01  0.76102048317E-01  0.86069149664E-01  0.51100000000E-03 0. -1.
         11    1    4    4    0    0 -0.18087399197E-01 -0.25021829593E-01  0.31336975224E-01  0.43994466733E-01  0.51100000000E-03 0.  1.
</event>
<event>
 8    1  0.1183092E+005  0.1043930E+01  0.7957747E-01            NaN
         13   -1    0    0    0    0  0.00000000000E+00  0.00000000000E+00  0.74505805969E-08  0.10566000000E+00  0.10566000000E+00 0.  1.
     999900   -1    0    0    0    0 -0.00000000000E+00 -0.00000000000E+00 -0.74505805969E-08  0.93827000000E+00  0.93827000000E+00 0. -1.
     999902    2    1    2    0    0 -0.23100566494E-01 -0.42595893178E-02  0.70459143740E-02  0.10194060284E+01  0.10191109977E+01 0.  0.
     999903    2    3    3    0    0  0.91441896945E-01  0.41635807313E-01 -0.75580557470E-01  0.12696359485E+00  0.17668411973E-01 0.  0.
         14    1    1    2    0    0  0.23100566494E-01  0.42595893178E-02 -0.70459143740E-02  0.24523971596E-01  0.00000000000E+00 0. -1.
     999901    1    3    3    0    0 -0.11454246344E+00 -0.45895396630E-01  0.82626471844E-01  0.89244243356E+00  0.88000000000E+00 0.  1.
        -11    1    4    4    0    0  0.38190775455E-01  0.19096717323E-01 -0.42949859693E-01  0.60565431651E-01  0.51100000000E-03 0. -1.
         11    1    4    4    0    0  0.53251121490E-01  0.22539089990E-01 -0.32630697777E-01  0.66398163197E-01  0.51100000000E-03 0.  1.
</event>
<event>
 8    1  0.1183092E+005  0.1043930E+01  0.7957747E-01            NaN
         13   -1    0    0    0    0  0.00000000000E+00  0.00000000000E+00  0.74505805969E-08  0.10566000000E+00  0.10566000000E+00 0. -1.
     999900   -1    0    0    0    0 -0.00000000000E+00 -0.00000000000E+00 -0.74505805969E-08  0.93827000000E+00  0.93827000000E+00 0. -1.
     999902    2    1    2    0    0  0.18235348963E-01 -0.14653951965E-01  0.21845289389E-02  0.10204345020E+01  0.10201639743E+01 0.  0.
     999903    2    3    3    0    0  0.28249384038E-01  0.89138412037E-01 -0.87635274540E-01  0.12973773383E+00  0.20205297216E-01 0.  0.
         14    1    1    2    0    0 -0.18235348963E-01  0.14653951965E-01 -0.21845289389E-02  0.23495498009E-01  0.00000000000E+00 0. -1.
     999901    1    3    3    0    0 -0.10014035074E-01 -0.10379236400E+00  0.89819803479E-01  0.89069676817E+00  0.88000000000E+00 0.  1.
        -11    1    4    4    0    0  0.25614129405E-01  0.69095993244E-01 -0.78107082594E-01  0.10738397171E+00  0.51100000000E-03 0. -1.
         11    1    4    4    0    0  0.26352546325E-02  0.20042418792E-01 -0.95281919463E-02  0.22353762117E-01  0.51100000000E-03 0.  1.
</event>
<event>
 8    1  0.1183092E+005  0.1043930E+01  0.7957747E-01            NaN
         13   -1    0    0    0    0  0.00000000000E+00  0.00000000000E+00  0.74505805969E-08  0.10566000000E+00  0.10566000000E+00 0. -1.
     999900   -1    0    0    0    0 -0.00000000000E+00 -0.00000000000E+00 -0.74505805969E-08  0.93827000000E+00  0.93827000000E+00 0.  1.
     999902    2    1    2    0    0 -0.11182792234E-01  0.19585164065E-01 -0.48929810079E-02  0.10208524187E+01  0.10205915373E+01 0.  0.
     999903    2    3    3    0    0 -0.13965580469E-01  0.12143679403E+00 -0.50086399871E-01  0.13382144772E+00  0.21391587981E-01 0.  0.
         14    1    1    2    0    0  0.11182792234E-01 -0.19585164065E-01  0.48929810079E-02  0.23077581259E-01  0.00000000000E+00 0.  1.
     999901    1    3    3    0    0  0.27827882352E-02 -0.10185162997E+00  0.45193418863E-01  0.88703097102E+00  0.88000000000E+00 0. -1.
        -11    1    4    4    0    0 -0.11412709375E-01  0.54885436077E-01 -0.12845769202E-01  0.57514658445E-01  0.51100000000E-03 0.  1.
         11    1    4    4    0    0 -0.25528710940E-02  0.66551357954E-01 -0.37240630669E-01  0.76306789279E-01  0.51100000000E-03 0. -1.
</event>
<event>
 8    1  0.1183092E+005  0.1043930E+01  0.7957747E-01            NaN
         13   -1    0    0    0    0  0.00000000000E+00  0.00000000000E+00  0.74505805969E-08  0.10566000000E+00  0.10566000000E+00 0. -1.
     999900   -1    0    0    0    0 -0.00000000000E+00 -0.00000000000E+00 -0.74505805969E-08  0.93827000000E+00  0.93827000000E+00 0. -1.
     999902    2    1    2    0    0 -0.16079385750E-02  0.75203919091E-02 -0.24004223490E-01  0.10187239589E+01  0.10184120777E+01 0.  0.
     999903    2    3    3    0    0 -0.10935019788E+00 -0.44390569131E-01 -0.51172870773E-01  0.13021887864E+00  0.20255992873E-01 0.  0.
         14    1    1    2    0    0  0.16079385750E-02 -0.75203919091E-02  0.24004223490E-01  0.25206041067E-01  0.00000000000E+00 0. -1.
     999901    1    3    3    0    0  0.10774225930E+00  0.51910961040E-01  0.27168647283E-01  0.88850508030E+00  0.88000000000E+00 0. -1.
        -11    1    4    4    0    0 -0.57114460416E-01 -0.31988553964E-01 -0.21677022409E-01  0.68960014464E-01  0.51100000000E-03 0. -1.
         11    1    4    4    0    0 -0.52235737460E-01 -0.12402015167E-01 -0.29495848364E-01  0.61258864174E-01  0.51100000000E-03 0.  1.
</event>
<event>
 8    1  0.1183092E+005  0.1043930E+01  0.7957747E-01            NaN
         13   -1    0    0    0    0  0.00000000000E+00  0.00000000000E+00  0.74505805969E-08  0.10566000000E+00  0.10566000000E+00 0.  1.
     999900   -1    0    0    0    0 -0.00000000000E+00 -0.00000000000E+00 -0.74505805969E-08  0.93827000000E+00  0.93827000000E+00 0.  1.
     999902    2    1    2    0    0 -0.63992524250E-02  0.19899003654E-01 -0.12369594022E-01  0.10196415741E+01  0.10193522512E+01 0.  0.
     999903    2    3    3    0    0  0.43097949951E-01  0.11018260858E+00  0.52998188643E-01  0.13123060533E+00  0.20372119508E-01 0.  0.
         14    1    1    2    0    0  0.63992524250E-02 -0.19899003654E-01  0.12369594022E-01  0.24288425932E-01  0.00000000000E+00 0.  1.
     999901    1    3    3    0    0 -0.49497202376E-01 -0.90283604923E-01 -0.65367782665E-01  0.88841096874E+00  0.88000000000E+00 0.  1.
        -11    1    4    4    0    0  0.16309945903E-02  0.25138580052E-01  0.78250561512E-02  0.26383725574E-01  0.51100000000E-03 0. -1.
         11    1    4    4    0    0  0.41466955361E-01  0.85044028525E-01  0.45173132492E-01  0.10484687976E+00  0.51100000000E-03 0.  1.
</event>
<event>
 8    1  0.1183092E+005  0.1043930E+01  0.7957747E-01            NaN
         13   -1    0    0    0    0  0.00000000000E+00  0.00000000000E+00  0.74505805969E-08  0.10566000000E+00  0.10566000000E+00 0.  1.
     999900   -1    0    0    0    0 -0.00000000000E+00 -0.00000000000E+00 -0.74505805969E-08  0.93827000000E+00  0.93827000000E+00 0.  1.
     999902    2    1    2    0    0 -0.11741166457E-01 -0.32247160823E-02 -0.16023580963E-01  0.10238051663E+01  0.10236073513E+01 0.  0.
     999903    2    3    3    0    0 -0.41859394462E-01  0.11780294851E+00 -0.45100086567E-01  0.13453566475E+00  0.20882617121E-01 0.  0.
         14    1    1    2    0    0  0.11741166457E-01  0.32247160823E-02  0.16023580963E-01  0.20124833675E-01  0.00000000000E+00 0.  1.
     999901    1    3    3    0    0  0.30118228006E-01 -0.12102766460E+00  0.29076505604E-01  0.88926950158E+00  0.88000000000E+00 0. -1.
        -11    1    4    4    0    0 -0.44232050733E-02  0.40814369167E-01 -0.16936430237E-01  0.44412625049E-01  0.51100000000E-03 0.  1.
         11    1    4    4    0    0 -0.37436189389E-01  0.76988579347E-01 -0.28163656330E-01  0.90123039700E-01  0.51100000000E-03 0. -1.
</event>
<event>
 8    1  0.1183092E+005  0.1043930E+01  0.7957747E-01            NaN
         13   -1    0    0    0    0  0.00000000000E+00  0.00000000000E+00  0.74505805969E-08  0.10566000000E+00  0.10566000000E+00 0. -1.
     999900   -1    0    0    0    0 -0.00000000000E+00 -0.00000000000E+00 -0.74505805969E-08  0.93827000000E+00  0.93827000000E+00 0.  1.
     999902    2    1    2    0    0 -0.16493419816E-01  0.87265734133E-02 -0.14911715786E-01  0.10200439110E+01  0.10197642056E+01 0.  0.
     999903    2    3    3    0    0 -0.53550501989E-01 -0.11285361405E+00 -0.32521796876E-01  0.13073795448E+00  0.20764175948E-01 0.  0.
         14    1    1    2    0    0  0.16493419816E-01 -0.87265734133E-02  0.14911715786E-01  0.23886089015E-01  0.00000000000E+00 0. -1.
     999901    1    3    3    0    0  0.37057082173E-01  0.12158018746E+00  0.17610081090E-01  0.88930595651E+00  0.88000000000E+00 0. -1.
        -11    1    4    4    0    0 -0.41029172437E-01 -0.71422458974E-01 -0.13546683277E-01  0.83476549914E-01  0.51100000000E-03 0. -1.
         11    1    4    4    0    0 -0.12521329551E-01 -0.41431155072E-01 -0.18975113599E-01  0.47261404564E-01  0.51100000000E-03 0.  1.
</event>
<event>
 8    1  0.1183092E+005  0.1043930E+01  0.7957747E-01            NaN
         13   -1    0    0    0    0  0.00000000000E+00  0.00000000000E+00  0.74505805969E-08  0.10566000000E+00  0.10566000000E+00 0.  1.
     999900   -1    0    0    0    0 -0.00000000000E+00 -0.00000000000E+00 -0.74505805969E-08  0.93827000000E+00  0.93827000000E+00 0.  1.
     999902    2    1    2    0    0  0.39460244136E-02 -0.16504585539E-01 -0.16385171981E-01  0.10203408857E+01  0.10200681726E+01 0.  0.
     999903    2    3    3    0    0  0.68237115068E-01  0.10723773640E+00  0.10398159889E-01  0.12895833402E+00  0.19128361225E-01 0.  0.
         14    1    1    2    0    0 -0.39460244136E-02  0.16504585539E-01  0.16385171981E-01  0.23589114297E-01  0.00000000000E+00 0.  1.
     999901    1    3    3    0    0 -0.64291090654E-01 -0.12374232194E+00 -0.26783331870E-01  0.89138255168E+00  0.88000000000E+00 0.  1.
        -11    1    4    4    0    0  0.40368369601E-01  0.59634029222E-01  0.15148217958E-01  0.73590436429E-01  0.51100000000E-03 0.  1.
         11    1    4    4    0    0  0.27868745467E-01  0.47603707179E-01 -0.47500580690E-02  0.55367897592E-01  0.51100000000E-03 0. -1.
</event>
<event>
 8    1  0.1183092E+005  0.1043930E+01  0.7957747E-01            NaN
         13   -1    0    0    0    0  0.00000000000E+00  0.00000000000E+00  0.74505805969E-08  0.10566000000E+00  0.10566000000E+00 0.  1.
     999900   -1    0    0    0    0 -0.00000000000E+00 -0.00000000000E+00 -0.74505805969E-08  0.93827000000E+00  0.93827000000E+00 0. -1.
     999902    2    1    2    0    0  0.22083754561E-02 -0.12868208087E-01 -0.20356022764E-01  0.10197466304E+01  0.10194598349E+01 0.  0.
     999903    2    3    3    0    0 -0.65493556642E-01  0.10705896290E+00  0.17153115157E-01  0.12824620228E+00  0.20045736204E-01 0.  0.
         14    1    1    2    0    0 -0.22083754561E-02  0.12868208087E-01  0.20356022764E-01  0.24183369581E-01  0.00000000000E+00 0.  1.
     999901    1    3    3    0    0  0.67701932098E-01 -0.11992717099E+00 -0.37509137921E-01  0.89150042814E+00  0.88000000000E+00 0.  1.
        -11    1    4    4    0    0 -0.39114605754E-01  0.81222329208E-01  0.11274752015E-01  0.90853730244E-01  0.51100000000E-03 0. -1.
         11    1    4    4    0    0 -0.26378950887E-01  0.25836633692E-01  0.58783631421E-02  0.37392472032E-01  0.51100000000E-03 0.  1.
</event>
<event>
 8    1  0.1183092E+005  0.1043930E+01  0.7957747E-01            NaN
         13   -1    0    0    0    0  0.00000000000E+00  0.00000000000E+00  0.74505805969E-08  0.10566000000E+00  0.10566000000E+00 0. -1.
     999900   -1    0    0    0    0 -0.00000000000E+00 -0.00000000000E+00 -0.74505805969E-08  0.93827000000E+00  0.93827000000E+00 0. -1.
     999902    2    1    2    0    0 -0.38988146719E-02  0.46837407961E-02 -0.22201902230E-01  0.10209069106E+01  0.10206472738E+01 0.  0.
     999903    2    3    3    0    0 -0.38477104440E-01 -0.49499081702E-01  0.11041754549E+00  0.12865170365E+00  0.20702170090E-01 0.  0.
         14    1    1    2    0    0  0.38988146719E-02 -0.46837407961E-02  0.22201902230E-01  0.23023089418E-01  0.00000000000E+00 0. -1.
     999901    1    3    3    0    0  0.34578289768E-01  0.54182822498E-01 -0.13261944772E+00  0.89225520693E+00  0.88000000000E+00 0. -1.
        -11    1    4    4    0    0 -0.19452156577E-02 -0.11738615076E-01  0.11041917212E-01  0.16240812928E-01  0.51100000000E-03 0. -1.
         11    1    4    4    0    0 -0.36531888782E-01 -0.37760466627E-01  0.99375628275E-01  0.11241089073E+00  0.51100000000E-03 0.  1.
</event>
<event>
 8    1  0.1183092E+005  0.1043930E+01  0.7957747E-01            NaN
         13   -1    0    0    0    0  0.00000000000E+00  0.00000000000E+00  0.74505805969E-08  0.10566000000E+00  0.10566000000E+00 0.  1.
     999900   -1    0    0    0    0 -0.00000000000E+00 -0.00000000000E+00 -0.74505805969E-08  0.93827000000E+00  0.93827000000E+00 0. -1.
     999902    2    1    2    0    0 -0.21939284327E-01 -0.62613230896E-02 -0.63860616081E-02  0.10202378463E+01  0.10199627174E+01 0.  0.
     999903    2    3    3    0    0 -0.69989269623E-01  0.97106232095E-01 -0.51236942096E-01  0.13175303832E+00  0.20137544453E-01 0.  0.
         14    1    1    2    0    0  0.21939284327E-01  0.62613230896E-02  0.63860616081E-02  0.23692153690E-01  0.00000000000E+00 0.  1.
     999901    1    3    3    0    0  0.48049985296E-01 -0.10336755518E+00  0.44850880488E-01  0.88848480799E+00  0.88000000000E+00 0.  1.
        -11    1    4    4    0    0 -0.28021653741E-01  0.48957183625E-01 -0.32876176242E-01  0.65292595233E-01  0.51100000000E-03 0.  1.
         11    1    4    4    0    0 -0.41967615882E-01  0.48149048470E-01 -0.18360765854E-01  0.66460443086E-01  0.51100000000E-03 0. -1.
</event>
<event>
 8    1  0.1183092E+005  0.1043930E+01  0.7957747E-01            NaN
         13   -1    0    0    0    0  0.00000000000E+00  0.00000000000E+00  0.74505805969E-08  0.10566000000E+00  0.10566000000E+00 0.  1.
     999900   -1    0    0    0    0 -0.00000000000E+00 -0.00000000000E+00 -0.74505805969E-08  0.93827000000E+00  0.93827000000E+00 0. -1.
     999902    2    1    2    0    0  0.88828324940E-02 -0.17339792906E-01  0.14364676395E-01  0.10197242763E+01  0.10194369439E+01 0.  0.
     999903    2    3    3    0    0 -0.95096042798E-03 -0.10678773779E+00 -0.73199064738E-01  0.13081199319E+00  0.18685534941E-01 0.  0.
         14    1    1    2    0    0 -0.88828324940E-02  0.17339792906E-01 -0.14364676395E-01  0.24205723684E-01  0.00000000000E+00 0. -1.
     999901    1    3    3    0    0  0.98337929220E-02  0.89447944885E-01  0.87563741133E-01  0.88891228312E+00  0.88000000000E+00 0.  1.
        -11    1    4    4    0    0  0.48201104340E-02 -0.39092052365E-01 -0.18173590221E-01  0.43381592009E-01  0.51100000000E-03 0.  1.
         11    1    4    4    0    0 -0.57710708620E-02 -0.67695685426E-01 -0.55025474517E-01  0.87430401183E-01  0.51100000000E-03 0. -1.
</event>
<event>
 8    1  0.1183092E+005  0.1043930E+01  0.7957747E-01            NaN
         13   -1    0    0    0    0  0.00000000000E+00  0.00000000000E+00  0.74505805969E-08  0.10566000000E+00  0.10566000000E+00 0. -1.
     999900   -1    0    0    0    0 -0.00000000000E+00 -0.00000000000E+00 -0.74505805969E-08  0.93827000000E+00  0.93827000000E+00 0. -1.
     999902    2    1    2    0    0  0.20844020747E-01  0.50657592180E-02  0.87493564079E-02  0.10207635079E+01  0.10205005893E+01 0.  0.
     999903    2    3    3    0    0  0.62343133243E-01  0.31572887263E-01  0.11177642657E+00  0.13338569585E+00  0.20353398974E-01 0.  0.
         14    1    1    2    0    0 -0.20844020747E-01 -0.50657592180E-02 -0.87493564079E-02  0.23166492072E-01  0.00000000000E+00 0.  1.
     999901    1    3    3    0    0 -0.41499112495E-01 -0.26507128045E-01 -0.10302707016E+00  0.88737781207E+00  0.88000000000E+00 0. -1.
        -11    1    4    4    0    0  0.10424050466E-01  0.12495080160E-01  0.16268445321E-01  0.23015457643E-01  0.51100000000E-03 0. -1.
         11    1    4    4    0    0  0.51919082776E-01  0.19077807102E-01  0.95507981246E-01  0.11037023821E+00  0.51100000000E-03 0.  1.
</event>
<event>
 8    1  0.1183092E+005  0.1043930E+01  0.7957747E-01            NaN
         13   -1    0    0    0    0  0.00000000000E+00  0.00000000000E+00  0.74505805969E-08  0.10566000000E+00  0.10566000000E+00 0. -1.
     999900   -1    0    0    0    0 -0.00000000000E+00 -0.00000000000E+00 -0.74505805969E-08  0.93827000000E+00  0.93827000000E+00 0.  1.
     999902    2    1    2    0    0 -0.78794757365E-02  0.23597282194E-01  0.75810859805E-02  0.10179224871E+01  0.10175901920E+01 0.  0.
     999903    2    3    3    0    0  0.10455811529E+00  0.64738219228E-01  0.35097537713E-01  0.12938889529E+00  0.19652291756E-01 0.  0.
         14    1    1    2    0    0  0.78794757365E-02 -0.23597282194E-01 -0.75810859805E-02  0.26007512943E-01  0.00000000000E+00 0.  1.
     999901    1    3    3    0    0 -0.11243759102E+00 -0.41140937034E-01 -0.27516451732E-01  0.88853359176E+00  0.88000000000E+00 0.  1.
        -11    1    4    4    0    0  0.71746119468E-01  0.54674647669E-01  0.24785293189E-01  0.93548889015E-01  0.51100000000E-03 0.  1.
         11    1    4    4    0    0  0.32811995817E-01  0.10063571559E-01  0.10312244524E-01  0.35840006280E-01  0.51100000000E-03 0. -1.
</event>
<event>
 8    1  0.1183092E+005  0.1043930E+01  0.7957747E-01            NaN
         13   -1    0    0    0    0  0.00000000000E+00  0.00000000000E+00  0.74505805969E-08  0.10566000000E+00  0.10566000000E+00 0.  1.
     999900   -1    0    0    0    0 -0.00000000000E+00 -0.00000000000E+00 -0.74505805969E-08  0.93827000000E+00  0.93827000000E+00 0.  1.
     999902    2    1    2    0    0  0.70541809386E-02 -0.17674174625E-01  0.16248700041E-01  0.10189068473E+01  0.10185995314E+01 0.  0.
     999903    2    3    3    0    0 -0.51232978525E-01 -0.46287390881E-01  0.10930321430E+00  0.13162152019E+00  0.24691927377E-01 0.  0.
         14    1    1    2    0    0 -0.70541809386E-02  0.17674174625E-01 -0.16248700041E-01  0.25023152687E-01  0.00000000000E+00 0. -1.
     999901    1    3    3    0    0  0.58287159464E-01  0.28613216256E-01 -0.93054514260E-01  0.88728532712E+00  0.88000000000E+00 0.  1.
        -11    1    4    4    0    0 -0.22763275291E-01 -0.31265710685E-01  0.76148294007E-01  0.85408050954E-01  0.51100000000E-03 0.  1.
         11    1    4    4    0    0 -0.28469703234E-01 -0.15021680196E-01  0.33154920294E-01  0.46213469236E-01  0.51100000000E-03 0. -1.
</event>
<event>
 8    1  0.1183092E+005  0.1043930E+01  0.7957747E-01            NaN
         13   -1    0    0    0    0  0.00000000000E+00  0.00000000000E+00  0.74505805969E-08  0.10566000000E+00  0.10566000000E+00 0. -1.
     999900   -1    0    0    0    0 -0.00000000000E+00 -0.00000000000E+00 -0.74505805969E-08  0.93827000000E+00  0.93827000000E+00 0.  1.
     999902    2    1    2    0    0  0.11891772792E-01  0.67216023375E-02 -0.19255145984E-01  0.10203216361E+01  0.10200484725E+01 0.  0.
     999903    2    3    3    0    0 -0.56416796380E-01  0.11586552724E+00 -0.11746114185E-01  0.13092024051E+00  0.19861089069E-01 0.  0.
         14    1    1    2    0    0 -0.11891772792E-01 -0.67216023375E-02  0.19255145984E-01  0.23608363878E-01  0.00000000000E+00 0. -1.
     999901    1    3    3    0    0  0.68308569171E-01 -0.10914392490E+00 -0.75090317994E-02  0.88940139562E+00  0.88000000000E+00 0. -1.
        -11    1    4    4    0    0 -0.43425635955E-01  0.80590184900E-01 -0.46448550154E-04  0.91546857066E-01  0.51100000000E-03 0. -1.
         11    1    4    4    0    0 -0.12991160425E-01  0.35275342342E-01 -0.11699665635E-01  0.39373383439E-01  0.51100000000E-03 0.  1.
</event>
<event>
 8    1  0.1183092E+005  0.1043930E+01  0.7957747E-01            NaN
         13   -1    0    0    0    0  0.00000000000E+00  0.00000000000E+00  0.74505805969E-08  0.10566000000E+00  0.10566000000E+00 0. -1.
     999900   -1    0    0    0    0 -0.00000000000E+00 -0.00000000000E+00 -0.74505805969E-08  0.93827000000E+00  0.93827000000E+00 0.  1.
     999902    2    1    2    0    0  0.17684330966E-02 -0.19124368174E-01  0.12018944962E-01  0.10212733486E+01  0.10210220021E+01 0.  0.
     999903    2    3    3    0    0 -0.55248818801E-01 -0.11166687276E+00  0.45006157265E-01  0.13397225072E+00  0.20027164562E-01 0.  0.
         14    1    1    2    0    0 -0.17684330966E-02  0.19124368174E-01 -0.12018944962E-01  0.22656651378E-01  0.00000000000E+00 0.  1.
     999901    1    3    3    0    0  0.57017251898E-01  0.92542504581E-01 -0.32987212303E-01  0.88730109791E+00  0.88000000000E+00 0.  1.
        -11    1    4    4    0    0 -0.39609304276E-01 -0.57956480362E-01  0.26772361966E-01  0.75132357127E-01  0.51100000000E-03 0. -1.
         11    1    4    4    0    0 -0.15639514525E-01 -0.53710392394E-01  0.18233795299E-01  0.58839893590E-01  0.51100000000E-03 0.  1.
</event>
<event>
 8    1  0.1183092E+005  0.1043930E+01  0.7957747E-01            NaN
         13   -1    0    0    0    0  0.00000000000E+00  0.00000000000E+00  0.74505805969E-08  0.10566000000E+00  0.10566000000E+00 0. -1.
     999900   -1    0    0    0    0 -0.00000000000E+00 -0.00000000000E+00 -0.74505805969E-08  0.93827000000E+00  0.93827000000E+00 0. -1.
     999902    2    1    2    0    0  0.22461154850E-01 -0.30558711527E-02 -0.42228580421E-02  0.10208719351E+01  0.10206114998E+01 0.  0.
     999903    2    3    3    0    0  0.98242417825E-01  0.77874553567E-01  0.37961071967E-01  0.13291246679E+00  0.22553538281E-01 0.  0.
         14    1    1    2    0    0 -0.22461154850E-01  0.30558711527E-02  0.42228580421E-02  0.23058064874E-01  0.00000000000E+00 0.  1.
     999901    1    3    3    0    0 -0.75781262975E-01 -0.80930424720E-01 -0.42183930009E-01  0.88795946834E+00  0.88000000000E+00 0. -1.
        -11    1    4    4    0    0  0.13588048919E-01  0.14373976940E-01 -0.17910480913E-02  0.19867442229E-01  0.51100000000E-03 0.  1.
         11    1    4    4    0    0  0.84654368906E-01  0.63500576628E-01  0.39752120058E-01  0.11304502456E+00  0.51100000000E-03 0. -1.
</event>
<event>
 8    1  0.1183092E+005  0.1043930E+01  0.7957747E-01            NaN
         13   -1    0    0    0    0  0.00000000000E+00  0.00000000000E+00  0.74505805969E-08  0.10566000000E+00  0.10566000000E+00 0.  1.
     999900   -1    0    0    0    0 -0.00000000000E+00 -0.00000000000E+00 -0.74505805969E-08  0.93827000000E+00  0.93827000000E+00 0. -1.
     999902    2    1    2    0    0  0.19237224951E-01  0.12488843854E-01  0.68682924848E-02  0.10199880810E+01  0.10197070510E+01 0.  0.
     999903    2    3    3    0    0  0.10066978570E+00  0.79392102447E-01 -0.28727823159E-01  0.13298504186E+00  0.20548037652E-01 0.  0.
         14    1    1    2    0    0 -0.19237224951E-01 -0.12488843854E-01 -0.68682924848E-02  0.23941919019E-01  0.00000000000E+00 0. -1.
     999901    1    3    3    0    0 -0.81432560749E-01 -0.66903258592E-01  0.35596115644E-01  0.88700303912E+00  0.88000000000E+00 0.  1.
        -11    1    4    4    0    0  0.32748354832E-01  0.30774025193E-01 -0.19348922985E-01  0.48929922466E-01  0.51100000000E-03 0. -1.
         11    1    4    4    0    0  0.67921430868E-01  0.48618077253E-01 -0.93789001737E-02  0.84055119395E-01  0.51100000000E-03 0.  1.
</event>
<event>
 8    1  0.1183092E+005  0.1043930E+01  0.7957747E-01            NaN
         13   -1    0    0    0    0  0.00000000000E+00  0.00000000000E+00  0.74505805969E-08  0.10566000000E+00  0.10566000000E+00 0. -1.
     999900   -1    0    0    0    0 -0.00000000000E+00 -0.00000000000E+00 -0.74505805969E-08  0.93827000000E+00  0.93827000000E+00 0. -1.
     999902    2    1    2    0    0  0.22988231139E-01 -0.87434010891E-03 -0.25405668121E-02  0.10207852874E+01  0.10205228686E+01 0.  0.
     999903    2    3    3    0    0 -0.83209628115E-01  0.67493412252E-01 -0.69428627635E-01  0.12925505934E+00  0.20182495391E-01 0.  0.
         14    1    1    2    0    0 -0.22988231139E-01  0.87434010891E-03  0.25405668121E-02  0.23144712598E-01  0.00000000000E+00 0.  1.
     999901    1    3    3    0    0  0.10619785925E+00 -0.68367752361E-01  0.66888060823E-01  0.89153022807E+00  0.88000000000E+00 0. -1.
        -11    1    4    4    0    0 -0.61234552604E-01  0.38003963800E-01 -0.49386806019E-01  0.87368698209E-01  0.51100000000E-03 0.  1.
         11    1    4    4    0    0 -0.21975075512E-01  0.29489448452E-01 -0.20041821617E-01  0.41886361127E-01  0.51100000000E-03 0. -1.
</event>
<event>
 8    1  0.1527457E+005  0.1043930E+01  0.7957747E-01            NaN
         13   -1    0    0    0    0  0.00000000000E+00  0.00000000000E+00  0.74505805969E-08  0.10566000000E+00  0.10566000000E+00 0.  1.
     999900   -1    0    0    0    0 -0.00000000000E+00 -0.00000000000E+00 -0.74505805969E-08  0.93827000000E+00  0.93827000000E+00 0.  1.
     999902    2    1    2    0    0  0.11964956033E-01  0.19469495529E-01 -0.62892714645E-02  0.10202281780E+01  0.10199528219E+01 0.  0.
     999903    2    3    3    0    0 -0.49225504860E-01 -0.34406329334E-01 -0.11341917127E+00  0.12999018039E+00  0.20654122093E-01 0.  0.
         14    1    1    2    0    0 -0.11964956033E-01 -0.19469495529E-01  0.62892714645E-02  0.23701821968E-01  0.00000000000E+00 0.  1.
     999901    1    3    3    0    0  0.61190460892E-01  0.53875824863E-01  0.10712989981E+00  0.89023799764E+00  0.88000000000E+00 0. -1.
        -11    1    4    4    0    0 -0.16785831467E-01 -0.23826639844E-01 -0.57850741860E-01  0.64779953373E-01  0.51100000000E-03 0.  1.
         11    1    4    4    0    0 -0.32439673393E-01 -0.10579689490E-01 -0.55568429413E-01  0.65210227020E-01  0.51100000000E-03 0. -1.
</event>
<event>
 8    1  0.1183092E+005  0.1043930E+01  0.7957747E-01            NaN
         13   -1    0    0    0    0  0.00000000000E+00  0.00000000000E+00  0.74505805969E-08  0.10566000000E+00  0.10566000000E+00 0.  1.
     999900   -1    0    0    0    0 -0.00000000000E+00 -0.00000000000E+00 -0.74505805969E-08  0.93827000000E+00  0.93827000000E+00 0.  1.
     999902    2    1    2    0    0  0.21910258239E-01 -0.64676705458E-02  0.50740625965E-02  0.10205283699E+01  0.10202600245E+01 0.  0.
     999903    2    3    3    0    0 -0.11813724575E+00  0.83738228615E-02 -0.44657781568E-01  0.12794401559E+00  0.18676828652E-01 0.  0.
         14    1    1    2    0    0 -0.21910258239E-01  0.64676705458E-02 -0.50740625965E-02  0.23401630063E-01  0.00000000000E+00 0. -1.
     999901    1    3    3    0    0  0.14004750399E+00 -0.14841493407E-01  0.49731844165E-01  0.89258435435E+00  0.88000000000E+00 0.  1.
        -11    1    4    4    0    0 -0.35135197588E-01  0.74470437561E-02 -0.21095042321E-01  0.41655761928E-01  0.51100000000E-03 0.  1.
         11    1    4    4    0    0 -0.83002048161E-01  0.92677910535E-03 -0.23562739247E-01  0.86288253663E-01  0.51100000000E-03 0. -1.
</event>
<event>
 8    1  0.1183092E+005  0.1043930E+01  0.7957747E-01            NaN
         13   -1    0    0    0    0  0.00000000000E+00  0.00000000000E+00  0.74505805969E-08  0.10566000000E+00  0.10566000000E+00 0.  1.
     999900   -1    0    0    0    0 -0.00000000000E+00 -0.00000000000E+00 -0.74505805969E-08  0.93827000000E+00  0.93827000000E+00 0.  1.
     999902    2    1    2    0    0 -0.12274662974E-01 -0.20704638425E-01 -0.54617317263E-03  0.10198541260E+01  0.10195699047E+01 0.  0.
     999903    2    3    3    0    0 -0.91940466899E-01 -0.40156023530E-02 -0.91357207698E-01  0.13144441859E+00  0.21501657244E-01 0.  0.
         14    1    1    2    0    0  0.12274662974E-01  0.20704638425E-01  0.54617317263E-03  0.24075873994E-01  0.00000000000E+00 0.  1.
     999901    1    3    3    0    0  0.79665803925E-01 -0.16689036072E-01  0.90811034525E-01  0.88840970742E+00  0.88000000000E+00 0. -1.
        -11    1    4    4    0    0 -0.68827805412E-01 -0.41637285172E-02 -0.80218550719E-01  0.10578223118E+00  0.51100000000E-03 0.  1.
         11    1    4    4    0    0 -0.23112661486E-01  0.14812616417E-03 -0.11138656979E-01  0.25662187410E-01  0.51100000000E-03 0. -1.
</event>
<event>
 7    1  0.2083101E+005  0.1043930E+01  0.7957747E-01            NaN
         13   -1    0    0    0    0  0.00000000000E+00  0.00000000000E+00  0.74505805969E-08  0.10566000000E+00  0.10566000000E+00 0.  1.
     999900   -1    0    0    0    0 -0.00000000000E+00 -0.00000000000E+00 -0.74505805969E-08  0.93827000000E+00  0.93827000000E+00 0.  1.
     999903    2    1    2    0    0  0.13497355007E-01  0.80662249219E-01  0.37117571018E-01  0.92003719828E-01  0.19959793153E-01 0.  0.
         14    1    1    2    0    0 -0.91335159923E-02  0.71339245075E-02  0.61026866469E-01  0.62117569368E-01  0.00000000000E+00 0.  1.
     999901    1    1    2    0    0 -0.43638390151E-02 -0.87796173726E-01 -0.98144437487E-01  0.88980871080E+00  0.88000000000E+00 0.  1.
        -11    1    3    3    0    0  0.10468553865E-01  0.39038105497E-01  0.28306304749E-01  0.49346451851E-01  0.51100000000E-03 0.  1.
         11    1    3    3    0    0  0.30288011429E-02  0.41624143722E-01  0.88112662688E-02  0.42657267977E-01  0.51100000000E-03 0. -1.
</event>
<event>
 7    1  0.1183092E+005  0.1043930E+01  0.7957747E-01            NaN
         13   -1    0    0    0    0  0.00000000000E+00  0.00000000000E+00  0.74505805969E-08  0.10566000000E+00  0.10566000000E+00 0.  1.
     999900   -1    0    0    0    0 -0.00000000000E+00 -0.00000000000E+00 -0.74505805969E-08  0.93827000000E+00  0.93827000000E+00 0. -1.
     999903    2    1    2    0    0  0.87691640447E-01 -0.48508655129E-01 -0.55801514403E-01  0.11647956254E+00  0.20267364263E-01 0.  0.
         14    1    1    2    0    0 -0.28387890699E-01 -0.51010517989E-02  0.32592418663E-01  0.43521934953E-01  0.00000000000E+00 0.  1.
     999901    1    1    2    0    0 -0.59303749748E-01  0.53609706928E-01  0.23209095740E-01  0.88392850250E+00  0.88000000000E+00 0.  1.
        -11    1    3    3    0    0  0.27745807696E-01 -0.63926170633E-02 -0.10554782320E-01  0.30370379458E-01  0.51100000000E-03 0. -1.
         11    1    3    3    0    0  0.59945832751E-01 -0.42116038066E-01 -0.45246732083E-01  0.86109183086E-01  0.51100000000E-03 0.  1.
</event>
<event>
 8    1  0.1183092E+005  0.1043930E+01  0.7957747E-01            NaN
         13   -1    0    0    0    0  0.00000000000E+00  0.00000000000E+00  0.74505805969E-08  0.10566000000E+00  0.10566000000E+00 0. -1.
     999900   -1    0    0    0    0 -0.00000000000E+00 -0.00000000000E+00 -0.74505805969E-08  0.93827000000E+00  0.93827000000E+00 0. -1.
     999902    2    1    2    0    0  0.19487584892E-01 -0.97736753929E-02 -0.88932800506E-02  0.10203847006E+01  0.10201130114E+01 0.  0.
     999903    2    3    3    0    0 -0.23686023180E-01 -0.12636672016E+00 -0.20129532594E-01  0.13157417413E+00  0.19416218900E-01 0.  0.
         14    1    1    2    0    0 -0.19487584892E-01  0.97736753929E-02  0.88932800506E-02  0.23545299439E-01  0.00000000000E+00 0.  1.
     999901    1    3    3    0    0  0.43173608071E-01  0.11659304477E+00  0.11236252543E-01  0.88881052643E+00  0.88000000000E+00 0.  1.
        -11    1    4    4    0    0 -0.10283402399E-03 -0.51952947639E-01 -0.86958190159E-02  0.52678247243E-01  0.51100000000E-03 0.  1.
         11    1    4    4    0    0 -0.23583189156E-01 -0.74413772526E-01 -0.11433713578E-01  0.78895926887E-01  0.51100000000E-03 0. -1.
</event>
<event>
 8    1  0.1183092E+005  0.1043930E+01  0.7957747E-01            NaN
         13   -1    0    0    0    0  0.00000000000E+00  0.00000000000E+00  0.74505805969E-08  0.10566000000E+00  0.10566000000E+00 0.  1.
     999900   -1    0    0    0    0 -0.00000000000E+00 -0.00000000000E+00 -0.74505805969E-08  0.93827000000E+00  0.93827000000E+00 0.  1.
     999902    2    1    2    0    0  0.16452112518E-01  0.19481579421E-01  0.11238509201E-01  0.10160641063E+01  0.10156819187E+01 0.  0.
     999903    2    3    3    0    0  0.11119059130E+00 -0.56124126123E-01  0.35864247896E-02  0.12772286754E+00  0.28053579503E-01 0.  0.
         14    1    1    2    0    0 -0.16452112518E-01 -0.19481579421E-01 -0.11238509201E-01  0.27865893707E-01  0.00000000000E+00 0.  1.
     999901    1    3    3    0    0 -0.94738478783E-01  0.75605705543E-01  0.76520844117E-02  0.88834123875E+00  0.88000000000E+00 0. -1.
        -11    1    4    4    0    0  0.68309617006E-01 -0.35443055032E-01  0.15815126757E-01  0.78567125955E-01  0.51100000000E-03 0.  1.
         11    1    4    4    0    0  0.42880974296E-01 -0.20681071091E-01 -0.12228701967E-01  0.49155741585E-01  0.51100000000E-03 0. -1.
</event>
<event>
 8    1  0.1183092E+005  0.1043930E+01  0.7957747E-01            NaN
         13   -1    0    0    0    0  0.00000000000E+00  0.00000000000E+00  0.74505805969E-08  0.10566000000E+00  0.10566000000E+00 0.  1.
     999900   -1    0    0    0    0 -0.00000000000E+00 -0.00000000000E+00 -0.74505805969E-08  0.93827000000E+00  0.93827000000E+00 0.  1.
     999902    2    1    2    0    0  0.10209097879E-01  0.21734694101E-01 -0.34468365023E-02  0.10196709133E+01  0.10193822973E+01 0.  0.
     999903    2    3    3    0    0 -0.16876389036E-01  0.57031337625E-01 -0.11520340108E+00  0.13148793304E+00  0.21905865347E-01 0.  0.
         14    1    1    2    0    0 -0.10209097879E-01 -0.21734694101E-01  0.34468365023E-02  0.24259086731E-01  0.00000000000E+00 0.  1.
     999901    1    3    3    0    0  0.27085486915E-01 -0.35296643524E-01  0.11175656458E+00  0.88818298023E+00  0.88000000000E+00 0. -1.
        -11    1    4    4    0    0  0.39710288439E-02  0.11648628471E-01 -0.14109694675E-01  0.18729768289E-01  0.51100000000E-03 0.  1.
         11    1    4    4    0    0 -0.20847417880E-01  0.45382709154E-01 -0.10109370640E+00  0.11275816475E+00  0.51100000000E-03 0. -1.
</event>
<event>
 8    1  0.1183092E+005  0.1043930E+01  0.7957747E-01            NaN
         13   -1    0    0    0    0  0.00000000000E+00  0.00000000000E+00  0.74505805969E-08  0.10566000000E+00  0.10566000000E+00 0. -1.
     999900   -1    0    0    0    0 -0.00000000000E+00 -0.00000000000E+00 -0.74505805969E-08  0.93827000000E+00  0.93827000000E+00 0. -1.
     999902    2    1    2    0    0 -0.14006234212E-01  0.95586806969E-03 -0.19269722176E-01  0.10200886394E+01  0.10198099930E+01 0.  0.
     999903    2    3    3    0    0  0.11148767611E+00 -0.46771613091E-01  0.37708455702E-01  0.12808351236E+00  0.19140867035E-01 0.  0.
         14    1    1    2    0    0  0.14006234212E-01 -0.95586806969E-03  0.19269722176E-01  0.23841360559E-01  0.00000000000E+00 0. -1.
     999901    1    3    3    0    0 -0.12549391032E+00  0.47727481161E-01 -0.56978177879E-01  0.89200512708E+00  0.88000000000E+00 0. -1.
        -11    1    4    4    0    0  0.95641745874E-01 -0.33706161741E-01  0.27125683130E-01  0.10497386674E+00  0.51100000000E-03 0.  1.
         11    1    4    4    0    0  0.15845930237E-01 -0.13065451350E-01  0.10582772573E-01  0.23109645614E-01  0.51100000000E-03 0. -1.
</event>
<event>
 8    1  0.1183092E+005  0.1043930E+01  0.7957747E-01            NaN
         13   -1    0    0    0    0  0.00000000000E+00  0.00000000000E+00  0.74505805969E-08  0.10566000000E+00  0.10566000000E+00 0. -1.
     999900   -1    0    0    0    0 -0.00000000000E+00 -0.00000000000E+00 -0.74505805969E-08  0.93827000000E+00  0.93827000000E+00 0. -1.
     999902    2    1    2    0    0 -0.17580291049E-01 -0.15176908605E-01  0.19965733346E-02  0.10206192408E+01  0.10203529993E+01 0.  0.
     999903    2    3    3    0    0 -0.12556304346E+00 -0.41734923551E-01  0.49652829794E-02  0.13361618772E+00  0.17909490782E-01 0.  0.
         14    1    1    2    0    0  0.17580291049E-01  0.15176908605E-01 -0.19965733346E-02  0.23310759174E-01  0.00000000000E+00 0.  1.
     999901    1    3    3    0    0  0.10798275241E+00  0.26558014946E-01 -0.29687096448E-02  0.88700305310E+00  0.88000000000E+00 0. -1.
        -11    1    4    4    0    0 -0.24257167437E-01 -0.11189692479E-01  0.75768382683E-02  0.27772090108E-01  0.51100000000E-03 0.  1.
         11    1    4    4    0    0 -0.10130587602E+00 -0.30545231072E-01 -0.26115552888E-02  0.10584409762E+00  0.51100000000E-03 0. -1.
</event>
<event>
 7    1  0.1183092E+005  0.1043930E+01  0.7957747E-01            NaN
         13   -1    0    0    0    0  0.00000000000E+00  0.00000000000E+00  0.74505805969E-08  0.10566000000E+00  0.10566000000E+00 0.  1.
     999900   -1    0    0    0    0 -0.00000000000E+00 -0.00000000000E+00 -0.74505805969E-08  0.93827000000E+00  0.93827000000E+00 0. -1.
     999903    2    1    2    0    0 -0.78954732069E-01  0.27740086322E-01 -0.63679930185E-01  0.10707098927E+00  0.20142023952E-01 0.  0.
         14    1    1    2    0    0 -0.10520928396E-01  0.17107059009E-01 -0.40374991550E-01  0.45094138698E-01  0.00000000000E+00 0. -1.
     999901    1    1    2    0    0  0.89475660464E-01 -0.44847145332E-01  0.10405492173E+00  0.89176487204E+00  0.88000000000E+00 0.  1.
        -11    1    3    3    0    0 -0.43284243030E-01  0.25444660284E-01 -0.34440917344E-01  0.60888376067E-01  0.51100000000E-03 0.  1.
         11    1    3    3    0    0 -0.35670489039E-01  0.22954260385E-02 -0.29239012841E-01  0.46182613199E-01  0.51100000000E-03 0. -1.
</event>
<event>
 8    1  0.1183092E+005  0.1043930E+01  0.7957747E-01            NaN
         13   -1    0    0    0    0  0.00000000000E+00  0.00000000000E+00  0.74505805969E-08  0.10566000000E+00  0.10566000000E+00 0.  1.
     999900   -1    0    0    0    0 -0.00000000000E+00 -0.00000000000E+00 -0.74505805969E-08  0.93827000000E+00  0.93827000000E+00 0.  1.
     999902    2    1    2    0    0  0.11840812937E-01 -0.78917741837E-02 -0.18775865476E-01  0.10203711784E+01  0.10200991734E+01 0.  0.
     999903    2    3    3    0    0 -0.80007861029E-01  0.24724367247E-01  0.94431196019E-01  0.12778178211E+00  0.19959481363E-01 0.  0.
         14    1    1    2    0    0 -0.11840812937E-01  0.78917741837E-02  0.18775865476E-01  0.23558821599E-01  0.00000000000E+00 0.  1.
     999901    1    3    3    0    0  0.91848673967E-01 -0.32616141430E-01 -0.11320706150E+00  0.89258939629E+00  0.88000000000E+00 0.  1.
        -11    1    4    4    0    0 -0.31574592979E-01  0.33676868592E-02  0.46886391781E-01  0.56629418961E-01  0.51100000000E-03 0.  1.
         11    1    4    4    0    0 -0.48433268050E-01  0.21356680388E-01  0.47544804238E-01  0.71152363153E-01  0.51100000000E-03 0. -1.
</event>
<event>
 8    1  0.1183092E+005  0.1043930E+01  0.7957747E-01            NaN
         13   -1    0    0    0    0  0.00000000000E+00  0.00000000000E+00  0.74505805969E-08  0.10566000000E+00  0.10566000000E+00 0.  1.
     999900   -1    0    0    0    0 -0.00000000000E+00 -0.00000000000E+00 -0.74505805969E-08  0.93827000000E+00  0.93827000000E+00 0. -1.
     999902    2    1    2    0    0  0.11401280209E-01  0.13478114905E-01  0.15902261657E-01  0.10201701453E+01  0.10198934231E+01 0.  0.
     999903    2    3    3    0    0 -0.11937899076E+00  0.39092483849E-01 -0.23415083527E-01  0.12926867550E+00  0.19559105299E-01 0.  0.
         14    1    1    2    0    0 -0.11401280209E-01 -0.13478114905E-01 -0.15902261657E-01  0.23759854747E-01  0.00000000000E+00 0.  1.
     999901    1    3    3    0    0  0.13078027097E+00 -0.25614368944E-01  0.39317345184E-01  0.89090146975E+00  0.88000000000E+00 0.  1.
        -11    1    4    4    0    0 -0.30301433124E-01  0.64754371269E-02  0.20187838255E-02  0.31055510694E-01  0.51100000000E-03 0. -1.
         11    1    4    4    0    0 -0.89077557640E-01  0.32617046722E-01 -0.25433867352E-01  0.98213164807E-01  0.51100000000E-03 0.  1.
</event>
<event>
 8    1  0.1183092E+005  0.1043930E+01  0.7957747E-01            NaN
         13   -1    0    0    0    0  0.00000000000E+00  0.00000000000E+00  0.74505805969E-08  0.10566000000E+00  0.10566000000E+00 0. -1.
     999900   -1    0    0    0    0 -0.00000000000E+00 -0.00000000000E+00 -0.74505805969E-08  0.93827000000E+00  0.93827000000E+00 0. -1.
     999902    2    1    2    0    0 -0.24674503168E-01  0.61407669083E-02  0.50052856556E-02  0.10180148884E+01  0.10176849807E+01 0.  0.
     999903    2    3    3    0    0  0.99564808023E-01 -0.39956865867E-01  0.63328094626E-01  0.12618421600E+00  0.20057583879E-01 0.  0.
         14    1    1    2    0    0  0.24674503168E-01 -0.61407669083E-02 -0.50052856556E-02  0.25915111601E-01  0.00000000000E+00 0.  1.
     999901    1    3    3    0    0 -0.12423931119E+00  0.46097632775E-01 -0.58322808970E-01  0.89183067240E+00  0.88000000000E+00 0. -1.
        -11    1    4    4    0    0  0.20365849331E-01 -0.43822858655E-03  0.15294524477E-01  0.25478293963E-01  0.51100000000E-03 0. -1.
         11    1    4    4    0    0  0.79198958692E-01 -0.39518637280E-01  0.48033570149E-01  0.10070592203E+00  0.51100000000E-03 0.  1.
</event>
<event>
 8    1  0.1183092E+005  0.1043930E+01  0.7957747E-01            NaN
         13   -1    0    0    0    0  0.00000000000E+00  0.00000000000E+00  0.74505805969E-08  0.10566000000E+00  0.10566000000E+00 0.  1.
     999900   -1    0    0    0    0 -0.00000000000E+00 -0.00000000000E+00 -0.74505805969E-08  0.93827000000E+00  0.93827000000E+00 0. -1.
     999902    2    1    2    0    0  0.22506681417E-01 -0.83509301389E-02  0.36352079776E-02  0.10196503073E+01  0.10193611949E+01 0.  0.
     999903    2    3    3    0    0  0.35440262843E-01 -0.69319270716E-01 -0.10350098128E+00  0.13096443524E+00  0.19443678855E-01 0.  0.
         14    1    1    2    0    0 -0.22506681417E-01  0.83509301389E-02 -0.36352079776E-02  0.24279692742E-01  0.00000000000E+00 0.  1.
     999901    1    3    3    0    0 -0.12933581425E-01  0.60968340577E-01  0.10713618926E+00  0.88868587202E+00  0.88000000000E+00 0.  1.
        -11    1    4    4    0    0  0.19374984775E-01 -0.49177131349E-01 -0.81179238529E-01  0.96871616957E-01  0.51100000000E-03 0.  1.
         11    1    4    4    0    0  0.16065278068E-01 -0.20142139367E-01 -0.22321742754E-01  0.34092818279E-01  0.51100000000E-03 0. -1.
</event>
<event>
 8    1  0.1183092E+005  0.1043930E+01  0.7957747E-01            NaN
         13   -1    0    0    0    0  0.00000000000E+00  0.00000000000E+00  0.74505805969E-08  0.10566000000E+00  0.10566000000E+00 0.  1.
     999900   -1    0    0    0    0 -0.00000000000E+00 -0.00000000000E+00 -0.74505805969E-08  0.93827000000E+00  0.93827000000E+00 0. -1.
     999902    2    1    2    0    0 -0.22041318889E-02 -0.28957678997E-01  0.20449188810E-01  0.10084113472E+01  0.10077856273E+01 0.  0.
     999903    2    3    3    0    0  0.55648705891E-01 -0.10729089071E+00 -0.59069748573E-02  0.12264744515E+00  0.19984737994E-01 0.  0.
         14    1    1    2    0    0  0.22041318889E-02  0.28957678997E-01 -0.20449188810E-01  0.35518652751E-01  0.00000000000E+00 0. -1.
     999901    1    3    3    0    0 -0.57852837780E-01  0.78333211716E-01  0.26356163668E-01  0.88576390210E+00  0.88000000000E+00 0.  1.
        -11    1    4    4    0    0  0.34052679926E-01 -0.81773732225E-01 -0.91698535445E-02  0.89055463770E-01  0.51100000000E-03 0. -1.
         11    1    4    4    0    0  0.21596025966E-01 -0.25517158487E-01  0.32628786872E-02  0.33591981381E-01  0.51100000000E-03 0.  1.
</event>
<event>
 8    1  0.1183092E+005  0.1043930E+01  0.7957747E-01            NaN
         13   -1    0    0    0    0  0.00000000000E+00  0.00000000000E+00  0.74505805969E-08  0.10566000000E+00  0.10566000000E+00 0. -1.
     999900   -1    0    0    0    0 -0.00000000000E+00 -0.00000000000E+00 -0.74505805969E-08  0.93827000000E+00  0.93827000000E+00 0.  1.
     999902    2    1    2    0    0  0.16226107721E-01 -0.14224962159E-01 -0.85743946837E-02  0.10207102592E+01  0.10204461166E+01 0.  0.
     999903    2    3    3    0    0 -0.94815004064E-01  0.84024776685E-01 -0.13523535020E-02  0.12827802220E+00  0.20084173572E-01 0.  0.
         14    1    1    2    0    0 -0.16226107721E-01  0.14224962159E-01  0.85743946837E-02  0.23219740834E-01  0.00000000000E+00 0.  1.
     999901    1    3    3    0    0  0.11104111178E+00 -0.98249738845E-01 -0.72220411818E-02  0.89243223696E+00  0.88000000000E+00 0.  1.
        -11    1    4    4    0    0 -0.89398636025E-01  0.71355472087E-01 -0.27585143941E-02  0.11441848645E+00  0.51100000000E-03 0.  1.
         11    1    4    4    0    0 -0.54163680381E-02  0.12669304599E-01  0.14061608921E-02  0.13859535750E-01  0.51100000000E-03 0. -1.
</event>
<event>
 8    1  0.1183092E+005  0.1043930E+01  0.7957747E-01            NaN
         13   -1    0    0    0    0  0.00000000000E+00  0.00000000000E+00  0.74505805969E-08  0.10566000000E+00  0.10566000000E+00 0. -1.
     999900   -1    0    0    0    0 -0.00000000000E+00 -0.00000000000E+00 -0.74505805969E-08  0.93827000000E+00  0.93827000000E+00 0.  1.
     999902    2    1    2    0    0 -0.21659616291E-01  0.75749305899E-02 -0.18124780075E-02  0.10209125365E+01  0.10206530280E+01 0.  0.
     999903    2    3    3    0    0 -0.24923463326E-01  0.88006739604E-01 -0.93752934593E-01  0.13246840419E+00  0.19796467498E-01 0.  0.
         14    1    1    2    0    0  0.21659616291E-01 -0.75749305899E-02  0.18124780075E-02  0.23017463540E-01  0.00000000000E+00 0.  1.
     999901    1    3    3    0    0  0.32638470356E-02 -0.80431809014E-01  0.91940456585E-01  0.88844413226E+00  0.88000000000E+00 0. -1.
        -11    1    4    4    0    0 -0.22743947334E-01  0.71602579903E-01 -0.65264707836E-01  0.99518640460E-01  0.51100000000E-03 0. -1.
         11    1    4    4    0    0 -0.21795159926E-02  0.16404159701E-01 -0.28488226757E-01  0.32949763735E-01  0.51100000000E-03 0.  1.
</event>
<event>
 8    1  0.1183092E+005  0.1043930E+01  0.7957747E-01            NaN
         13   -1    0    0    0    0  0.00000000000E+00  0.00000000000E+00  0.74505805969E-08  0.10566000000E+00  0.10566000000E+00 0. -1.
     999900   -1    0    0    0    0 -0.00000000000E+00 -0.00000000000E+00 -0.74505805969E-08  0.93827000000E+00  0.93827000000E+00 0.  1.
     999902    2    1    2    0    0  0.19079578750E-01  0.10366280146E-01 -0.11221537393E-01  0.10194879667E+01  0.10191949280E+01 0.  0.
     999903    2    3    3    0    0  0.83933439286E-01  0.36675685341E-01  0.90955898123E-01  0.13081567822E+00  0.21209387977E-01 0.  0.
         14    1    1    2    0    0 -0.19079578750E-01 -0.10366280146E-01  0.11221537393E-01  0.24442033278E-01  0.00000000000E+00 0. -1.
     999901    1    3    3    0    0 -0.64853860536E-01 -0.26309405195E-01 -0.10217743552E+00  0.88867228851E+00  0.88000000000E+00 0.  1.
        -11    1    4    4    0    0  0.44440326111E-01  0.10376156853E-01  0.53786011347E-01  0.70539374491E-01  0.51100000000E-03 0. -1.
         11    1    4    4    0    0  0.39493113174E-01  0.26299528489E-01  0.37169886776E-01  0.60276303726E-01  0.51100000000E-03 0.  1.
</event>
<event>
 8    1  0.1183092E+005  0.1043930E+01  0.7957747E-01            NaN
         13   -1    0    0    0    0  0.00000000000E+00  0.00000000000E+00  0.74505805969E-08  0.10566000000E+00  0.10566000000E+00 0.  1.
     999900   -1    0    0    0    0 -0.00000000000E+00 -0.00000000000E+00 -0.74505805969E-08  0.93827000000E+00  0.93827000000E+00 0. -1.
     999902    2    1    2    0    0  0.31343785762E-02  0.86255323536E-02  0.20483035990E-01  0.10214849805E+01  0.10212383593E+01 0.  0.
     999903    2    3    3    0    0  0.37459142057E-01 -0.19666141328E-03 -0.12211357802E+00  0.12930236756E+00  0.20103490273E-01 0.  0.
         14    1    1    2    0    0 -0.31343785762E-02 -0.86255323536E-02 -0.20483035990E-01  0.22445019510E-01  0.00000000000E+00 0. -1.
     999901    1    3    3    0    0 -0.34324763481E-01  0.88221937669E-02  0.14259661401E+00  0.89218261293E+00  0.88000000000E+00 0.  1.
        -11    1    4    4    0    0  0.33504681689E-01  0.62445923940E-02 -0.88297327263E-01  0.94647967500E-01  0.51100000000E-03 0.  1.
         11    1    4    4    0    0  0.39544603684E-02 -0.64412538073E-02 -0.33816250753E-01  0.34654400058E-01  0.51100000000E-03 0. -1.
</event>
<event>
 8    1  0.1183092E+005  0.1043930E+01  0.7957747E-01            NaN
         13   -1    0    0    0    0  0.00000000000E+00  0.00000000000E+00  0.74505805969E-08  0.10566000000E+00  0.10566000000E+00 0. -1.
     999900   -1    0    0    0    0 -0.00000000000E+00 -0.00000000000E+00 -0.74505805969E-08  0.93827000000E+00  0.93827000000E+00 0.  1.
     999902    2    1    2    0    0 -0.17656828301E-01  0.16310384493E-01 -0.41052436512E-03  0.10198891856E+01  0.10196058013E+01 0.  0.
     999903    2    3    3    0    0  0.10199203596E+00 -0.47084408301E-02  0.75152563508E-01  0.12833580973E+00  0.19940597823E-01 0.  0.
         14    1    1    2    0    0  0.17656828301E-01 -0.16310384493E-01  0.41052436512E-03  0.24040814425E-01  0.00000000000E+00 0.  1.
     999901    1    3    3    0    0 -0.11964886426E+00  0.21018825323E-01 -0.75563087873E-01  0.89155337585E+00  0.88000000000E+00 0.  1.
        -11    1    4    4    0    0  0.68459812576E-01 -0.94400900027E-02  0.41613034489E-01  0.80670731976E-01  0.51100000000E-03 0.  1.
         11    1    4    4    0    0  0.33532223386E-01  0.47316491726E-02  0.33539529019E-01  0.47665077750E-01  0.51100000000E-03 0. -1.
</event>
<event>
 8    1  0.1183092E+005  0.1043930E+01  0.7957747E-01            NaN
         13   -1    0    0    0    0  0.00000000000E+00  0.00000000000E+00  0.74505805969E-08  0.10566000000E+00  0.10566000000E+00 0. -1.
     999900   -1    0    0    0    0 -0.00000000000E+00 -0.00000000000E+00 -0.74505805969E-08  0.93827000000E+00  0.93827000000E+00 0.  1.
     999902    2    1    2    0    0 -0.18219062797E-01 -0.40970401670E-02 -0.13360728755E-01  0.10209685310E+01  0.10207102979E+01 0.  0.
     999903    2    3    3    0    0  0.10975808489E+00 -0.57708402758E-01  0.29261692791E-01  0.12907784296E+00  0.20682019545E-01 0.  0.
         14    1    1    2    0    0  0.18219062797E-01  0.40970401670E-02  0.13360728755E-01  0.22961469034E-01  0.00000000000E+00 0. -1.
     999901    1    3    3    0    0 -0.12797714768E+00  0.53611362591E-01 -0.42622421546E-01  0.89189068800E+00  0.88000000000E+00 0. -1.
        -11    1    4    4    0    0  0.16356697856E-01 -0.23687111833E-02 -0.37484317295E-03  0.16539467520E-01  0.51100000000E-03 0.  1.
         11    1    4    4    0    0  0.93401387029E-01 -0.55339691575E-01  0.29636535964E-01  0.11253837544E+00  0.51100000000E-03 0. -1.
</event>
<event>
 8    1  0.1183092E+005  0.1043930E+01  0.7957747E-01            NaN
         13   -1    0    0    0    0  0.00000000000E+00  0.00000000000E+00  0.74505805969E-08  0.10566000000E+00  0.10566000000E+00 0.  1.
     999900   -1    0    0    0    0 -0.00000000000E+00 -0.00000000000E+00 -0.74505805969E-08  0.93827000000E+00  0.93827000000E+00 0.  1.
     999902    2    1    2    0    0  0.16618398894E-01 -0.23732796315E-02 -0.15247949287E-01  0.10212517374E+01  0.10209999057E+01 0.  0.
     999903    2    3    3    0    0 -0.29982649591E-02 -0.54110418272E-01  0.11596587654E+00  0.12980425541E+00  0.21543751855E-01 0.  0.
         14    1    1    2    0    0 -0.16618398894E-01  0.23732796315E-02  0.15247949287E-01  0.22678262620E-01  0.00000000000E+00 0.  1.
     999901    1    3    3    0    0  0.19616663853E-01  0.51737138640E-01 -0.13121382583E+00  0.89144748197E+00  0.88000000000E+00 0.  1.
        -11    1    4    4    0    0  0.19284519039E-04 -0.23794283364E-01  0.75415645368E-01  0.79081913103E-01  0.51100000000E-03 0.  1.
         11    1    4    4    0    0 -0.30175494782E-02 -0.30316134908E-01  0.40550231171E-01  0.50722342311E-01  0.51100000000E-03 0. -1.
</event>
<event>
 8    1  0.1183092E+005  0.1043930E+01  0.7957747E-01            NaN
         13   -1    0    0    0    0  0.00000000000E+00  0.00000000000E+00  0.74505805969E-08  0.10566000000E+00  0.10566000000E+00 0.  1.
     999900   -1    0    0    0    0 -0.00000000000E+00 -0.00000000000E+00 -0.74505805969E-08  0.93827000000E+00  0.93827000000E+00 0.  1.
     999902    2    1    2    0    0 -0.12048031095E-01 -0.14733245839E-01  0.10321964587E-01  0.10222789830E+01  0.10220496820E+01 0.  0.
     999903    2    3    3    0    0  0.12096948998E+00 -0.43079750211E-01  0.21034519329E-01  0.13176680221E+00  0.20749862098E-01 0.  0.
         14    1    1    2    0    0  0.12048031095E-01  0.14733245839E-01 -0.10321964587E-01  0.21651017046E-01  0.00000000000E+00 0. -1.
     999901    1    3    3    0    0 -0.13301752108E+00  0.28346504372E-01 -0.10712554742E-01  0.89051218074E+00  0.88000000000E+00 0.  1.
        -11    1    4    4    0    0  0.26284767197E-01 -0.18702776220E-01  0.38160462831E-02  0.32488554218E-01  0.51100000000E-03 0.  1.
         11    1    4    4    0    0  0.94684722783E-01 -0.24376973991E-01  0.17218473046E-01  0.99278247993E-01  0.51100000000E-03 0. -1.
</event>
<event>
 8    1  0.1183092E+005  0.1043930E+01  0.7957747E-01            NaN
         13   -1    0    0    0    0  0.00000000000E+00  0.00000000000E+00  0.74505805969E-08  0.10566000000E+00  0.10566000000E+00 0. -1.
     999900   -1    0    0    0    0 -0.00000000000E+00 -0.00000000000E+00 -0.74505805969E-08  0.93827000000E+00  0.93827000000E+00 0. -1.
     999902    2    1    2    0    0  0.27010475888E-02 -0.13735369081E-01 -0.20855518446E-01  0.10188121046E+01  0.10185024279E+01 0.  0.
     999903    2    3    3    0    0  0.62344385809E-01 -0.56069314512E-01 -0.10024134197E+00  0.13221659379E+00  0.20057680862E-01 0.  0.
         14    1    1    2    0    0 -0.27010475888E-02  0.13735369081E-01  0.20855518446E-01  0.25117895443E-01  0.00000000000E+00 0. -1.
     999901    1    3    3    0    0 -0.59643338220E-01  0.42333945431E-01  0.79385823529E-01  0.88659551076E+00  0.88000000000E+00 0.  1.
        -11    1    4    4    0    0  0.39573699110E-01 -0.27205970969E-01 -0.44708889263E-01  0.65615458680E-01  0.51100000000E-03 0. -1.
         11    1    4    4    0    0  0.22770686700E-01 -0.28863343543E-01 -0.55532452711E-01  0.66601135113E-01  0.51100000000E-03 0.  1.
</event>
<event>
 8    1  0.1183092E+005  0.1043930E+01  0.7957747E-01            NaN
         13   -1    0    0    0    0  0.00000000000E+00  0.00000000000E+00  0.74505805969E-08  0.10566000000E+00  0.10566000000E+00 0. -1.
     999900   -1    0    0    0    0 -0.00000000000E+00 -0.00000000000E+00 -0.74505805969E-08  0.93827000000E+00  0.93827000000E+00 0. -1.
     999902    2    1    2    0    0  0.51280989370E-02 -0.15441583845E-01 -0.17989699344E-01  0.10196736773E+01  0.10193851279E+01 0.  0.
     999903    2    3    3    0    0 -0.40121387848E-01  0.11433122825E+00  0.34034679141E-01  0.12748813895E+00  0.20334961828E-01 0.  0.
         14    1    1    2    0    0 -0.51280989370E-02  0.15441583845E-01  0.17989699344E-01  0.24256322739E-01  0.00000000000E+00 0. -1.
     999901    1    3    3    0    0  0.45249486785E-01 -0.12977281210E+00 -0.52024378485E-01  0.89218553831E+00  0.88000000000E+00 0. -1.
        -11    1    4    4    0    0 -0.91332453521E-02  0.54973279213E-01  0.12124195251E-01  0.57032752254E-01  0.51100000000E-03 0.  1.
         11    1    4    4    0    0 -0.30988142496E-01  0.59357949037E-01  0.21910483890E-01  0.70455386697E-01  0.51100000000E-03 0. -1.
</event>
<event>
 8    1  0.1183092E+005  0.1043930E+01  0.7957747E-01            NaN
         13   -1    0    0    0    0  0.00000000000E+00  0.00000000000E+00  0.74505805969E-08  0.10566000000E+00  0.10566000000E+00 0. -1.
     999900   -1    0    0    0    0 -0.00000000000E+00 -0.00000000000E+00 -0.74505805969E-08  0.93827000000E+00  0.93827000000E+00 0.  1.
     999902    2    1    2    0    0  0.20714747697E-01 -0.70068523249E-02 -0.11302843298E-01  0.10193139276E+01  0.10190166496E+01 0.  0.
     999903    2    3    3    0    0  0.53429393234E-01 -0.58586520182E-01 -0.10419004197E+00  0.13231971016E+00  0.19127478737E-01 0.  0.
         14    1    1    2    0    0 -0.20714747697E-01  0.70068523249E-02  0.11302843298E-01  0.24616072356E-01  0.00000000000E+00 0.  1.
     999901    1    3    3    0    0 -0.32714645537E-01  0.51579667857E-01  0.92887198674E-01  0.88699421748E+00  0.88000000000E+00 0. -1.
        -11    1    4    4    0    0  0.42050054243E-01 -0.47684581866E-01 -0.69382018040E-01  0.94107130218E-01  0.51100000000E-03 0. -1.
         11    1    4    4    0    0  0.11379338991E-01 -0.10901938316E-01 -0.34808023932E-01  0.38212579944E-01  0.51100000000E-03 0.  1.
</event>
<event>
 8    1  0.1183092E+005  0.1043930E+01  0.7957747E-01            NaN
         13   -1    0    0    0    0  0.00000000000E+00  0.00000000000E+00  0.74505805969E-08  0.10566000000E+00  0.10566000000E+00 0.  1.
     999900   -1    0    0    0    0 -0.00000000000E+00 -0.00000000000E+00 -0.74505805969E-08  0.93827000000E+00  0.93827000000E+00 0. -1.
     999902    2    1    2    0    0  0.22350966210E-01 -0.33845799946E-02  0.88766051187E-03  0.10213068036E+01  0.10210562071E+01 0.  0.
     999903    2    3    3    0    0 -0.36911728696E-01 -0.12251582936E+00 -0.18667687817E-01  0.13108956429E+00  0.21526428853E-01 0.  0.
         14    1    1    2    0    0 -0.22350966210E-01  0.33845799946E-02 -0.88766051187E-03  0.22623196358E-01  0.00000000000E+00 0.  1.
     999901    1    3    3    0    0  0.59262694906E-01  0.11913124937E+00  0.19555348329E-01  0.89021723935E+00  0.88000000000E+00 0. -1.
        -11    1    4    4    0    0 -0.13690564237E-01 -0.18897047427E-01 -0.42992140465E-03  0.23344718974E-01  0.51100000000E-03 0. -1.
         11    1    4    4    0    0 -0.23221164459E-01 -0.10361878193E+00 -0.18237766413E-01  0.10774484532E+00  0.51100000000E-03 0.  1.
</event>
<event>
 8    1  0.1183092E+005  0.1043930E+01  0.7957747E-01            NaN
         13   -1    0    0    0    0  0.00000000000E+00  0.00000000000E+00  0.74505805969E-08  0.10566000000E+00  0.10566000000E+00 0. -1.
     999900   -1    0    0    0    0 -0.00000000000E+00 -0.00000000000E+00 -0.74505805969E-08  0.93827000000E+00  0.93827000000E+00 0. -1.
     999902    2    1    2    0    0  0.22359097675E-01  0.79091523775E-02  0.55543973121E-02  0.10195715257E+01  0.10192805113E+01 0.  0.
     999903    2    3    3    0    0  0.10574207500E+00  0.12254786636E-01 -0.75432843948E-01  0.13191701032E+00  0.19504293003E-01 0.  0.
         14    1    1    2    0    0 -0.22359097675E-01 -0.79091523775E-02 -0.55543973121E-02  0.24358474289E-01  0.00000000000E+00 0. -1.
     999901    1    3    3    0    0 -0.83382977324E-01 -0.43456342584E-02  0.80987241260E-01  0.88765451539E+00  0.88000000000E+00 0.  1.
        -11    1    4    4    0    0  0.11349088179E-02 -0.19737277607E-02 -0.33551930045E-02  0.40868154345E-02  0.51100000000E-03 0.  1.
         11    1    4    4    0    0  0.10460716618E+00  0.14228514397E-01 -0.72077650943E-01  0.12783019489E+00  0.51100000000E-03 0. -1.
</event>
<event>
 8    1  0.1183092E+005  0.1043930E+01  0.7957747E-01            NaN
         13   -1    0    0    0    0  0.00000000000E+00  0.00000000000E+00  0.74505805969E-08  0.10566000000E+00  0.10566000000E+00 0. -1.
     999900   -1    0    0    0    0 -0.00000000000E+00 -0.00000000000E+00 -0.74505805969E-08  0.93827000000E+00  0.93827000000E+00 0.  1.
     999902    2    1    2    0    0 -0.90192425350E-02 -0.15127339666E-01  0.14631465264E-01  0.10210332116E+01  0.10207764478E+01 0.  0.
     999903    2    3    3    0    0  0.49372863667E-01 -0.95979339228E-01 -0.71872405130E-01  0.13118513276E+00  0.19854047764E-01 0.  0.
         14    1    1    2    0    0  0.90192425350E-02  0.15127339666E-01 -0.14631465264E-01  0.22896788357E-01  0.00000000000E+00 0.  1.
     999901    1    3    3    0    0 -0.58392106202E-01  0.80851999562E-01  0.86503870394E-01  0.88984807888E+00  0.88000000000E+00 0. -1.
        -11    1    4    4    0    0  0.38534133424E-01 -0.69153557326E-01 -0.42090985125E-01  0.89660504568E-01  0.51100000000E-03 0. -1.
         11    1    4    4    0    0  0.10838730243E-01 -0.26825781902E-01 -0.29781420005E-01  0.41524628192E-01  0.51100000000E-03 0.  1.
</event>
<event>
 8    1  0.1183092E+005  0.1043930E+01  0.7957747E-01            NaN
         13   -1    0    0    0    0  0.00000000000E+00  0.00000000000E+00  0.74505805969E-08  0.10566000000E+00  0.10566000000E+00 0.  1.
     999900   -1    0    0    0    0 -0.00000000000E+00 -0.00000000000E+00 -0.74505805969E-08  0.93827000000E+00  0.93827000000E+00 0.  1.
     999902    2    1    2    0    0  0.14830333356E-02  0.14011888099E-01  0.16831539818E-01  0.10219793023E+01  0.10217435399E+01 0.  0.
     999903    2    3    3    0    0  0.10359082047E+00 -0.23930082028E-01  0.77612153358E-01  0.13318243224E+00  0.20253567474E-01 0.  0.
         14    1    1    2    0    0 -0.14830333356E-02 -0.14011888099E-01 -0.16831539818E-01  0.21950697680E-01  0.00000000000E+00 0. -1.
     999901    1    3    3    0    0 -0.10210778714E+00  0.37941970127E-01 -0.60780613539E-01  0.88879687009E+00  0.88000000000E+00 0. -1.
        -11    1    4    4    0    0  0.57179469116E-01 -0.19424874828E-01  0.33845356769E-01  0.69228511079E-01  0.51100000000E-03 0. -1.
         11    1    4    4    0    0  0.46411351356E-01 -0.45052071999E-02  0.43766796588E-01  0.63953921156E-01  0.51100000000E-03 0.  1.
</event>
<event>
 8    1  0.1183092E+005  0.1043930E+01  0.7957747E-01            NaN
         13   -1    0    0    0    0  0.00000000000E+00  0.00000000000E+00  0.74505805969E-08  0.10566000000E+00  0.10566000000E+00 0. -1.
     999900   -1    0    0    0    0 -0.00000000000E+00 -0.00000000000E+00 -0.74505805969E-08  0.93827000000E+00  0.93827000000E+00 0.  1.
     999902    2    1    2    0    0 -0.13936940654E-01 -0.99548612801E-03 -0.55712059892E-02  0.10288878046E+01  0.10287778413E+01 0.  0.
     999903    2    3    3    0    0 -0.25281474694E-01  0.11216705098E-01  0.13347746983E+00  0.13781408690E+00  0.20285959677E-01 0.  0.
         14    1    1    2    0    0  0.13936940654E-01  0.99548612801E-03  0.55712059892E-02  0.15042195438E-01  0.00000000000E+00 0. -1.
     999901    1    3    3    0    0  0.11344534040E-01 -0.12212191226E-01 -0.13904867582E+00  0.89107371766E+00  0.88000000000E+00 0.  1.
        -11    1    4    4    0    0 -0.26563985410E-01  0.85600929374E-02  0.13096170553E+00  0.13390350984E+00  0.51100000000E-03 0.  1.
         11    1    4    4    0    0  0.12825107166E-02  0.26566121604E-02  0.25157643007E-02  0.39105770579E-02  0.51100000000E-03 0. -1.
</event>
<event>
 8    1  0.1183092E+005  0.1043930E+01  0.7957747E-01            NaN
         13   -1    0    0    0    0  0.00000000000E+00  0.00000000000E+00  0.74505805969E-08  0.10566000000E+00  0.10566000000E+00 0.  1.
     999900   -1    0    0    0    0 -0.00000000000E+00 -0.00000000000E+00 -0.74505805969E-08  0.93827000000E+00  0.93827000000E+00 0. -1.
     999902    2    1    2    0    0  0.22128370127E-02  0.22065651909E-01  0.87155640329E-02  0.10201024802E+01  0.10198241611E+01 0.  0.
     999903    2    3    3    0    0 -0.11711228970E+00  0.48499843983E-02 -0.52129978893E-01  0.12980082059E+00  0.19796655752E-01 0.  0.
         14    1    1    2    0    0 -0.22128370127E-02 -0.22065651909E-01 -0.87155640329E-02  0.23827519767E-01  0.00000000000E+00 0.  1.
     999901    1    3    3    0    0  0.11932512671E+00  0.17215667511E-01  0.60845542926E-01  0.89030165964E+00  0.88000000000E+00 0.  1.
        -11    1    4    4    0    0 -0.46423837348E-01 -0.60377158747E-02 -0.26667016395E-01  0.53879658235E-01  0.51100000000E-03 0.  1.
         11    1    4    4    0    0 -0.70688452350E-01  0.10887700273E-01 -0.25462962498E-01  0.75921162353E-01  0.51100000000E-03 0. -1.
</event>
<event>
 8    1  0.1183092E+005  0.1043930E+01  0.7957747E-01            NaN
         13   -1    0    0    0    0  0.00000000000E+00  0.00000000000E+00  0.74505805969E-08  0.10566000000E+00  0.10566000000E+00 0.  1.
     999900   -1    0    0    0    0 -0.00000000000E+00 -0.00000000000E+00 -0.74505805969E-08  0.93827000000E+00  0.93827000000E+00 0.  1.
     999902    2    1    2    0    0  0.17242947058E-01 -0.77206435268E-02 -0.12907482683E-01  0.10210492074E+01  0.10207928063E+01 0.  0.
     999903    2    3    3    0    0  0.12130297064E+00 -0.45648416783E-01 -0.27831603666E-01  0.13398115261E+00  0.19446399433E-01 0.  0.
         14    1    1    2    0    0 -0.17242947058E-01  0.77206435268E-02  0.12907482683E-01  0.22880792576E-01  0.00000000000E+00 0.  1.
     999901    1    3    3    0    0 -0.10406002358E+00  0.37927773256E-01  0.14924120984E-01  0.88706805482E+00  0.88000000000E+00 0. -1.
        -11    1    4    4    0    0  0.48305904706E-01 -0.28440908354E-01 -0.11977824066E-01  0.57324297534E-01  0.51100000000E-03 0.  1.
         11    1    4    4    0    0  0.72997065931E-01 -0.17207508429E-01 -0.15853779601E-01  0.76656855071E-01  0.51100000000E-03 0. -1.
</event>
<event>
 8    1  0.1183092E+005  0.1043930E+01  0.7957747E-01            NaN
         13   -1    0    0    0    0  0.00000000000E+00  0.00000000000E+00  0.74505805969E-08  0.10566000000E+00  0.10566000000E+00 0. -1.
     999900   -1    0    0    0    0 -0.00000000000E+00 -0.00000000000E+00 -0.74505805969E-08  0.93827000000E+00  0.93827000000E+00 0.  1.
     999902    2    1    2    0    0  0.16557968965E-01 -0.55585099086E-02  0.16492697688E-01  0.10199076678E+01  0.10196247243E+01 0.  0.
     999903    2    3    3    0    0  0.11977402291E+00  0.98252629777E-02  0.53158868756E-01  0.13298341939E+00  0.20405199075E-01 0.  0.
         14    1    1    2    0    0 -0.16557968965E-01  0.55585099086E-02 -0.16492697688E-01  0.24022332228E-01  0.00000000000E+00 0.  1.
     999901    1    3    3    0    0 -0.10321605395E+00 -0.15383772886E-01 -0.36666171068E-01  0.88692424838E+00  0.88000000000E+00 0.  1.
        -11    1    4    4    0    0  0.73414793642E-01 -0.39746798627E-02  0.32068917701E-01  0.80213506400E-01  0.51100000000E-03 0.  1.
         11    1    4    4    0    0  0.46359229270E-01  0.13799942840E-01  0.21089951055E-01  0.52769912994E-01  0.51100000000E-03 0. -1.
</event>
<event>
 8    1  0.1183092E+005  0.1043930E+01  0.7957747E-01            NaN
         13   -1    0    0    0    0  0.00000000000E+00  0.00000000000E+00  0.74505805969E-08  0.10566000000E+00  0.10566000000E+00 0.  1.
     999900   -1    0    0    0    0 -0.00000000000E+00 -0.00000000000E+00 -0.74505805969E-08  0.93827000000E+00  0.93827000000E+00 0. -1.
     999902    2    1    2    0    0 -0.91468667529E-02 -0.19364010490E-01 -0.13049940691E-01  0.10188515027E+01  0.10185428089E+01 0.  0.
     999903    2    3    3    0    0  0.40068547724E-01 -0.12324373808E+00  0.53562323696E-02  0.13118493129E+00  0.19654248384E-01 0.  0.
         14    1    1    2    0    0  0.91468667529E-02  0.19364010490E-01  0.13049940691E-01  0.25078497277E-01  0.00000000000E+00 0.  1.
     999901    1    3    3    0    0 -0.49215414477E-01  0.10387972759E+00 -0.18406173061E-01  0.88766657143E+00  0.88000000000E+00 0. -1.
        -11    1    4    4    0    0  0.91749017518E-02 -0.16071340816E-01  0.65605204107E-02  0.19640986911E-01  0.51100000000E-03 0.  1.
         11    1    4    4    0    0  0.30893645972E-01 -0.10717239727E+00 -0.12042880410E-02  0.11154394438E+00  0.51100000000E-03 0. -1.
</event>
<event>
 8    1  0.1183092E+005  0.1043930E+01  0.7957747E-01            NaN
         13   -1    0    0    0    0  0.00000000000E+00  0.00000000000E+00  0.74505805969E-08  0.10566000000E+00  0.10566000000E+00 0.  1.
     999900   -1    0    0    0    0 -0.00000000000E+00 -0.00000000000E+00 -0.74505805969E-08  0.93827000000E+00  0.93827000000E+00 0. -1.
     999902    2    1    2    0    0 -0.21986049644E-01 -0.15997423311E-01  0.61678801767E-02  0.10160490625E+01  0.10156664564E+01 0.  0.
     999903    2    3    3    0    0 -0.10840283598E+00  0.57607426515E-01 -0.30083017894E-01  0.12801772153E+00  0.20341057577E-01 0.  0.
         14    1    1    2    0    0  0.21986049644E-01  0.15997423311E-01 -0.61678801767E-02  0.27880937527E-01  0.00000000000E+00 0. -1.
     999901    1    3    3    0    0  0.86416786335E-01 -0.73604849826E-01  0.36250898071E-01  0.88803134094E+00  0.88000000000E+00 0.  1.
        -11    1    4    4    0    0 -0.33281933444E-01  0.28660019672E-01 -0.10301067797E-01  0.45116038613E-01  0.51100000000E-03 0.  1.
         11    1    4    4    0    0 -0.75120902535E-01  0.28947406843E-01 -0.19781950097E-01  0.82901682922E-01  0.51100000000E-03 0. -1.
</event>
<event>
 8    1  0.1183092E+005  0.1043930E+01  0.7957747E-01            NaN
         13   -1    0    0    0    0  0.00000000000E+00  0.00000000000E+00  0.74505805969E-08  0.10566000000E+00  0.10566000000E+00 0.  1.
     999900   -1    0    0    0    0 -0.00000000000E+00 -0.00000000000E+00 -0.74505805969E-08  0.93827000000E+00  0.93827000000E+00 0.  1.
     999902    2    1    2    0    0  0.21707529319E-01 -0.27409310782E-02 -0.54827838819E-02  0.10213736162E+01  0.10211245141E+01 0.  0.
     999903    2    3    3    0    0  0.57159854598E-01  0.46863058900E-02  0.11712261737E+00  0.13213567522E+00  0.21281887278E-01 0.  0.
         14    1    1    2    0    0 -0.21707529319E-01  0.27409310782E-02  0.54827838819E-02  0.22556383828E-01  0.00000000000E+00 0.  1.
     999901    1    3    3    0    0 -0.35452325280E-01 -0.74272369682E-02 -0.12260540125E+00  0.88923794095E+00  0.88000000000E+00 0.  1.
        -11    1    4    4    0    0  0.50721678741E-01 -0.63469206304E-03  0.85422399743E-01  0.99349579905E-01  0.51100000000E-03 0. -1.
         11    1    4    4    0    0  0.64381758573E-02  0.53209979530E-02  0.31700217623E-01  0.32786095314E-01  0.51100000000E-03 0.  1.
</event>
<event>
 8    1  0.1183092E+005  0.1043930E+01  0.7957747E-01            NaN
         13   -1    0    0    0    0  0.00000000000E+00  0.00000000000E+00  0.74505805969E-08  0.10566000000E+00  0.10566000000E+00 0.  1.
     999900   -1    0    0    0    0 -0.00000000000E+00 -0.00000000000E+00 -0.74505805969E-08  0.93827000000E+00  0.93827000000E+00 0.  1.
     999902    2    1    2    0    0  0.15860728235E-01 -0.58924213429E-02  0.17656573522E-01  0.10194751862E+01  0.10191818372E+01 0.  0.
     999903    2    3    3    0    0 -0.36666662008E-01  0.11082008494E+00 -0.47825272944E-01  0.12780887638E+00  0.20550348424E-01 0.  0.
         14    1    1    2    0    0 -0.15860728235E-01  0.58924213429E-02 -0.17656573522E-01  0.24454813799E-01  0.00000000000E+00 0.  1.
     999901    1    3    3    0    0  0.52527390242E-01 -0.11671250629E+00  0.65481846466E-01  0.89166630982E+00  0.88000000000E+00 0. -1.
        -11    1    4    4    0    0 -0.26197745779E-01  0.80236404469E-01 -0.44192323337E-01  0.95275521772E-01  0.51100000000E-03 0. -1.
         11    1    4    4    0    0 -0.10468916229E-01  0.30583680474E-01 -0.36329496069E-02  0.32533354610E-01  0.51100000000E-03 0.  1.
</event>
<event>
 8    1  0.1183092E+005  0.1043930E+01  0.7957747E-01            NaN
         13   -1    0    0    0    0  0.00000000000E+00  0.00000000000E+00  0.74505805969E-08  0.10566000000E+00  0.10566000000E+00 0.  1.
     999900   -1    0    0    0    0 -0.00000000000E+00 -0.00000000000E+00 -0.74505805969E-08  0.93827000000E+00  0.93827000000E+00 0.  1.
     999902    2    1    2    0    0  0.13010985745E-01 -0.91675142965E-02  0.18362228172E-01  0.10196297841E+01  0.10193401769E+01 0.  0.
     999903    2    3    3    0    0 -0.97214410921E-01 -0.82859777966E-01  0.81860953864E-02  0.12963891817E+00  0.20563376455E-01 0.  0.
         14    1    1    2    0    0 -0.13010985745E-01  0.91675142965E-02 -0.18362228172E-01  0.24300215881E-01  0.00000000000E+00 0. -1.
     999901    1    3    3    0    0  0.11022539667E+00  0.73692263670E-01  0.10176132786E-01  0.88999086595E+00  0.88000000000E+00 0. -1.
        -11    1    4    4    0    0 -0.64790911857E-01 -0.42108769859E-01  0.35787697071E-02  0.77356832096E-01  0.51100000000E-03 0.  1.
         11    1    4    4    0    0 -0.32423499063E-01 -0.40751008108E-01  0.46073256794E-02  0.52282086074E-01  0.51100000000E-03 0. -1.
</event>
<event>
 8    1  0.1183092E+005  0.1043930E+01  0.7957747E-01            NaN
         13   -1    0    0    0    0  0.00000000000E+00  0.00000000000E+00  0.74505805969E-08  0.10566000000E+00  0.10566000000E+00 0. -1.
     999900   -1    0    0    0    0 -0.00000000000E+00 -0.00000000000E+00 -0.74505805969E-08  0.93827000000E+00  0.93827000000E+00 0. -1.
     999902    2    1    2    0    0 -0.63519309294E-04 -0.79190841361E-02 -0.21810510403E-01  0.10207262440E+01  0.10204624691E+01 0.  0.
     999903    2    3    3    0    0  0.54990568032E-01 -0.91091416558E-01 -0.77838324347E-01  0.13332120382E+00  0.19852705290E-01 0.  0.
         14    1    1    2    0    0  0.63519309294E-04  0.79190841361E-02  0.21810510403E-01  0.23203755996E-01  0.00000000000E+00 0. -1.
     999901    1    3    3    0    0 -0.55054087341E-01  0.83172332422E-01  0.56027813943E-01  0.88740504019E+00  0.88000000000E+00 0.  1.
        -11    1    4    4    0    0  0.79541292575E-02 -0.11055024897E-01 -0.19098906557E-01  0.23462972966E-01  0.51100000000E-03 0. -1.
         11    1    4    4    0    0  0.47036438774E-01 -0.80036391661E-01 -0.58739417790E-01  0.10985823085E+00  0.51100000000E-03 0.  1.
</event>
<event>
 8    1  0.1183092E+005  0.1043930E+01  0.7957747E-01            NaN
         13   -1    0    0    0    0  0.00000000000E+00  0.00000000000E+00  0.74505805969E-08  0.10566000000E+00  0.10566000000E+00 0. -1.
     999900   -1    0    0    0    0 -0.00000000000E+00 -0.00000000000E+00 -0.74505805969E-08  0.93827000000E+00  0.93827000000E+00 0. -1.
     999902    2    1    2    0    0 -0.13995091709E-01  0.19343936961E-01  0.26836364418E-02  0.10199039226E+01  0.10196208898E+01 0.  0.
     999903    2    3    3    0    0  0.98667473156E-01  0.83813374871E-01  0.11322894447E-01  0.13034009765E+00  0.10019034354E-01 0.  0.
         14    1    1    2    0    0  0.13995091709E-01 -0.19343936961E-01 -0.26836364418E-02  0.24026077367E-01  0.00000000000E+00 0. -1.
     999901    1    3    3    0    0 -0.11266256487E+00 -0.64469437910E-01 -0.86392580049E-02  0.88956382499E+00  0.88000000000E+00 0. -1.
        -11    1    4    4    0    0  0.89976952976E-01  0.72597108942E-01  0.11036236530E-01  0.11613893374E+00  0.51100000000E-03 0. -1.
         11    1    4    4    0    0  0.86905201804E-02  0.11216265929E-01  0.28665791715E-03  0.14201163901E-01  0.51100000000E-03 0.  1.
</event>
<event>
 8    1  0.1183092E+005  0.1043930E+01  0.7957747E-01            NaN
         13   -1    0    0    0    0  0.00000000000E+00  0.00000000000E+00  0.74505805969E-08  0.10566000000E+00  0.10566000000E+00 0. -1.
     999900   -1    0    0    0    0 -0.00000000000E+00 -0.00000000000E+00 -0.74505805969E-08  0.93827000000E+00  0.93827000000E+00 0. -1.
     999902    2    1    2    0    0  0.11388092677E-01  0.17330826818E-01 -0.12640210675E-01  0.10196437665E+01  0.10193544964E+01 0.  0.
     999903    2    3    3    0    0  0.10233721634E+00  0.81664412861E-01 -0.34794360478E-02  0.13257304033E+00  0.20531009986E-01 0.  0.
         14    1    1    2    0    0 -0.11388092677E-01 -0.17330826818E-01  0.12640210675E-01  0.24286233527E-01  0.00000000000E+00 0.  1.
     999901    1    3    3    0    0 -0.90949123662E-01 -0.64333586043E-01 -0.91607746270E-02  0.88707072614E+00  0.88000000000E+00 0. -1.
        -11    1    4    4    0    0  0.37672070873E-01  0.42657135064E-01 -0.39612444435E-02  0.57050579964E-01  0.51100000000E-03 0. -1.
         11    1    4    4    0    0  0.64665145467E-01  0.39007277797E-01  0.48180839561E-03  0.75522460366E-01  0.51100000000E-03 0.  1.
</event>
<event>
 8    1  0.1183092E+005  0.1043930E+01  0.7957747E-01            NaN
         13   -1    0    0    0    0  0.00000000000E+00  0.00000000000E+00  0.74505805969E-08  0.10566000000E+00  0.10566000000E+00 0. -1.
     999900   -1    0    0    0    0 -0.00000000000E+00 -0.00000000000E+00 -0.74505805969E-08  0.93827000000E+00  0.93827000000E+00 0.  1.
     999902    2    1    2    0    0  0.54278626157E-02 -0.58192485586E-02  0.22235149717E-01  0.10203137507E+01  0.10200404025E+01 0.  0.
     999903    2    3    3    0    0  0.82216668304E-02  0.12448330902E+00 -0.27638518757E-01  0.12931770997E+00  0.19886989778E-01 0.  0.
         14    1    1    2    0    0 -0.54278626157E-02  0.58192485586E-02 -0.22235149717E-01  0.23616249264E-01  0.00000000000E+00 0.  1.
     999901    1    3    3    0    0 -0.27938042147E-02 -0.13030255758E+00  0.49873668474E-01  0.89099604077E+00  0.88000000000E+00 0.  1.
        -11    1    4    4    0    0 -0.19056368687E-02  0.29536547275E-01 -0.14395557164E-01  0.32917051263E-01  0.51100000000E-03 0.  1.
         11    1    4    4    0    0  0.10127303699E-01  0.94946761747E-01 -0.13242961593E-01  0.96400658707E-01  0.51100000000E-03 0. -1.
</event>
<event>
 8    1  0.1183092E+005  0.1043930E+01  0.7957747E-01            NaN
         13   -1    0    0    0    0  0.00000000000E+00  0.00000000000E+00  0.74505805969E-08  0.10566000000E+00  0.10566000000E+00 0. -1.
     999900   -1    0    0    0    0 -0.00000000000E+00 -0.00000000000E+00 -0.74505805969E-08  0.93827000000E+00  0.93827000000E+00 0.  1.
     999902    2    1    2    0    0  0.21817967324E-01  0.57426470736E-02 -0.59176435538E-02  0.10206057594E+01  0.10203392063E+01 0.  0.
     999903    2    3    3    0    0 -0.10672973140E+00 -0.54294522593E-01  0.42987287685E-01  0.12790162876E+00  0.13106829907E-01 0.  0.
         14    1    1    2    0    0 -0.21817967324E-01 -0.57426470736E-02  0.59176435538E-02  0.23324240583E-01  0.00000000000E+00 0. -1.
     999901    1    3    3    0    0  0.12854769872E+00  0.60037169667E-01 -0.48904931239E-01  0.89270413065E+00  0.88000000000E+00 0. -1.
        -11    1    4    4    0    0 -0.78974748830E-01 -0.35209474386E-01  0.34971566840E-01  0.93273735036E-01  0.51100000000E-03 0. -1.
         11    1    4    4    0    0 -0.27754982565E-01 -0.19085048207E-01  0.80157208454E-02  0.34627893726E-01  0.51100000000E-03 0.  1.
</event>
<event>
 8    1  0.1183092E+005  0.1043930E+01  0.7957747E-01            NaN
         13   -1    0    0    0    0  0.00000000000E+00  0.00000000000E+00  0.74505805969E-08  0.10566000000E+00  0.10566000000E+00 0.  1.
     999900   -1    0    0    0    0 -0.00000000000E+00 -0.00000000000E+00 -0.74505805969E-08  0.93827000000E+00  0.93827000000E+00 0.  1.
     999902    2    1    2    0    0 -0.59158295031E-02 -0.65794859446E-02  0.12039982245E-01  0.10289885193E+01  0.10288800343E+01 0.  0.
     999903    2    3    3    0    0 -0.49959840170E-01 -0.81319900099E-01  0.10091216627E+00  0.14026793918E+00  0.19568282442E-01 0.  0.
         14    1    1    2    0    0  0.59158295031E-02  0.65794859446E-02 -0.12039982245E-01  0.14941480732E-01  0.00000000000E+00 0. -1.
     999901    1    3    3    0    0  0.44044010667E-01  0.74740414155E-01 -0.88872184026E-01  0.88872058009E+00  0.88000000000E+00 0.  1.
        -11    1    4    4    0    0 -0.23205853744E-01 -0.23532241483E-01  0.26796154152E-01  0.42550828846E-01  0.51100000000E-03 0.  1.
         11    1    4    4    0    0 -0.26753986426E-01 -0.57787658616E-01  0.74116012119E-01  0.97717110331E-01  0.51100000000E-03 0. -1.
</event>
<event>
 8    1  0.1183092E+005  0.1043930E+01  0.7957747E-01            NaN
         13   -1    0    0    0    0  0.00000000000E+00  0.00000000000E+00  0.74505805969E-08  0.10566000000E+00  0.10566000000E+00 0.  1.
     999900   -1    0    0    0    0 -0.00000000000E+00 -0.00000000000E+00 -0.74505805969E-08  0.93827000000E+00  0.93827000000E+00 0.  1.
     999902    2    1    2    0    0 -0.19715837506E-04  0.21754788016E-01 -0.45301342949E-02  0.10217085395E+01  0.10214668601E+01 0.  0.
     999903    2    3    3    0    0  0.10955179449E+00  0.27309432996E-01 -0.66783086706E-01  0.13271348887E+00  0.20136748748E-01 0.  0.
         14    1    1    2    0    0  0.19715837506E-04 -0.21754788016E-01  0.45301342949E-02  0.22221460507E-01  0.00000000000E+00 0. -1.
     999901    1    3    3    0    0 -0.10957151033E+00 -0.55546449805E-02  0.62252952411E-01  0.88899505063E+00  0.88000000000E+00 0. -1.
        -11    1    4    4    0    0  0.52885850833E-01  0.11263937436E-01 -0.20584585594E-01  0.57859967075E-01  0.51100000000E-03 0. -1.
         11    1    4    4    0    0  0.56665943658E-01  0.16045495560E-01 -0.46198501112E-01  0.74853521791E-01  0.51100000000E-03 0.  1.
</event>
<event>
 8    1  0.1183092E+005  0.1043930E+01  0.7957747E-01            NaN
         13   -1    0    0    0    0  0.00000000000E+00  0.00000000000E+00  0.74505805969E-08  0.10566000000E+00  0.10566000000E+00 0. -1.
     999900   -1    0    0    0    0 -0.00000000000E+00 -0.00000000000E+00 -0.74505805969E-08  0.93827000000E+00  0.93827000000E+00 0. -1.
     999902    2    1    2    0    0 -0.24780517132E-02  0.76664054166E-02 -0.20892026202E-01  0.10215382321E+01  0.10212927926E+01 0.  0.
     999903    2    3    3    0    0  0.10924846148E-01  0.16420866920E-01  0.12610002163E+00  0.12920256630E+00  0.20077115065E-01 0.  0.
         14    1    1    2    0    0  0.24780517132E-02 -0.76664054166E-02  0.20892026202E-01  0.22391767933E-01  0.00000000000E+00 0. -1.
     999901    1    3    3    0    0 -0.13402897862E-01 -0.87544615037E-02 -0.14699204784E+00  0.89233566576E+00  0.88000000000E+00 0. -1.
        -11    1    4    4    0    0  0.45988610270E-02  0.18225222743E-01  0.62664759509E-01  0.65425082897E-01  0.51100000000E-03 0.  1.
         11    1    4    4    0    0  0.63259851213E-02 -0.18043558223E-02  0.63435262125E-01  0.63777483406E-01  0.51100000000E-03 0. -1.
</event>
<event>
 8    1  0.1183092E+005  0.1043930E+01  0.7957747E-01            NaN
         13   -1    0    0    0    0  0.00000000000E+00  0.00000000000E+00  0.74505805969E-08  0.10566000000E+00  0.10566000000E+00 0. -1.
     999900   -1    0    0    0    0 -0.00000000000E+00 -0.00000000000E+00 -0.74505805969E-08  0.93827000000E+00  0.93827000000E+00 0. -1.
     999902    2    1    2    0    0 -0.17287231220E-01  0.15057336443E-01  0.58606189387E-02  0.10202674009E+01  0.10199929660E+01 0.  0.
     999903    2    3    3    0    0  0.17742920696E-01  0.70087232664E-01 -0.10721453159E+00  0.13063748303E+00  0.18551678379E-01 0.  0.
         14    1    1    2    0    0  0.17287231220E-01 -0.15057336443E-01 -0.58606189387E-02  0.23662599146E-01  0.00000000000E+00 0. -1.
     999901    1    3    3    0    0 -0.35030151915E-01 -0.55029896221E-01  0.11307515053E+00  0.88962991782E+00  0.88000000000E+00 0.  1.
        -11    1    4    4    0    0  0.13586221346E-01  0.25507165917E-01 -0.52556645149E-01  0.59980521788E-01  0.51100000000E-03 0. -1.
         11    1    4    4    0    0  0.41566993495E-02  0.44580066747E-01 -0.54657886442E-01  0.70656961242E-01  0.51100000000E-03 0.  1.
</event>
<event>
 8    1  0.1183092E+005  0.1043930E+01  0.7957747E-01            NaN
         13   -1    0    0    0    0  0.00000000000E+00  0.00000000000E+00  0.74505805969E-08  0.10566000000E+00  0.10566000000E+00 0. -1.
     999900   -1    0    0    0    0 -0.00000000000E+00 -0.00000000000E+00 -0.74505805969E-08  0.93827000000E+00  0.93827000000E+00 0.  1.
     999902    2    1    2    0    0 -0.31175422436E-01  0.11367441108E-01  0.10097644999E-01  0.10092444394E+01  0.10086482292E+01 0.  0.
     999903    2    3    3    0    0  0.22443350656E-01 -0.22511897855E-01  0.11286605246E+00  0.12099665412E+00  0.29848868944E-01 0.  0.
         14    1    1    2    0    0  0.31175422436E-01 -0.11367441108E-01 -0.10097644999E-01  0.34685560626E-01  0.00000000000E+00 0.  1.
     999901    1    3    3    0    0 -0.53618773093E-01  0.33879338963E-01 -0.10276840746E+00  0.88824778525E+00  0.88000000000E+00 0.  1.
        -11    1    4    4    0    0  0.16983141956E-01 -0.29908306106E-01  0.89199388577E-01  0.95601913832E-01  0.51100000000E-03 0. -1.
         11    1    4    4    0    0  0.54602087008E-02  0.73964082510E-02  0.23666663880E-01  0.25394740288E-01  0.51100000000E-03 0.  1.
</event>
<event>
 8    1  0.1183092E+005  0.1043930E+01  0.7957747E-01            NaN
         13   -1    0    0    0    0  0.00000000000E+00  0.00000000000E+00  0.74505805969E-08  0.10566000000E+00  0.10566000000E+00 0.  1.
     999900   -1    0    0    0    0 -0.00000000000E+00 -0.00000000000E+00 -0.74505805969E-08  0.93827000000E+00  0.93827000000E+00 0.  1.
     999902    2    1    2    0    0  0.27948443795E-01 -0.30591458480E-03  0.85166831073E-02  0.10147111194E+01  0.10142903493E+01 0.  0.
     999903    2    3    3    0    0 -0.62710538745E-01  0.62298330318E-01  0.85336957655E-01  0.12452029871E+00  0.20229058795E-01 0.  0.
         14    1    1    2    0    0 -0.27948443795E-01  0.30591458480E-03 -0.85166831073E-02  0.29218880633E-01  0.00000000000E+00 0. -1.
     999901    1    3    3    0    0  0.90658982540E-01 -0.62604244903E-01 -0.76820274547E-01  0.89019082065E+00  0.88000000000E+00 0.  1.
        -11    1    4    4    0    0 -0.51765434690E-01  0.38845816322E-01  0.58677507535E-01  0.87361139450E-01  0.51100000000E-03 0.  1.
         11    1    4    4    0    0 -0.10945104055E-01  0.23452513996E-01  0.26659450120E-01  0.37159159264E-01  0.51100000000E-03 0. -1.
</event>
<event>
 8    1  0.1183092E+005  0.1043930E+01  0.7957747E-01            NaN
         13   -1    0    0    0    0  0.00000000000E+00  0.00000000000E+00  0.74505805969E-08  0.10566000000E+00  0.10566000000E+00 0.  1.
     999900   -1    0    0    0    0 -0.00000000000E+00 -0.00000000000E+00 -0.74505805969E-08  0.93827000000E+00  0.93827000000E+00 0. -1.
     999902    2    1    2    0    0  0.18516385107E-01 -0.10278910093E-01 -0.12729356207E-01  0.10192207099E+01  0.10189211483E+01 0.  0.
     999903    2    3    3    0    0  0.96673654106E-01  0.82059558300E-01 -0.25151774694E-01  0.13085745762E+00  0.20285362628E-01 0.  0.
         14    1    1    2    0    0 -0.18516385107E-01  0.10278910093E-01  0.12729356207E-01  0.24709290147E-01  0.00000000000E+00 0.  1.
     999901    1    3    3    0    0 -0.78157268999E-01 -0.92338468392E-01  0.12422418487E-01  0.88836325224E+00  0.88000000000E+00 0. -1.
        -11    1    4    4    0    0  0.50896401017E-01  0.37597395405E-01 -0.21882491985E-01  0.66956047929E-01  0.51100000000E-03 0. -1.
         11    1    4    4    0    0  0.45777253089E-01  0.44462162895E-01 -0.32692827092E-02  0.63901409688E-01  0.51100000000E-03 0.  1.
</event>
<event>
 8    1  0.1183092E+005  0.1043930E+01  0.7957747E-01            NaN
         13   -1    0    0    0    0  0.00000000000E+00  0.00000000000E+00  0.74505805969E-08  0.10566000000E+00  0.10566000000E+00 0.  1.
     999900   -1    0    0    0    0 -0.00000000000E+00 -0.00000000000E+00 -0.74505805969E-08  0.93827000000E+00  0.93827000000E+00 0.  1.
     999902    2    1    2    0    0 -0.16507271924E-01  0.12617423664E-01 -0.11348132944E-01  0.10202557624E+01  0.10199810543E+01 0.  0.
     999903    2    3    3    0    0  0.94511976768E-01 -0.35514647286E-01 -0.78700158534E-01  0.12942566342E+00  0.19065242563E-01 0.  0.
         14    1    1    2    0    0  0.16507271924E-01 -0.12617423664E-01  0.11348132944E-01  0.23674237635E-01  0.00000000000E+00 0.  1.
     999901    1    3    3    0    0 -0.11101924869E+00  0.48132070951E-01  0.67352025590E-01  0.89083009894E+00  0.88000000000E+00 0. -1.
        -11    1    4    4    0    0  0.30137109390E-01 -0.21085473928E-02 -0.23743475858E-01  0.38427920856E-01  0.51100000000E-03 0.  1.
         11    1    4    4    0    0  0.64374867379E-01 -0.33406099893E-01 -0.54956682676E-01  0.90997742565E-01  0.51100000000E-03 0. -1.
</event>
<event>
 8    1  0.1183092E+005  0.1043930E+01  0.7957747E-01            NaN
         13   -1    0    0    0    0  0.00000000000E+00  0.00000000000E+00  0.74505805969E-08  0.10566000000E+00  0.10566000000E+00 0. -1.
     999900   -1    0    0    0    0 -0.00000000000E+00 -0.00000000000E+00 -0.74505805969E-08  0.93827000000E+00  0.93827000000E+00 0.  1.
     999902    2    1    2    0    0  0.34083702476E-02 -0.14850505318E-01  0.17535078258E-01  0.10206999878E+01  0.10204356088E+01 0.  0.
     999903    2    3    3    0    0  0.68134917853E-01  0.10599940094E+00 -0.20878080984E-01  0.12925745092E+00  0.19833162195E-01 0.  0.
         14    1    1    2    0    0 -0.34083702476E-02  0.14850505318E-01 -0.17535078258E-01  0.23230012171E-01  0.00000000000E+00 0.  1.
     999901    1    3    3    0    0 -0.64726547605E-01 -0.12084990626E+00  0.38413159242E-01  0.89144253691E+00  0.88000000000E+00 0. -1.
        -11    1    4    4    0    0  0.17883814140E-01  0.29384463399E-01  0.31121260764E-02  0.34543073794E-01  0.51100000000E-03 0.  1.
         11    1    4    4    0    0  0.50251103713E-01  0.76614937540E-01 -0.23990207060E-01  0.94714377126E-01  0.51100000000E-03 0. -1.
</event>
<event>
 8    1  0.1183092E+005  0.1043930E+01  0.7957747E-01            NaN
         13   -1    0    0    0    0  0.00000000000E+00  0.00000000000E+00  0.74505805969E-08  0.10566000000E+00  0.10566000000E+00 0. -1.
     999900   -1    0    0    0    0 -0.00000000000E+00 -0.00000000000E+00 -0.74505805969E-08  0.93827000000E+00  0.93827000000E+00 0. -1.
     999902    2    1    2    0    0  0.62190131329E-02 -0.26001195354E-02  0.23243335046E-01  0.10197289800E+01  0.10194417606E+01 0.  0.
     999903    2    3    3    0    0 -0.10440223437E+00  0.67868881475E-01  0.30895983399E-01  0.12997536041E+00  0.20809154504E-01 0.  0.
         14    1    1    2    0    0 -0.62190131329E-02  0.26001195354E-02 -0.23243335046E-01  0.24201020020E-01  0.00000000000E+00 0.  1.
     999901    1    3    3    0    0  0.11062124750E+00 -0.70469001010E-01 -0.76526483524E-02  0.88975361956E+00  0.88000000000E+00 0. -1.
        -11    1    4    4    0    0 -0.66951562191E-01  0.42235614842E-01  0.92776581859E-02  0.79703794786E-01  0.51100000000E-03 0.  1.
         11    1    4    4    0    0 -0.37450672177E-01  0.25633266633E-01  0.21618325213E-01  0.50271565629E-01  0.51100000000E-03 0. -1.
</event>
<event>
 8    1  0.1183092E+005  0.1043930E+01  0.7957747E-01            NaN
         13   -1    0    0    0    0  0.00000000000E+00  0.00000000000E+00  0.74505805969E-08  0.10566000000E+00  0.10566000000E+00 0. -1.
     999900   -1    0    0    0    0 -0.00000000000E+00 -0.00000000000E+00 -0.74505805969E-08  0.93827000000E+00  0.93827000000E+00 0. -1.
     999902    2    1    2    0    0  0.76389005199E-02  0.24748853787E-01  0.10505101379E-01  0.10159797635E+01  0.10155952265E+01 0.  0.
     999903    2    3    3    0    0  0.22733230177E-01  0.37264675418E-01  0.11959371685E+00  0.12902722216E+00  0.20974059223E-01 0.  0.
         14    1    1    2    0    0 -0.76389005199E-02 -0.24748853787E-01 -0.10505101379E-01  0.27950236492E-01  0.00000000000E+00 0.  1.
     999901    1    3    3    0    0 -0.15094329657E-01 -0.12515821630E-01 -0.10908861547E+00  0.88695254135E+00  0.88000000000E+00 0. -1.
        -11    1    4    4    0    0  0.13764631142E-01  0.10130422773E-01  0.25609541895E-01  0.30792861074E-01  0.51100000000E-03 0.  1.
         11    1    4    4    0    0  0.89685990347E-02  0.27134252645E-01  0.93984174954E-01  0.98234361087E-01  0.51100000000E-03 0. -1.
</event>
<event>
 8    1  0.1183092E+005  0.1043930E+01  0.7957747E-01            NaN
         13   -1    0    0    0    0  0.00000000000E+00  0.00000000000E+00  0.74505805969E-08  0.10566000000E+00  0.10566000000E+00 0.  1.
     999900   -1    0    0    0    0 -0.00000000000E+00 -0.00000000000E+00 -0.74505805969E-08  0.93827000000E+00  0.93827000000E+00 0. -1.
     999902    2    1    2    0    0 -0.23362224618E-01  0.74533044273E-02 -0.78317767595E-03  0.10193951543E+01  0.10190998587E+01 0.  0.
     999903    2    3    3    0    0 -0.12646708489E+00 -0.30927949588E-01 -0.11453093619E-01  0.13248051356E+00  0.21666829316E-01 0.  0.
         14    1    1    2    0    0  0.23362224618E-01 -0.74533044273E-02  0.78317767595E-03  0.24534845695E-01  0.00000000000E+00 0.  1.
     999901    1    3    3    0    0  0.10310486027E+00  0.38381254015E-01  0.10669915943E-01  0.88691464075E+00  0.88000000000E+00 0. -1.
        -11    1    4    4    0    0 -0.67129828496E-01 -0.25905983429E-01 -0.66685592269E-03  0.71959986584E-01  0.51100000000E-03 0. -1.
         11    1    4    4    0    0 -0.59337256392E-01 -0.50219661586E-02 -0.10786237696E-01  0.60520526971E-01  0.51100000000E-03 0.  1.
</event>
<event>
 8    1  0.1183092E+005  0.1043930E+01  0.7957747E-01            NaN
         13   -1    0    0    0    0  0.00000000000E+00  0.00000000000E+00  0.74505805969E-08  0.10566000000E+00  0.10566000000E+00 0.  1.
     999900   -1    0    0    0    0 -0.00000000000E+00 -0.00000000000E+00 -0.74505805969E-08  0.93827000000E+00  0.93827000000E+00 0.  1.
     999902    2    1    2    0    0 -0.49053161778E-02  0.13493453862E-01  0.15650790731E-01  0.10226912930E+01  0.10224707322E+01 0.  0.
     999903    2    3    3    0    0 -0.88943776842E-02 -0.55559030605E-01 -0.11551570221E+00  0.13028510349E+00  0.21550287675E-01 0.  0.
         14    1    1    2    0    0  0.49053161778E-02 -0.13493453862E-01 -0.15650790731E-01  0.21238706986E-01  0.00000000000E+00 0. -1.
     999901    1    3    3    0    0  0.39890615065E-02  0.69052484467E-01  0.13116649294E+00  0.89240618952E+00  0.88000000000E+00 0. -1.
        -11    1    4    4    0    0  0.56748474739E-03 -0.35411294166E-01 -0.88191870215E-01  0.95038670479E-01  0.51100000000E-03 0.  1.
         11    1    4    4    0    0 -0.94618624316E-02 -0.20147736439E-01 -0.27323831997E-01  0.35246433015E-01  0.51100000000E-03 0. -1.
</event>
<event>
 8    1  0.1183092E+005  0.1043930E+01  0.7957747E-01            NaN
         13   -1    0    0    0    0  0.00000000000E+00  0.00000000000E+00  0.74505805969E-08  0.10566000000E+00  0.10566000000E+00 0. -1.
     999900   -1    0    0    0    0 -0.00000000000E+00 -0.00000000000E+00 -0.74505805969E-08  0.93827000000E+00  0.93827000000E+00 0.  1.
     999902    2    1    2    0    0  0.14458383436E-01  0.64187193338E-02  0.16494112980E-01  0.10210761038E+01  0.10208203119E+01 0.  0.
     999903    2    3    3    0    0 -0.11230145252E-01 -0.86530056408E-01 -0.93026799693E-01  0.12905917248E+00  0.19715925414E-01 0.  0.
         14    1    1    2    0    0 -0.14458383436E-01 -0.64187193338E-02 -0.16494112980E-01  0.22853896221E-01  0.00000000000E+00 0.  1.
     999901    1    3    3    0    0  0.25688528688E-01  0.92948775742E-01  0.10952091267E+00  0.89201693130E+00  0.88000000000E+00 0. -1.
        -11    1    4    4    0    0 -0.13246755933E-01 -0.38180335797E-01 -0.34692147049E-01  0.53263690937E-01  0.51100000000E-03 0.  1.
         11    1    4    4    0    0  0.20166106811E-02 -0.48349720610E-01 -0.58334652644E-01  0.75795481540E-01  0.51100000000E-03 0. -1.
</event>
<event>
 8    1  0.1183092E+005  0.1043930E+01  0.7957747E-01            NaN
         13   -1    0    0    0    0  0.00000000000E+00  0.00000000000E+00  0.74505805969E-08  0.10566000000E+00  0.10566000000E+00 0. -1.
     999900   -1    0    0    0    0 -0.00000000000E+00 -0.00000000000E+00 -0.74505805969E-08  0.93827000000E+00  0.93827000000E+00 0. -1.
     999902    2    1    2    0    0  0.10377004641E-01 -0.17906138595E-01  0.98930741494E-02  0.10209912786E+01  0.10207335627E+01 0.  0.
     999903    2    3    3    0    0  0.92315475058E-01  0.89818249789E-01  0.47104649160E-02  0.13062881517E+00  0.21265792810E-01 0.  0.
         14    1    1    2    0    0 -0.10377004641E-01  0.17906138595E-01 -0.98930741494E-02  0.22938721429E-01  0.00000000000E+00 0. -1.
     999901    1    3    3    0    0 -0.81938470417E-01 -0.10772438838E+00  0.51826092334E-02  0.89036246340E+00  0.88000000000E+00 0. -1.
        -11    1    4    4    0    0  0.10629067183E-01  0.85005971753E-02 -0.59732017771E-02  0.14872036914E-01  0.51100000000E-03 0.  1.
         11    1    4    4    0    0  0.81686407875E-01  0.81317652613E-01  0.10683666693E-01  0.11575677826E+00  0.51100000000E-03 0. -1.
</event>
<event>
 8    1  0.1183092E+005  0.1043930E+01  0.7957747E-01            NaN
         13   -1    0    0    0    0  0.00000000000E+00  0.00000000000E+00  0.74505805969E-08  0.10566000000E+00  0.10566000000E+00 0.  1.
     999900   -1    0    0    0    0 -0.00000000000E+00 -0.00000000000E+00 -0.74505805969E-08  0.93827000000E+00  0.93827000000E+00 0. -1.
     999902    2    1    2    0    0  0.46969112006E-02 -0.82896568647E-02  0.68751718135E-02  0.10321806437E+01  0.10321137698E+01 0.  0.
     999903    2    3    3    0    0  0.40656682213E-01  0.96277384014E-02  0.13495015900E+00  0.14200238037E+00  0.14403869621E-01 0.  0.
         14    1    1    2    0    0 -0.46969112006E-02  0.82896568647E-02 -0.68751718135E-02  0.11749356290E-01  0.00000000000E+00 0. -1.
     999901    1    3    3    0    0 -0.35959771012E-01 -0.17917395266E-01 -0.12807498719E+00  0.89017826334E+00  0.88000000000E+00 0.  1.
        -11    1    4    4    0    0  0.24328703780E-01  0.71893960592E-03  0.92563198286E-01  0.95711073026E-01  0.51100000000E-03 0.  1.
         11    1    4    4    0    0  0.16327978433E-01  0.89087987955E-02  0.42386960716E-01  0.46291307342E-01  0.51100000000E-03 0. -1.
</event>
<event>
 8    1  0.1183092E+005  0.1043930E+01  0.7957747E-01            NaN
         13   -1    0    0    0    0  0.00000000000E+00  0.00000000000E+00  0.74505805969E-08  0.10566000000E+00  0.10566000000E+00 0.  1.
     999900   -1    0    0    0    0 -0.00000000000E+00 -0.00000000000E+00 -0.74505805969E-08  0.93827000000E+00  0.93827000000E+00 0. -1.
     999902    2    1    2    0    0  0.19464464783E-01 -0.76552243733E-02 -0.10649184675E-01  0.10204593165E+01  0.10201893666E+01 0.  0.
     999903    2    3    3    0    0 -0.76353536027E-01  0.99239659929E-01 -0.24722933704E-01  0.12871626159E+00  0.16681725969E-01 0.  0.
         14    1    1    2    0    0 -0.19464464783E-01  0.76552243733E-02  0.10649184675E-01  0.23470683495E-01  0.00000000000E+00 0.  1.
     999901    1    3    3    0    0  0.95818000810E-01 -0.10689488430E+00  0.14073749029E-01  0.89174305491E+00  0.88000000000E+00 0. -1.
        -11    1    4    4    0    0 -0.35893007724E-01  0.60216876459E-01 -0.13888767609E-01  0.71467049755E-01  0.51100000000E-03 0.  1.
         11    1    4    4    0    0 -0.40460528303E-01  0.39022783470E-01 -0.10834166095E-01  0.57249211840E-01  0.51100000000E-03 0. -1.
</event>
<event>
 8    1  0.1183092E+005  0.1043930E+01  0.7957747E-01            NaN
         13   -1    0    0    0    0  0.00000000000E+00  0.00000000000E+00  0.74505805969E-08  0.10566000000E+00  0.10566000000E+00 0.  1.
     999900   -1    0    0    0    0 -0.00000000000E+00 -0.00000000000E+00 -0.74505805969E-08  0.93827000000E+00  0.93827000000E+00 0.  1.
     999902    2    1    2    0    0 -0.13575328532E-01 -0.17676646302E-01  0.11148455476E-01  0.10190092972E+01  0.10187045236E+01 0.  0.
     999903    2    3    3    0    0  0.24024522369E-03  0.10780326078E+00  0.66935401414E-01  0.12825216951E+00  0.18619083494E-01 0.  0.
         14    1    1    2    0    0  0.13575328532E-01  0.17676646302E-01 -0.11148455476E-01  0.24920702814E-01  0.00000000000E+00 0. -1.
     999901    1    3    3    0    0 -0.13815573756E-01 -0.12547990708E+00 -0.55786945938E-01  0.89075712767E+00  0.88000000000E+00 0.  1.
        -11    1    4    4    0    0 -0.39304652100E-02  0.19419621623E-01  0.19721857448E-01  0.27960383455E-01  0.51100000000E-03 0. -1.
         11    1    4    4    0    0  0.41707104337E-02  0.88383639158E-01  0.47213543966E-01  0.10029178606E+00  0.51100000000E-03 0.  1.
</event>
<event>
 8    1  0.1183092E+005  0.1043930E+01  0.7957747E-01            NaN
         13   -1    0    0    0    0  0.00000000000E+00  0.00000000000E+00  0.74505805969E-08  0.10566000000E+00  0.10566000000E+00 0. -1.
     999900   -1    0    0    0    0 -0.00000000000E+00 -0.00000000000E+00 -0.74505805969E-08  0.93827000000E+00  0.93827000000E+00 0.  1.
     999902    2    1    2    0    0 -0.20691299546E-01  0.10236102242E-01  0.46289749839E-02  0.10203856785E+01  0.10201140122E+01 0.  0.
     999903    2    3    3    0    0 -0.39308625738E-01 -0.11807489747E+00 -0.32411118461E-01  0.13011477253E+00  0.19812217461E-01 0.  0.
         14    1    1    2    0    0  0.20691299546E-01 -0.10236102242E-01 -0.46289749839E-02  0.23544321511E-01  0.00000000000E+00 0.  1.
     999901    1    3    3    0    0  0.18617326192E-01  0.12831099971E+00  0.37040093445E-01  0.89027090596E+00  0.88000000000E+00 0. -1.
        -11    1    4    4    0    0 -0.80138746685E-02 -0.30957930944E-01  0.16013538869E-03  0.31982846025E-01  0.51100000000E-03 0. -1.
         11    1    4    4    0    0 -0.31294751070E-01 -0.87116966522E-01 -0.32571253849E-01  0.98131926501E-01  0.51100000000E-03 0.  1.
</event>
<event>
 8    1  0.1183092E+005  0.1043930E+01  0.7957747E-01            NaN
         13   -1    0    0    0    0  0.00000000000E+00  0.00000000000E+00  0.74505805969E-08  0.10566000000E+00  0.10566000000E+00 0.  1.
     999900   -1    0    0    0    0 -0.00000000000E+00 -0.00000000000E+00 -0.74505805969E-08  0.93827000000E+00  0.93827000000E+00 0. -1.
     999902    2    1    2    0    0  0.18672392900E-01  0.86224722584E-02 -0.17148984819E-01  0.10171514085E+01  0.10167988468E+01 0.  0.
     999903    2    3    3    0    0 -0.85678081751E-01 -0.22928272289E-01  0.85286660808E-01  0.12452744926E+00  0.19152852149E-01 0.  0.
         14    1    1    2    0    0 -0.18672392900E-01 -0.86224722584E-02  0.17148984819E-01  0.26778591538E-01  0.00000000000E+00 0.  1.
     999901    1    3    3    0    0  0.10435047465E+00  0.31550744547E-01 -0.10243564563E+00  0.89262395920E+00  0.88000000000E+00 0. -1.
        -11    1    4    4    0    0 -0.17747677514E-01 -0.11502402423E-01  0.26927390913E-01  0.34243697537E-01  0.51100000000E-03 0.  1.
         11    1    4    4    0    0 -0.67930404237E-01 -0.11425869866E-01  0.58359269895E-01  0.90283751725E-01  0.51100000000E-03 0. -1.
</event>
<event>
 8    1  0.1183092E+005  0.1043930E+01  0.7957747E-01            NaN
         13   -1    0    0    0    0  0.00000000000E+00  0.00000000000E+00  0.74505805969E-08  0.10566000000E+00  0.10566000000E+00 0. -1.
     999900   -1    0    0    0    0 -0.00000000000E+00 -0.00000000000E+00 -0.74505805969E-08  0.93827000000E+00  0.93827000000E+00 0.  1.
     999902    2    1    2    0    0 -0.21055542609E-01  0.43736226588E-02 -0.89437202881E-02  0.10206393456E+01  0.10203735685E+01 0.  0.
     999903    2    3    3    0    0 -0.53653049418E-01 -0.52600697389E-02 -0.11933817286E+00  0.13309084516E+00  0.23775102877E-01 0.  0.
         14    1    1    2    0    0  0.21055542609E-01 -0.43736226588E-02  0.89437202881E-02  0.23290654399E-01  0.00000000000E+00 0.  1.
     999901    1    3    3    0    0  0.32597506809E-01  0.96336923977E-02  0.11039445258E+00  0.88754850044E+00  0.88000000000E+00 0. -1.
        -11    1    4    4    0    0 -0.36029751358E-01  0.13677560506E-02 -0.52801756600E-01  0.63939818271E-01  0.51100000000E-03 0.  1.
         11    1    4    4    0    0 -0.17623298060E-01 -0.66278257895E-02 -0.66536416265E-01  0.69151026887E-01  0.51100000000E-03 0. -1.
</event>
<event>
 8    1  0.1183092E+005  0.1043930E+01  0.7957747E-01            NaN
         13   -1    0    0    0    0  0.00000000000E+00  0.00000000000E+00  0.74505805969E-08  0.10566000000E+00  0.10566000000E+00 0.  1.
     999900   -1    0    0    0    0 -0.00000000000E+00 -0.00000000000E+00 -0.74505805969E-08  0.93827000000E+00  0.93827000000E+00 0.  1.
     999902    2    1    2    0    0  0.21219150433E-01  0.91840124098E-02 -0.50269456547E-02  0.10202684571E+01  0.10199940470E+01 0.  0.
     999903    2    3    3    0    0 -0.69176629686E-01 -0.82450584203E-01  0.66216675759E-01  0.12805550610E+00  0.20737877546E-01 0.  0.
         14    1    1    2    0    0 -0.21219150433E-01 -0.91840124098E-02  0.50269456547E-02  0.23661542884E-01  0.00000000000E+00 0.  1.
     999901    1    3    3    0    0  0.90395780119E-01  0.91634596613E-01 -0.71243621413E-01  0.89221295101E+00  0.88000000000E+00 0. -1.
        -11    1    4    4    0    0 -0.26997249036E-01 -0.46261024723E-01  0.38376295878E-01  0.65893361352E-01  0.51100000000E-03 0. -1.
         11    1    4    4    0    0 -0.42179380650E-01 -0.36189559480E-01  0.27840379881E-01  0.62162144753E-01  0.51100000000E-03 0.  1.
</event>
<event>
 8    1  0.1183092E+005  0.1043930E+01  0.7957747E-01            NaN
         13   -1    0    0    0    0  0.00000000000E+00  0.00000000000E+00  0.74505805969E-08  0.10566000000E+00  0.10566000000E+00 0.  1.
     999900   -1    0    0    0    0 -0.00000000000E+00 -0.00000000000E+00 -0.74505805969E-08  0.93827000000E+00  0.93827000000E+00 0.  1.
     999902    2    1    2    0    0  0.19172363368E-01 -0.10481789837E-02  0.10623900861E-01  0.10219858558E+01  0.10217502356E+01 0.  0.
     999903    2    3    3    0    0 -0.60277312440E-01 -0.11457371575E+00  0.63784932831E-02  0.13113327427E+00  0.19868560803E-01 0.  0.
         14    1    1    2    0    0 -0.19172363368E-01  0.10481789837E-02 -0.10623900861E-01  0.21944144225E-01  0.00000000000E+00 0.  1.
     999901    1    3    3    0    0  0.79449675807E-01  0.11352553677E+00  0.42454075779E-02  0.89085258150E+00  0.88000000000E+00 0.  1.
        -11    1    4    4    0    0 -0.27758844783E-01 -0.61305977029E-01  0.12399239061E-01  0.68432291599E-01  0.51100000000E-03 0. -1.
         11    1    4    4    0    0 -0.32518467657E-01 -0.53267738724E-01 -0.60207457776E-02  0.62700982673E-01  0.51100000000E-03 0.  1.
</event>
<event>
 8    1  0.1183092E+005  0.1043930E+01  0.7957747E-01            NaN
         13   -1    0    0    0    0  0.00000000000E+00  0.00000000000E+00  0.74505805969E-08  0.10566000000E+00  0.10566000000E+00 0. -1.
     999900   -1    0    0    0    0 -0.00000000000E+00 -0.00000000000E+00 -0.74505805969E-08  0.93827000000E+00  0.93827000000E+00 0. -1.
     999902    2    1    2    0    0  0.20524629039E-01  0.36990636511E-02  0.32717115163E-02  0.10228196337E+01  0.10226017580E+01 0.  0.
     999903    2    3    3    0    0 -0.64380985890E-01  0.22318794556E-01 -0.11035273939E+00  0.13126695793E+00  0.20254560463E-01 0.  0.
         14    1    1    2    0    0 -0.20524629039E-01 -0.36990636511E-02 -0.32717115163E-02  0.21110366300E-01  0.00000000000E+00 0. -1.
     999901    1    3    3    0    0  0.84905614929E-01 -0.18619730905E-01  0.11362445091E+00  0.89155267577E+00  0.88000000000E+00 0.  1.
        -11    1    4    4    0    0 -0.60795870512E-02 -0.13217236059E-02 -0.32132522923E-02  0.70210001636E-02  0.51100000000E-03 0. -1.
         11    1    4    4    0    0 -0.58301398839E-01  0.23640518162E-01 -0.10713948710E+00  0.12424595777E+00  0.51100000000E-03 0.  1.
</event>
<event>
 8    1  0.1183092E+005  0.1043930E+01  0.7957747E-01            NaN
         13   -1    0    0    0    0  0.00000000000E+00  0.00000000000E+00  0.74505805969E-08  0.10566000000E+00  0.10566000000E+00 0. -1.
     999900   -1    0    0    0    0 -0.00000000000E+00 -0.00000000000E+00 -0.74505805969E-08  0.93827000000E+00  0.93827000000E+00 0.  1.
     999902    2    1    2    0    0  0.15220531599E-01 -0.21233428606E-01 -0.64103566888E-02  0.10170298932E+01  0.10166740815E+01 0.  0.
     999903    2    3    3    0    0  0.79646053132E-01  0.24718946829E-01 -0.95682335237E-01  0.12898048310E+00  0.22942005877E-01 0.  0.
         14    1    1    2    0    0 -0.15220531599E-01  0.21233428606E-01  0.64103566888E-02  0.26900106791E-01  0.00000000000E+00 0. -1.
     999901    1    3    3    0    0 -0.64425521533E-01 -0.45952375434E-01  0.89271978548E-01  0.88804941010E+00  0.88000000000E+00 0.  1.
        -11    1    4    4    0    0  0.54257639183E-01  0.66511291762E-02 -0.53085825796E-01  0.76200360566E-01  0.51100000000E-03 0.  1.
         11    1    4    4    0    0  0.25388413949E-01  0.18067817652E-01 -0.42596509441E-01  0.52780122538E-01  0.51100000000E-03 0. -1.
</event>
<event>
 8    1  0.1183092E+005  0.1043930E+01  0.7957747E-01            NaN
         13   -1    0    0    0    0  0.00000000000E+00  0.00000000000E+00  0.74505805969E-08  0.10566000000E+00  0.10566000000E+00 0. -1.
     999900   -1    0    0    0    0 -0.00000000000E+00 -0.00000000000E+00 -0.74505805969E-08  0.93827000000E+00  0.93827000000E+00 0. -1.
     999902    2    1    2    0    0  0.15364637048E-01  0.11033495794E-01  0.15223180210E-01  0.10196492398E+01  0.10193601017E+01 0.  0.
     999903    2    3    3    0    0  0.11377527361E+00  0.31051299746E-02 -0.61363698035E-01  0.13082244997E+00  0.19863415188E-01 0.  0.
         14    1    1    2    0    0 -0.15364637048E-01 -0.11033495794E-01 -0.15223180210E-01  0.24280760218E-01  0.00000000000E+00 0.  1.
     999901    1    3    3    0    0 -0.98410636558E-01  0.79283658194E-02  0.76586878245E-01  0.88882678981E+00  0.88000000000E+00 0.  1.
        -11    1    4    4    0    0  0.92105295574E-01  0.76723338679E-02 -0.55868558649E-01  0.10799910716E+00  0.51100000000E-03 0.  1.
         11    1    4    4    0    0  0.21669978031E-01 -0.45672038933E-02 -0.54951393858E-02  0.22823342813E-01  0.51100000000E-03 0. -1.
</event>
<event>
 8    1  0.1183092E+005  0.1043930E+01  0.7957747E-01            NaN
         13   -1    0    0    0    0  0.00000000000E+00  0.00000000000E+00  0.74505805969E-08  0.10566000000E+00  0.10566000000E+00 0. -1.
     999900   -1    0    0    0    0 -0.00000000000E+00 -0.00000000000E+00 -0.74505805969E-08  0.93827000000E+00  0.93827000000E+00 0.  1.
     999902    2    1    2    0    0 -0.15084426518E-01 -0.36543853382E-02  0.18009550668E-01  0.10201552577E+01  0.10198781846E+01 0.  0.
     999903    2    3    3    0    0 -0.12886263519E+00  0.19227735935E-01  0.86352522750E-02  0.13248586559E+00  0.22419911261E-01 0.  0.
         14    1    1    2    0    0  0.15084426518E-01  0.36543853382E-02 -0.18009550668E-01  0.23774742288E-01  0.00000000000E+00 0.  1.
     999901    1    3    3    0    0  0.11377820867E+00 -0.22882121273E-01  0.93742983935E-02  0.88766939212E+00  0.88000000000E+00 0.  1.
        -11    1    4    4    0    0 -0.34396405450E-01  0.12937639423E-01  0.88739466291E-02  0.37808772414E-01  0.51100000000E-03 0.  1.
         11    1    4    4    0    0 -0.94466229743E-01  0.62900965121E-02 -0.23869435415E-03  0.94677093174E-01  0.51100000000E-03 0. -1.
</event>
<event>
 8    1  0.1183092E+005  0.1043930E+01  0.7957747E-01            NaN
         13   -1    0    0    0    0  0.00000000000E+00  0.00000000000E+00  0.74505805969E-08  0.10566000000E+00  0.10566000000E+00 0. -1.
     999900   -1    0    0    0    0 -0.00000000000E+00 -0.00000000000E+00 -0.74505805969E-08  0.93827000000E+00  0.93827000000E+00 0. -1.
     999902    2    1    2    0    0 -0.17685164168E-01  0.15398409052E-01 -0.62430439396E-02  0.10196637347E+01  0.10193749459E+01 0.  0.
     999903    2    3    3    0    0  0.10667612778E+00  0.52754277729E-01  0.40895832085E-01  0.12888695825E+00  0.27866985290E-01 0.  0.
         14    1    1    2    0    0  0.17685164168E-01 -0.15398409052E-01  0.62430439396E-02  0.24266265279E-01  0.00000000000E+00 0. -1.
     999901    1    3    3    0    0 -0.12436129195E+00 -0.37355868678E-01 -0.47138876025E-01  0.89077677647E+00  0.88000000000E+00 0.  1.
        -11    1    4    4    0    0  0.69801679551E-01  0.19303046466E-01  0.25196839599E-01  0.76681314007E-01  0.51100000000E-03 0. -1.
         11    1    4    4    0    0  0.36874448229E-01  0.33451231263E-01  0.15698992486E-01  0.52205644247E-01  0.51100000000E-03 0.  1.
</event>
<event>
 8    1  0.1183092E+005  0.1043930E+01  0.7957747E-01            NaN
         13   -1    0    0    0    0  0.00000000000E+00  0.00000000000E+00  0.74505805969E-08  0.10566000000E+00  0.10566000000E+00 0.  1.
     999900   -1    0    0    0    0 -0.00000000000E+00 -0.00000000000E+00 -0.74505805969E-08  0.93827000000E+00  0.93827000000E+00 0. -1.
     999902    2    1    2    0    0  0.15030391705E-01  0.16238521876E-01 -0.80285666039E-02  0.10203915177E+01  0.10201199877E+01 0.  0.
     999903    2    3    3    0    0  0.65499865886E-01 -0.99725539950E-01  0.46827924779E-01  0.12965919757E+00  0.19576445722E-01 0.  0.
         14    1    1    2    0    0 -0.15030391705E-01 -0.16238521876E-01  0.80285666039E-02  0.23538482306E-01  0.00000000000E+00 0.  1.
     999901    1    3    3    0    0 -0.50469474181E-01  0.11596406183E+00 -0.54856491383E-01  0.89073232012E+00  0.88000000000E+00 0.  1.
        -11    1    4    4    0    0  0.27045675385E-01 -0.25219047650E-01  0.16497544266E-01  0.40495666549E-01  0.51100000000E-03 0. -1.
         11    1    4    4    0    0  0.38454190501E-01 -0.74506492300E-01  0.30330380513E-01  0.89163531026E-01  0.51100000000E-03 0.  1.
</event>
<event>
 8    1  0.1509232E+005  0.1043930E+01  0.7957747E-01            NaN
         13   -1    0    0    0    0  0.00000000000E+00  0.00000000000E+00  0.74505805969E-08  0.10566000000E+00  0.10566000000E+00 0.  1.
     999900   -1    0    0    0    0 -0.00000000000E+00 -0.00000000000E+00 -0.74505805969E-08  0.93827000000E+00  0.93827000000E+00 0. -1.
     999902    2    1    2    0    0 -0.14359589797E-01  0.14113716636E-01 -0.11853710412E-01  0.10205653843E+01  0.10202978969E+01 0.  0.
     999903    2    3    3    0    0 -0.37971205290E-01  0.11245140401E+00  0.54964191989E-01  0.13225663098E+00  0.19586304924E-01 0.  0.
         14    1    1    2    0    0  0.14359589797E-01 -0.14113716636E-01  0.11853710412E-01  0.23364615703E-01  0.00000000000E+00 0.  1.
     999901    1    3    3    0    0  0.23611615493E-01 -0.98337687377E-01 -0.66817902401E-01  0.88830875332E+00  0.88000000000E+00 0. -1.
        -11    1    4    4    0    0 -0.34087060849E-01  0.76304066000E-01  0.42951808541E-01  0.93964659226E-01  0.51100000000E-03 0.  1.
         11    1    4    4    0    0 -0.38841444410E-02  0.36147338012E-01  0.12012383448E-01  0.38291971750E-01  0.51100000000E-03 0. -1.
</event>
<event>
 8    1  0.1183092E+005  0.1043930E+01  0.7957747E-01            NaN
         13   -1    0    0    0    0  0.00000000000E+00  0.00000000000E+00  0.74505805969E-08  0.10566000000E+00  0.10566000000E+00 0.  1.
     999900   -1    0    0    0    0 -0.00000000000E+00 -0.00000000000E+00 -0.74505805969E-08  0.93827000000E+00  0.93827000000E+00 0.  1.
     999902    2    1    2    0    0  0.16157191593E-01  0.10322092275E-01  0.14044633861E-01  0.10201633812E+01  0.10198864996E+01 0.  0.
     999903    2    3    3    0    0 -0.45875118853E-01  0.11785417157E+00  0.23236808470E-01  0.13140264191E+00  0.27066081144E-01 0.  0.
         14    1    1    2    0    0 -0.16157191593E-01 -0.10322092275E-01 -0.14044633861E-01  0.23766618804E-01  0.00000000000E+00 0. -1.
     999901    1    3    3    0    0  0.62032310446E-01 -0.10753207929E+00 -0.91921746090E-02  0.88876073928E+00  0.88000000000E+00 0. -1.
        -11    1    4    4    0    0 -0.43868085007E-01  0.96131954482E-01  0.27455248408E-01  0.10917789768E+00  0.51100000000E-03 0.  1.
         11    1    4    4    0    0 -0.20070338463E-02  0.21722217084E-01 -0.42184399382E-02  0.22224744238E-01  0.51100000000E-03 0. -1.
</event>
<event>
 8    1  0.1183092E+005  0.1043930E+01  0.7957747E-01            NaN
         13   -1    0    0    0    0  0.00000000000E+00  0.00000000000E+00  0.74505805969E-08  0.10566000000E+00  0.10566000000E+00 0. -1.
     999900   -1    0    0    0    0 -0.00000000000E+00 -0.00000000000E+00 -0.74505805969E-08  0.93827000000E+00  0.93827000000E+00 0. -1.
     999902    2    1    2    0    0  0.20476250659E-01  0.14526476031E-01 -0.72705340260E-02  0.10177927467E+01  0.10174570847E+01 0.  0.
     999903    2    3    3    0    0 -0.57547336636E-01  0.11268689279E+00  0.12305312770E-01  0.12868850004E+00  0.19981930778E-01 0.  0.
         14    1    1    2    0    0 -0.20476250659E-01 -0.14526476031E-01  0.72705340260E-02  0.26137253336E-01  0.00000000000E+00 0. -1.
     999901    1    3    3    0    0  0.78023587295E-01 -0.98160416763E-01 -0.19575846796E-01  0.88910424663E+00  0.88000000000E+00 0. -1.
        -11    1    4    4    0    0 -0.38694928282E-01  0.93069628147E-01  0.76877334524E-02  0.10108716795E+00  0.51100000000E-03 0.  1.
         11    1    4    4    0    0 -0.18852408354E-01  0.19617264647E-01  0.46175793176E-02  0.27601332083E-01  0.51100000000E-03 0. -1.
</event>
<event>
 8    1  0.1183092E+005  0.1043930E+01  0.7957747E-01            NaN
         13   -1    0    0    0    0  0.00000000000E+00  0.00000000000E+00  0.74505805969E-08  0.10566000000E+00  0.10566000000E+00 0.  1.
     999900   -1    0    0    0    0 -0.00000000000E+00 -0.00000000000E+00 -0.74505805969E-08  0.93827000000E+00  0.93827000000E+00 0.  1.
     999902    2    1    2    0    0  0.44451855672E-03 -0.20599431508E-01  0.12933389973E-01  0.10196029214E+01  0.10193126658E+01 0.  0.
     999903    2    3    3    0    0 -0.38319234472E-01  0.87839160643E-01  0.84366531074E-01  0.12922982522E+00  0.19963824495E-01 0.  0.
         14    1    1    2    0    0 -0.44451855672E-03  0.20599431508E-01 -0.12933389973E-01  0.24327078563E-01  0.00000000000E+00 0. -1.
     999901    1    3    3    0    0  0.38763753029E-01 -0.10843859215E+00 -0.71433141101E-01  0.89037309622E+00  0.88000000000E+00 0.  1.
        -11    1    4    4    0    0 -0.20328593238E-01  0.33565351689E-01  0.23617823951E-01  0.45803354312E-01  0.51100000000E-03 0.  1.
         11    1    4    4    0    0 -0.17990641234E-01  0.54273808955E-01  0.60748707123E-01  0.83426470910E-01  0.51100000000E-03 0. -1.
</event>
<event>
 8    1  0.1183092E+005  0.1043930E+01  0.7957747E-01            NaN
         13   -1    0    0    0    0  0.00000000000E+00  0.00000000000E+00  0.74505805969E-08  0.10566000000E+00  0.10566000000E+00 0. -1.
     999900   -1    0    0    0    0 -0.00000000000E+00 -0.00000000000E+00 -0.74505805969E-08  0.93827000000E+00  0.93827000000E+00 0. -1.
     999902    2    1    2    0    0  0.89383165679E-02  0.10142534366E-01  0.18076138168E-01  0.10213576435E+01  0.10211081846E+01 0.  0.
     999903    2    3    3    0    0  0.36084035276E-01 -0.11357247456E+00 -0.47948107278E-01  0.12984124183E+00  0.18946305958E-01 0.  0.
         14    1    1    2    0    0 -0.89383165679E-02 -0.10142534366E-01 -0.18076138168E-01  0.22572356490E-01  0.00000000000E+00 0.  1.
     999901    1    3    3    0    0 -0.27145718708E-01  0.12371500892E+00  0.66024245446E-01  0.89151640168E+00  0.88000000000E+00 0.  1.
        -11    1    4    4    0    0 -0.19499367237E-02 -0.96024904360E-02 -0.56799323627E-02  0.11337231957E-01  0.51100000000E-03 0. -1.
         11    1    4    4    0    0  0.38033972000E-01 -0.10396998412E+00 -0.42268174915E-01  0.11850400987E+00  0.51100000000E-03 0.  1.
</event>
<event>
 7    1  0.1183092E+005  0.1043930E+01  0.7957747E-01            NaN
         13   -1    0    0    0    0  0.00000000000E+00  0.00000000000E+00  0.74505805969E-08  0.10566000000E+00  0.10566000000E+00 0.  1.
     999900   -1    0    0    0    0 -0.00000000000E+00 -0.00000000000E+00 -0.74505805969E-08  0.93827000000E+00  0.93827000000E+00 0. -1.
     999903    2    1    2    0    0 -0.60321610063E-01  0.86109396251E-01  0.32821833897E-01  0.11191210134E+00  0.19837360801E-01 0.  0.
         14    1    1    2    0    0 -0.80307996747E-02  0.11064758908E-01  0.38811975793E-01  0.41149630595E-01  0.00000000000E+00 0.  1.
     999901    1    1    2    0    0  0.68352409738E-01 -0.97174155158E-01 -0.71633809690E-01  0.89086826806E+00  0.88000000000E+00 0. -1.
        -11    1    3    3    0    0 -0.37045986608E-01  0.58314383548E-01  0.12065984616E-01  0.70134310848E-01  0.51100000000E-03 0. -1.
         11    1    3    3    0    0 -0.23275623455E-01  0.27795012703E-01  0.20755849280E-01  0.41777790496E-01  0.51100000000E-03 0.  1.
</event>
<event>
 8    1  0.1183092E+005  0.1043930E+01  0.7957747E-01            NaN
         13   -1    0    0    0    0  0.00000000000E+00  0.00000000000E+00  0.74505805969E-08  0.10566000000E+00  0.10566000000E+00 0. -1.
     999900   -1    0    0    0    0 -0.00000000000E+00 -0.00000000000E+00 -0.74505805969E-08  0.93827000000E+00  0.93827000000E+00 0.  1.
     999902    2    1    2    0    0 -0.17630746188E-01 -0.15666798057E-01  0.27978527098E-02  0.10201787947E+01  0.10199022764E+01 0.  0.
     999903    2    3    3    0    0  0.18721146223E-01 -0.11792835451E+00 -0.52145030928E-01  0.13181084929E+00  0.19935336080E-01 0.  0.
         14    1    1    2    0    0  0.17630746188E-01  0.15666798057E-01 -0.27978527098E-02  0.23751205281E-01  0.00000000000E+00 0.  1.
     999901    1    3    3    0    0 -0.36351892411E-01  0.10226155646E+00  0.54942883638E-01  0.88836794543E+00  0.88000000000E+00 0. -1.
        -11    1    4    4    0    0  0.12171759697E-01 -0.82354353633E-01 -0.26138697980E-01  0.87257572448E-01  0.51100000000E-03 0. -1.
         11    1    4    4    0    0  0.65493865260E-02 -0.35574000880E-01 -0.26006332948E-01  0.44553276837E-01  0.51100000000E-03 0.  1.
</event>
<event>
 8    1  0.1183092E+005  0.1043930E+01  0.7957747E-01            NaN
         13   -1    0    0    0    0  0.00000000000E+00  0.00000000000E+00  0.74505805969E-08  0.10566000000E+00  0.10566000000E+00 0.  1.
     999900   -1    0    0    0    0 -0.00000000000E+00 -0.00000000000E+00 -0.74505805969E-08  0.93827000000E+00  0.93827000000E+00 0.  1.
     999902    2    1    2    0    0  0.30994271126E-02 -0.22856424192E-01 -0.11879378461E-02  0.10208338148E+01  0.10205725078E+01 0.  0.
     999903    2    3    3    0    0 -0.43956071601E-01  0.17755610324E-01 -0.12009617592E+00  0.13066376002E+00  0.20063120019E-01 0.  0.
         14    1    1    2    0    0 -0.30994271126E-02  0.22856424192E-01  0.11879378461E-02  0.23096185218E-01  0.00000000000E+00 0.  1.
     999901    1    3    3    0    0  0.47055498714E-01 -0.40612034517E-01  0.11890823807E+00  0.89017005476E+00  0.88000000000E+00 0. -1.
        -11    1    4    4    0    0 -0.11502979610E-01 -0.58094671753E-03 -0.49551296770E-01  0.50874828468E-01  0.51100000000E-03 0.  1.
         11    1    4    4    0    0 -0.32453091991E-01  0.18336557042E-01 -0.70544879148E-01  0.79788931556E-01  0.51100000000E-03 0. -1.
</event>
<event>
 8    1  0.1183092E+005  0.1043930E+01  0.7957747E-01            NaN
         13   -1    0    0    0    0  0.00000000000E+00  0.00000000000E+00  0.74505805969E-08  0.10566000000E+00  0.10566000000E+00 0. -1.
     999900   -1    0    0    0    0 -0.00000000000E+00 -0.00000000000E+00 -0.74505805969E-08  0.93827000000E+00  0.93827000000E+00 0. -1.
     999902    2    1    2    0    0  0.18339175822E-01  0.14895044221E-01  0.50252688078E-02  0.10197754758E+01  0.10194893722E+01 0.  0.
     999903    2    3    3    0    0 -0.36542930986E-01  0.49768946942E-01  0.11355559170E+00  0.13072707121E+00  0.19554049608E-01 0.  0.
         14    1    1    2    0    0 -0.18339175822E-01 -0.14895044221E-01 -0.50252688078E-02  0.24154524189E-01  0.00000000000E+00 0. -1.
     999901    1    3    3    0    0  0.54882106808E-01 -0.34873902721E-01 -0.10853032289E+00  0.88904840460E+00  0.88000000000E+00 0. -1.
        -11    1    4    4    0    0 -0.19000215366E-01  0.40168734527E-01  0.72048837051E-01  0.84651234243E-01  0.51100000000E-03 0.  1.
         11    1    4    4    0    0 -0.17542715620E-01  0.96002124150E-02  0.41506754648E-01  0.46075836966E-01  0.51100000000E-03 0. -1.
</event>
<event>
 8    1  0.1183092E+005  0.1043930E+01  0.7957747E-01            NaN
         13   -1    0    0    0    0  0.00000000000E+00  0.00000000000E+00  0.74505805969E-08  0.10566000000E+00  0.10566000000E+00 0. -1.
     999900   -1    0    0    0    0 -0.00000000000E+00 -0.00000000000E+00 -0.74505805969E-08  0.93827000000E+00  0.93827000000E+00 0. -1.
     999902    2    1    2    0    0 -0.96466400187E-02 -0.23580129444E-01 -0.19489561303E-02  0.10183785108E+01  0.10180579123E+01 0.  0.
     999903    2    3    3    0    0 -0.43523302390E-01  0.50370222573E-01  0.10735590354E+00  0.12789334243E+00  0.19999495986E-01 0.  0.
         14    1    1    2    0    0  0.96466400187E-02  0.23580129444E-01  0.19489561303E-02  0.25551489159E-01  0.00000000000E+00 0.  1.
     999901    1    3    3    0    0  0.33876662371E-01 -0.73950352017E-01 -0.10930485967E+00  0.89048516841E+00  0.88000000000E+00 0. -1.
        -11    1    4    4    0    0 -0.36544431988E-01  0.45348632678E-01  0.10279220080E+00  0.11814606071E+00  0.51100000000E-03 0. -1.
         11    1    4    4    0    0 -0.69788704014E-02  0.50215898943E-02  0.45637027349E-02  0.97472817133E-02  0.51100000000E-03 0.  1.
</event>
<event>
 8    1  0.1183092E+005  0.1043930E+01  0.7957747E-01            NaN
         13   -1    0    0    0    0  0.00000000000E+00  0.00000000000E+00  0.74505805969E-08  0.10566000000E+00  0.10566000000E+00 0.  1.
     999900   -1    0    0    0    0 -0.00000000000E+00 -0.00000000000E+00 -0.74505805969E-08  0.93827000000E+00  0.93827000000E+00 0.  1.
     999902    2    1    2    0    0  0.11271206371E-01 -0.17941682226E-02 -0.20240550127E-01  0.10206934124E+01  0.10204288820E+01 0.  0.
     999903    2    3    3    0    0  0.10409355683E-01  0.60262289292E-01  0.11173788405E+00  0.12869001905E+00  0.18326703861E-01 0.  0.
         14    1    1    2    0    0 -0.11271206371E-01  0.17941682226E-02  0.20240550127E-01  0.23236587574E-01  0.00000000000E+00 0. -1.
     999901    1    3    3    0    0  0.86185068743E-03 -0.62056457515E-01 -0.13197843418E+00  0.89200339338E+00  0.88000000000E+00 0.  1.
        -11    1    4    4    0    0  0.16379796210E-02  0.43447698400E-01  0.64527951306E-01  0.77810687532E-01  0.51100000000E-03 0. -1.
         11    1    4    4    0    0  0.87713760622E-02  0.16814590892E-01  0.47209932746E-01  0.50879331518E-01  0.51100000000E-03 0.  1.
</event>
<event>
 8    1  0.1183092E+005  0.1043930E+01  0.7957747E-01            NaN
         13   -1    0    0    0    0  0.00000000000E+00  0.00000000000E+00  0.74505805969E-08  0.10566000000E+00  0.10566000000E+00 0.  1.
     999900   -1    0    0    0    0 -0.00000000000E+00 -0.00000000000E+00 -0.74505805969E-08  0.93827000000E+00  0.93827000000E+00 0. -1.
     999902    2    1    2    0    0 -0.80381484585E-02 -0.17099540083E-01  0.13186592278E-01  0.10208888994E+01  0.10206288515E+01 0.  0.
     999903    2    3    3    0    0 -0.60892099975E-01  0.83262665392E-01 -0.75190211111E-01  0.12921823605E+00  0.20081468884E-01 0.  0.
         14    1    1    2    0    0  0.80381484585E-02  0.17099540083E-01 -0.13186592278E-01  0.23041100616E-01  0.00000000000E+00 0. -1.
     999901    1    3    3    0    0  0.52853951517E-01 -0.10036220548E+00  0.88376803389E-01  0.89167066334E+00  0.88000000000E+00 0.  1.
        -11    1    4    4    0    0  0.82774932508E-03  0.15322477120E-02 -0.42776460781E-02  0.46467546702E-02  0.51100000000E-03 0.  1.
         11    1    4    4    0    0 -0.61719849300E-01  0.81730417680E-01 -0.70912565033E-01  0.12457148138E+00  0.51100000000E-03 0. -1.
</event>
<event>
 8    1  0.1183092E+005  0.1043930E+01  0.7957747E-01            NaN
         13   -1    0    0    0    0  0.00000000000E+00  0.00000000000E+00  0.74505805969E-08  0.10566000000E+00  0.10566000000E+00 0.  1.
     999900   -1    0    0    0    0 -0.00000000000E+00 -0.00000000000E+00 -0.74505805969E-08  0.93827000000E+00  0.93827000000E+00 0.  1.
     999902    2    1    2    0    0 -0.20591471366E-01 -0.98367117986E-02  0.17577920630E-03  0.10211089463E+01  0.10208538974E+01 0.  0.
     999903    2    3    3    0    0  0.79116293203E-01  0.96844381249E-01 -0.23032475867E-01  0.12877430225E+00  0.20349544122E-01 0.  0.
         14    1    1    2    0    0  0.20591471366E-01  0.98367117986E-02 -0.17577920630E-03  0.22821053665E-01  0.00000000000E+00 0. -1.
     999901    1    3    3    0    0 -0.99707764569E-01 -0.10668109305E+00  0.23208255074E-01  0.89233464408E+00  0.88000000000E+00 0. -1.
        -11    1    4    4    0    0  0.72514039552E-01  0.85607408446E-01 -0.26496820727E-01  0.11527903948E+00  0.51100000000E-03 0.  1.
         11    1    4    4    0    0  0.66022536506E-02  0.11236972804E-01  0.34643448593E-02  0.13495262775E-01  0.51100000000E-03 0. -1.
</event>
<event>
 8    1  0.1183092E+005  0.1043930E+01  0.7957747E-01            NaN
         13   -1    0    0    0    0  0.00000000000E+00  0.00000000000E+00  0.74505805969E-08  0.10566000000E+00  0.10566000000E+00 0. -1.
     999900   -1    0    0    0    0 -0.00000000000E+00 -0.00000000000E+00 -0.74505805969E-08  0.93827000000E+00  0.93827000000E+00 0.  1.
     999902    2    1    2    0    0 -0.20536978117E-01 -0.11846846350E-01 -0.58825911740E-02  0.10195021446E+01  0.10192094499E+01 0.  0.
     999903    2    3    3    0    0 -0.84900296582E-01 -0.66884056339E-01 -0.74735739046E-01  0.13275951726E+00  0.18924095200E-01 0.  0.
         14    1    1    2    0    0  0.20536978117E-01  0.11846846350E-01  0.58825911740E-02  0.24427855361E-01  0.00000000000E+00 0.  1.
     999901    1    3    3    0    0  0.64363318465E-01  0.55037209989E-01  0.68853147872E-01  0.88674262738E+00  0.88000000000E+00 0. -1.
        -11    1    4    4    0    0 -0.75907825296E-01 -0.64821182390E-01 -0.63909865634E-01  0.11852643449E+00  0.51100000000E-03 0. -1.
         11    1    4    4    0    0 -0.89924712860E-02 -0.20628739496E-02 -0.10825873413E-01  0.14233082762E-01  0.51100000000E-03 0.  1.
</event>
<event>
 8    1  0.1183092E+005  0.1043930E+01  0.7957747E-01            NaN
         13   -1    0    0    0    0  0.00000000000E+00  0.00000000000E+00  0.74505805969E-08  0.10566000000E+00  0.10566000000E+00 0.  1.
     999900   -1    0    0    0    0 -0.00000000000E+00 -0.00000000000E+00 -0.74505805969E-08  0.93827000000E+00  0.93827000000E+00 0.  1.
     999902    2    1    2    0    0 -0.20061837607E-01  0.64501194274E-02 -0.86424169436E-02  0.10211534169E+01  0.10208993721E+01 0.  0.
     999903    2    3    3    0    0 -0.10262778856E-01  0.92620477752E-01 -0.92849940660E-01  0.13288979650E+00  0.18833719885E-01 0.  0.
         14    1    1    2    0    0  0.20061837607E-01 -0.64501194274E-02  0.86424169436E-02  0.22776583138E-01  0.00000000000E+00 0.  1.
     999901    1    3    3    0    0 -0.97990587515E-02 -0.86170358324E-01  0.84207523717E-01  0.88826362036E+00  0.88000000000E+00 0.  1.
        -11    1    4    4    0    0 -0.12221513543E-01  0.36857818020E-01 -0.44443806590E-01  0.59020142390E-01  0.51100000000E-03 0.  1.
         11    1    4    4    0    0  0.19587346872E-02  0.55762659732E-01 -0.48406134070E-01  0.73869654112E-01  0.51100000000E-03 0. -1.
</event>
<event>
 8    1  0.1183092E+005  0.1043930E+01  0.7957747E-01            NaN
         13   -1    0    0    0    0  0.00000000000E+00  0.00000000000E+00  0.74505805969E-08  0.10566000000E+00  0.10566000000E+00 0.  1.
     999900   -1    0    0    0    0 -0.00000000000E+00 -0.00000000000E+00 -0.74505805969E-08  0.93827000000E+00  0.93827000000E+00 0. -1.
     999902    2    1    2    0    0  0.59956843645E-02 -0.19720330130E-01  0.84098574361E-02  0.10216687028E+01  0.10214261466E+01 0.  0.
     999903    2    3    3    0    0 -0.90940427537E-01  0.89925591261E-01  0.43107371410E-02  0.12957249685E+00  0.20339030463E-01 0.  0.
         14    1    1    2    0    0 -0.59956843645E-02  0.19720330130E-01 -0.84098574361E-02  0.22261297211E-01  0.00000000000E+00 0. -1.
     999901    1    3    3    0    0  0.96936111902E-01 -0.10964592139E+00  0.40991202951E-02  0.89209620594E+00  0.88000000000E+00 0. -1.
        -11    1    4    4    0    0 -0.79768086274E-01  0.82566778907E-01 -0.18821133944E-02  0.11482170543E+00  0.51100000000E-03 0.  1.
         11    1    4    4    0    0 -0.11172341264E-01  0.73588123543E-02  0.61928505354E-02  0.14750791414E-01  0.51100000000E-03 0. -1.
</event>
<event>
 8    1  0.1183092E+005  0.1043930E+01  0.7957747E-01            NaN
         13   -1    0    0    0    0  0.00000000000E+00  0.00000000000E+00  0.74505805969E-08  0.10566000000E+00  0.10566000000E+00 0.  1.
     999900   -1    0    0    0    0 -0.00000000000E+00 -0.00000000000E+00 -0.74505805969E-08  0.93827000000E+00  0.93827000000E+00 0. -1.
     999902    2    1    2    0    0 -0.17975831064E-01  0.72248404021E-02  0.13181858080E-01  0.10204973262E+01  0.10202282600E+01 0.  0.
     999903    2    3    3    0    0 -0.87366007046E-01  0.98182262645E-01  0.65004710094E-02  0.13306682740E+00  0.19797690398E-01 0.  0.
         14    1    1    2    0    0  0.17975831064E-01 -0.72248404021E-02 -0.13181858080E-01  0.23432673849E-01  0.00000000000E+00 0. -1.
     999901    1    3    3    0    0  0.69390175982E-01 -0.90957422243E-01  0.66813870708E-02  0.88743049875E+00  0.88000000000E+00 0.  1.
        -11    1    4    4    0    0 -0.69468084943E-01  0.86002968559E-01  0.10472545202E-01  0.11105071252E+00  0.51100000000E-03 0.  1.
         11    1    4    4    0    0 -0.17897922103E-01  0.12179294087E-01 -0.39720741929E-02  0.22016114881E-01  0.51100000000E-03 0. -1.
</event>
<event>
 8    1  0.1183092E+005  0.1043930E+01  0.7957747E-01            NaN
         13   -1    0    0    0    0  0.00000000000E+00  0.00000000000E+00  0.74505805969E-08  0.10566000000E+00  0.10566000000E+00 0. -1.
     999900   -1    0    0    0    0 -0.00000000000E+00 -0.00000000000E+00 -0.74505805969E-08  0.93827000000E+00  0.93827000000E+00 0.  1.
     999902    2    1    2    0    0 -0.10521660652E-01 -0.16939325381E-01  0.14450554108E-01  0.10193034980E+01  0.10190059649E+01 0.  0.
     999903    2    3    3    0    0  0.66741680566E-01  0.27488039737E-01 -0.10271048575E+00  0.12707587909E+00  0.19717781567E-01 0.  0.
         14    1    1    2    0    0  0.10521660652E-01  0.16939325381E-01 -0.14450554108E-01  0.24626502010E-01  0.00000000000E+00 0.  1.
     999901    1    3    3    0    0 -0.77263341218E-01 -0.44427365118E-01  0.11716103986E+00  0.89222761890E+00  0.88000000000E+00 0.  1.
        -11    1    4    4    0    0  0.38576414303E-01  0.15178429794E-01 -0.74962499449E-01  0.85663072068E-01  0.51100000000E-03 0.  1.
         11    1    4    4    0    0  0.28165266263E-01  0.12309609943E-01 -0.27747986301E-01  0.41412807021E-01  0.51100000000E-03 0. -1.
</event>
<event>
 8    1  0.1183092E+005  0.1043930E+01  0.7957747E-01            NaN
         13   -1    0    0    0    0  0.00000000000E+00  0.00000000000E+00  0.74505805969E-08  0.10566000000E+00  0.10566000000E+00 0.  1.
     999900   -1    0    0    0    0 -0.00000000000E+00 -0.00000000000E+00 -0.74505805969E-08  0.93827000000E+00  0.93827000000E+00 0.  1.
     999902    2    1    2    0    0  0.27041797210E-01  0.28607012242E-02  0.90784448953E-04  0.10167371581E+01  0.10163734540E+01 0.  0.
     999903    2    3    3    0    0 -0.11723515914E+00  0.21275894957E-01 -0.30243961513E-01  0.12428258991E+00  0.18295319131E-01 0.  0.
         14    1    1    2    0    0 -0.27041797210E-01 -0.28607012242E-02 -0.90784448953E-04  0.27192841883E-01  0.00000000000E+00 0.  1.
     999901    1    3    3    0    0  0.14427695635E+00 -0.18415193732E-01  0.30334745962E-01  0.89245456820E+00  0.88000000000E+00 0. -1.
        -11    1    4    4    0    0 -0.75051586387E-01  0.22106958957E-01 -0.22175306652E-01  0.81323204558E-01  0.51100000000E-03 0. -1.
         11    1    4    4    0    0 -0.42183572756E-01 -0.83106399989E-03 -0.80686548609E-02  0.42959385355E-01  0.51100000000E-03 0.  1.
</event>
<event>
 8    1  0.1183092E+005  0.1043930E+01  0.7957747E-01            NaN
         13   -1    0    0    0    0  0.00000000000E+00  0.00000000000E+00  0.74505805969E-08  0.10566000000E+00  0.10566000000E+00 0. -1.
     999900   -1    0    0    0    0 -0.00000000000E+00 -0.00000000000E+00 -0.74505805969E-08  0.93827000000E+00  0.93827000000E+00 0.  1.
     999902    2    1    2    0    0  0.60658538619E-02  0.15625391025E-01 -0.24216634631E-01  0.10144784666E+01  0.10140508697E+01 0.  0.
     999903    2    3    3    0    0 -0.75802617367E-01  0.99098353910E-01 -0.36018968704E-02  0.12650597291E+00  0.20597741928E-01 0.  0.
         14    1    1    2    0    0 -0.60658538619E-02 -0.15625391025E-01  0.24216634631E-01  0.29451533417E-01  0.00000000000E+00 0. -1.
     999901    1    3    3    0    0  0.81868471229E-01 -0.83472962886E-01 -0.20614737760E-01  0.88797249368E+00  0.88000000000E+00 0. -1.
        -11    1    4    4    0    0 -0.47656450199E-02  0.50467900690E-02  0.46207671840E-02  0.83542846985E-02  0.51100000000E-03 0.  1.
         11    1    4    4    0    0 -0.71036972347E-01  0.94051563841E-01 -0.82226640544E-02  0.11815168821E+00  0.51100000000E-03 0. -1.
</event>
<event>
 8    1  0.1183092E+005  0.1043930E+01  0.7957747E-01            NaN
         13   -1    0    0    0    0  0.00000000000E+00  0.00000000000E+00  0.74505805969E-08  0.10566000000E+00  0.10566000000E+00 0.  1.
     999900   -1    0    0    0    0 -0.00000000000E+00 -0.00000000000E+00 -0.74505805969E-08  0.93827000000E+00  0.93827000000E+00 0. -1.
     999902    2    1    2    0    0 -0.15437832132E-01 -0.37294103542E-02  0.18889437997E-01  0.10192511420E+01  0.10189523269E+01 0.  0.
     999903    2    3    3    0    0 -0.69573296361E-01  0.19153226508E-01 -0.10467637930E+00  0.12867673484E+00  0.19830987168E-01 0.  0.
         14    1    1    2    0    0  0.15437832132E-01  0.37294103542E-02 -0.18889437997E-01  0.24678857963E-01  0.00000000000E+00 0. -1.
     999901    1    3    3    0    0  0.54135464228E-01 -0.22882636863E-01  0.12356581730E+00  0.89057440720E+00  0.88000000000E+00 0.  1.
        -11    1    4    4    0    0 -0.26345007712E-01  0.13028870044E-03 -0.49247048770E-01  0.55853463098E-01  0.51100000000E-03 0.  1.
         11    1    4    4    0    0 -0.43228288649E-01  0.19022937808E-01 -0.55429330531E-01  0.72823271737E-01  0.51100000000E-03 0. -1.
</event>
<event>
 8    1  0.1183092E+005  0.1043930E+01  0.7957747E-01            NaN
         13   -1    0    0    0    0  0.00000000000E+00  0.00000000000E+00  0.74505805969E-08  0.10566000000E+00  0.10566000000E+00 0.  1.
     999900   -1    0    0    0    0 -0.00000000000E+00 -0.00000000000E+00 -0.74505805969E-08  0.93827000000E+00  0.93827000000E+00 0.  1.
     999902    2    1    2    0    0  0.89655516760E-02 -0.25620449808E-01 -0.87145707877E-02  0.10154215397E+01  0.10150212663E+01 0.  0.
     999903    2    3    3    0    0 -0.52980233688E-01 -0.97638958149E-01  0.59690884125E-01  0.12766974322E+00  0.19907043402E-01 0.  0.
         14    1    1    2    0    0 -0.89655516760E-02  0.25620449808E-01  0.87145707877E-02  0.28508460310E-01  0.00000000000E+00 0.  1.
     999901    1    3    3    0    0  0.61945785364E-01  0.72018508341E-01 -0.68405454913E-01  0.88775179647E+00  0.88000000000E+00 0.  1.
        -11    1    4    4    0    0 -0.20949694082E-01 -0.55955370271E-01  0.25543203949E-01  0.64981609193E-01  0.51100000000E-03 0. -1.
         11    1    4    4    0    0 -0.32030539606E-01 -0.41683587878E-01  0.34147680176E-01  0.62688134031E-01  0.51100000000E-03 0.  1.
</event>
<event>
 8    1  0.1183092E+005  0.1043930E+01  0.7957747E-01            NaN
         13   -1    0    0    0    0  0.00000000000E+00  0.00000000000E+00  0.74505805969E-08  0.10566000000E+00  0.10566000000E+00 0.  1.
     999900   -1    0    0    0    0 -0.00000000000E+00 -0.00000000000E+00 -0.74505805969E-08  0.93827000000E+00  0.93827000000E+00 0.  1.
     999902    2    1    2    0    0 -0.18574767744E-01 -0.22509738316E-03  0.13903758580E-01  0.10207268285E+01  0.10204630671E+01 0.  0.
     999903    2    3    3    0    0  0.11940587266E+00  0.39014770137E-01  0.22306287599E-01  0.12907161103E+00  0.19544707561E-01 0.  0.
         14    1    1    2    0    0  0.18574767744E-01  0.22509738316E-03 -0.13903758580E-01  0.23203171512E-01  0.00000000000E+00 0.  1.
     999901    1    3    3    0    0 -0.13798064040E+00 -0.39239867520E-01 -0.84025290190E-02  0.89165521746E+00  0.88000000000E+00 0. -1.
        -11    1    4    4    0    0  0.81672220425E-01  0.25318108568E-01  0.59275756407E-02  0.85713216511E-01  0.51100000000E-03 0. -1.
         11    1    4    4    0    0  0.37733652230E-01  0.13696661569E-01  0.16378711958E-01  0.43358394518E-01  0.51100000000E-03 0.  1.
</event>
<event>
 8    1  0.1183092E+005  0.1043930E+01  0.7957747E-01            NaN
         13   -1    0    0    0    0  0.00000000000E+00  0.00000000000E+00  0.74505805969E-08  0.10566000000E+00  0.10566000000E+00 0.  1.
     999900   -1    0    0    0    0 -0.00000000000E+00 -0.00000000000E+00 -0.74505805969E-08  0.93827000000E+00  0.93827000000E+00 0. -1.
     999902    2    1    2    0    0 -0.10991997987E-01 -0.17412691713E-01 -0.12399140552E-01  0.10198932669E+01  0.10196099800E+01 0.  0.
     999903    2    3    3    0    0  0.50252594212E-01  0.64928776384E-01  0.95174514888E-01  0.12742303837E+00  0.20913469234E-01 0.  0.
         14    1    1    2    0    0  0.10991997987E-01  0.17412691713E-01  0.12399140552E-01  0.24036733115E-01  0.00000000000E+00 0.  1.
     999901    1    3    3    0    0 -0.61244592199E-01 -0.82341468097E-01 -0.10757365544E+00  0.89247022852E+00  0.88000000000E+00 0. -1.
        -11    1    4    4    0    0  0.34979274406E-01  0.49408614232E-01  0.82141961493E-01  0.10204079457E+00  0.51100000000E-03 0.  1.
         11    1    4    4    0    0  0.15273319806E-01  0.15520162152E-01  0.13032553395E-01  0.25382243796E-01  0.51100000000E-03 0. -1.
</event>
<event>
 8    1  0.1183092E+005  0.1043930E+01  0.7957747E-01            NaN
         13   -1    0    0    0    0  0.00000000000E+00  0.00000000000E+00  0.74505805969E-08  0.10566000000E+00  0.10566000000E+00 0.  1.
     999900   -1    0    0    0    0 -0.00000000000E+00 -0.00000000000E+00 -0.74505805969E-08  0.93827000000E+00  0.93827000000E+00 0. -1.
     999902    2    1    2    0    0  0.84789745079E-02 -0.21149573076E-01 -0.51454757006E-02  0.10205703474E+01  0.10203029749E+01 0.  0.
     999903    2    3    3    0    0 -0.98250204524E-01 -0.40712417902E-01  0.72822927787E-01  0.13048445575E+00  0.20307897964E-01 0.  0.
         14    1    1    2    0    0 -0.84789745079E-02  0.21149573076E-01  0.51454757006E-02  0.23359652612E-01  0.00000000000E+00 0.  1.
     999901    1    3    3    0    0  0.10672917903E+00  0.19562844827E-01 -0.77968403487E-01  0.89008589164E+00  0.88000000000E+00 0. -1.
        -11    1    4    4    0    0 -0.23038156413E-01 -0.35216536965E-02  0.23762553502E-01  0.33287817075E-01  0.51100000000E-03 0.  1.
         11    1    4    4    0    0 -0.75212048111E-01 -0.37190764206E-01  0.49060374285E-01  0.97196638673E-01  0.51100000000E-03 0. -1.
</event>
<event>
 7    1  0.1183092E+005  0.1043930E+01  0.7957747E-01            NaN
         13   -1    0    0    0    0  0.00000000000E+00  0.00000000000E+00  0.74505805969E-08  0.10566000000E+00  0.10566000000E+00 0. -1.
     999900   -1    0    0    0    0 -0.00000000000E+00 -0.00000000000E+00 -0.74505805969E-08  0.93827000000E+00  0.93827000000E+00 0. -1.
     999903    2    1    2    0    0 -0.33155658966E-01  0.92805669537E-01  0.22320514022E-01  0.10295022562E+00  0.19706688959E-01 0.  0.
         14    1    1    2    0    0  0.53630402851E-01 -0.11144858940E-01  0.12847269320E-01  0.56262601430E-01  0.00000000000E+00 0.  1.
     999901    1    1    2    0    0 -0.20474743884E-01 -0.81660810597E-01 -0.35167783342E-01  0.88471717295E+00  0.88000000000E+00 0. -1.
        -11    1    3    3    0    0 -0.21171357105E-01  0.78412092094E-01  0.22247912462E-01  0.84213498195E-01  0.51100000000E-03 0. -1.
         11    1    3    3    0    0 -0.11984301861E-01  0.14393577442E-01  0.72601559723E-04  0.18736727427E-01  0.51100000000E-03 0.  1.
</event>
<event>
 8    1  0.1183092E+005  0.1043930E+01  0.7957747E-01            NaN
         13   -1    0    0    0    0  0.00000000000E+00  0.00000000000E+00  0.74505805969E-08  0.10566000000E+00  0.10566000000E+00 0. -1.
     999900   -1    0    0    0    0 -0.00000000000E+00 -0.00000000000E+00 -0.74505805969E-08  0.93827000000E+00  0.93827000000E+00 0.  1.
     999902    2    1    2    0    0 -0.11393956014E-01  0.49353930411E-02 -0.19386576142E-01  0.10209078439E+01  0.10206482283E+01 0.  0.
     999903    2    3    3    0    0 -0.33878342179E-01 -0.32915900103E-01 -0.12336197317E+00  0.13369357934E+00  0.20605780307E-01 0.  0.
         14    1    1    2    0    0  0.11393956014E-01 -0.49353930411E-02  0.19386576142E-01  0.23022156124E-01  0.00000000000E+00 0. -1.
     999901    1    3    3    0    0  0.22484386165E-01  0.37851293144E-01  0.10397539703E+00  0.88721426454E+00  0.88000000000E+00 0. -1.
        -11    1    4    4    0    0 -0.81822281511E-02 -0.21712536733E-01 -0.48898283194E-01  0.54126576921E-01  0.51100000000E-03 0.  1.
         11    1    4    4    0    0 -0.25696114028E-01 -0.11203363370E-01 -0.74463689980E-01  0.79567002415E-01  0.51100000000E-03 0. -1.
</event>
<event>
 8    1  0.1183092E+005  0.1043930E+01  0.7957747E-01            NaN
         13   -1    0    0    0    0  0.00000000000E+00  0.00000000000E+00  0.74505805969E-08  0.10566000000E+00  0.10566000000E+00 0. -1.
     999900   -1    0    0    0    0 -0.00000000000E+00 -0.00000000000E+00 -0.74505805969E-08  0.93827000000E+00  0.93827000000E+00 0. -1.
     999902    2    1    2    0    0  0.16119507874E-03 -0.24853921719E-01 -0.54581697905E-02  0.10184832905E+01  0.10181653490E+01 0.  0.
     999903    2    3    3    0    0 -0.58355440095E-01  0.96550531370E-01  0.53090957917E-01  0.12629987985E+00  0.20140688698E-01 0.  0.
         14    1    1    2    0    0 -0.16119507874E-03  0.24853921719E-01  0.54581697905E-02  0.25446709534E-01  0.00000000000E+00 0. -1.
     999901    1    3    3    0    0  0.58516635173E-01 -0.12140445309E+00 -0.58549127707E-01  0.89218341062E+00  0.88000000000E+00 0.  1.
        -11    1    4    4    0    0 -0.57478603638E-01  0.89504638651E-01  0.44934794023E-01  0.11547409688E+00  0.51100000000E-03 0.  1.
         11    1    4    4    0    0 -0.87683645669E-03  0.70458927192E-02  0.81561638939E-02  0.10825782967E-01  0.51100000000E-03 0. -1.
</event>
<event>
 8    1  0.1183092E+005  0.1043930E+01  0.7957747E-01            NaN
         13   -1    0    0    0    0  0.00000000000E+00  0.00000000000E+00  0.74505805969E-08  0.10566000000E+00  0.10566000000E+00 0.  1.
     999900   -1    0    0    0    0 -0.00000000000E+00 -0.00000000000E+00 -0.74505805969E-08  0.93827000000E+00  0.93827000000E+00 0. -1.
     999902    2    1    2    0    0  0.76723951412E-02  0.22585194406E-02  0.22581653568E-01  0.10199738393E+01  0.10196924709E+01 0.  0.
     999903    2    3    3    0    0 -0.35229119293E-01  0.12357706028E+00 -0.36490059619E-02  0.13022849608E+00  0.20827032302E-01 0.  0.
         14    1    1    2    0    0 -0.76723951412E-02 -0.22585194406E-02 -0.22581653568E-01  0.23956160693E-01  0.00000000000E+00 0. -1.
     999901    1    3    3    0    0  0.42901514434E-01 -0.12131854084E+00  0.26230659530E-01  0.88974534323E+00  0.88000000000E+00 0. -1.
        -11    1    4    4    0    0 -0.77641901889E-02  0.64794595495E-01 -0.36314576237E-03  0.65261131239E-01  0.51100000000E-03 0.  1.
         11    1    4    4    0    0 -0.27464929104E-01  0.58782464781E-01 -0.32858601996E-02  0.64967364844E-01  0.51100000000E-03 0. -1.
</event>
<event>
 7    1  0.1183092E+005  0.1043930E+01  0.7957747E-01            NaN
         13   -1    0    0    0    0  0.00000000000E+00  0.00000000000E+00  0.74505805969E-08  0.10566000000E+00  0.10566000000E+00 0.  1.
     999900   -1    0    0    0    0 -0.00000000000E+00 -0.00000000000E+00 -0.74505805969E-08  0.93827000000E+00  0.93827000000E+00 0.  1.
     999903    2    1    2    0    0  0.99815957754E-01  0.14103782982E-01  0.49946318260E-01  0.11486428393E+00  0.23173840822E-01 0.  0.
         14    1    1    2    0    0 -0.13630411635E-01  0.14120426275E-01  0.35215846100E-01  0.40315386344E-01  0.00000000000E+00 0.  1.
     999901    1    1    2    0    0 -0.86185546119E-01 -0.28224209257E-01 -0.85162164360E-01  0.88875032973E+00  0.88000000000E+00 0.  1.
        -11    1    3    3    0    0  0.16727290282E-01  0.78462794462E-03 -0.48169223619E-03  0.16760400640E-01  0.51100000000E-03 0. -1.
         11    1    3    3    0    0  0.83088667472E-01  0.13319155037E-01  0.50428010496E-01  0.98103883291E-01  0.51100000000E-03 0.  1.
</event>
<event>
 8    1  0.1183092E+005  0.1043930E+01  0.7957747E-01            NaN
         13   -1    0    0    0    0  0.00000000000E+00  0.00000000000E+00  0.74505805969E-08  0.10566000000E+00  0.10566000000E+00 0. -1.
     999900   -1    0    0    0    0 -0.00000000000E+00 -0.00000000000E+00 -0.74505805969E-08  0.93827000000E+00  0.93827000000E+00 0.  1.
     999902    2    1    2    0    0 -0.54934574552E-02 -0.22537208031E-01  0.42280770561E-02  0.10203507622E+01  0.10200782800E+01 0.  0.
     999903    2    3    3    0    0 -0.48226241363E-01  0.75778030139E-01  0.91217337974E-01  0.12958754539E+00  0.20105943501E-01 0.  0.
         14    1    1    2    0    0  0.54934574552E-02  0.22537208031E-01 -0.42280770561E-02  0.23579237822E-01  0.00000000000E+00 0. -1.
     999901    1    3    3    0    0  0.42732783908E-01 -0.98315238170E-01 -0.86989260918E-01  0.89076321679E+00  0.88000000000E+00 0.  1.
        -11    1    4    4    0    0 -0.16061968509E-01  0.18266572623E-01  0.13981985420E-01  0.28060854318E-01  0.51100000000E-03 0.  1.
         11    1    4    4    0    0 -0.32164272854E-01  0.57511457516E-01  0.77235352554E-01  0.10152669107E+00  0.51100000000E-03 0. -1.
</event>
<event>
 8    1  0.1183092E+005  0.1043930E+01  0.7957747E-01            NaN
         13   -1    0    0    0    0  0.00000000000E+00  0.00000000000E+00  0.74505805969E-08  0.10566000000E+00  0.10566000000E+00 0.  1.
     999900   -1    0    0    0    0 -0.00000000000E+00 -0.00000000000E+00 -0.74505805969E-08  0.93827000000E+00  0.93827000000E+00 0. -1.
     999902    2    1    2    0    0 -0.73943480929E-02  0.81365873546E-02 -0.20605227796E-01  0.10205750037E+01  0.10203077391E+01 0.  0.
     999903    2    3    3    0    0 -0.86823667339E-01  0.31816456392E-01  0.89051965239E-01  0.12990421555E+00  0.19854888522E-01 0.  0.
         14    1    1    2    0    0  0.73943480929E-02 -0.81365873546E-02  0.20605227796E-01  0.23354996254E-01  0.00000000000E+00 0.  1.
     999901    1    3    3    0    0  0.79429319246E-01 -0.23679869038E-01 -0.10965719304E+00  0.89067078819E+00  0.88000000000E+00 0. -1.
        -11    1    4    4    0    0 -0.28707741964E-01  0.15946603130E-01  0.42811665423E-01  0.53958580572E-01  0.51100000000E-03 0. -1.
         11    1    4    4    0    0 -0.58115925375E-01  0.15869853262E-01  0.46240299816E-01  0.75945634982E-01  0.51100000000E-03 0.  1.
</event>
<event>
 8    1  0.1183092E+005  0.1043930E+01  0.7957747E-01            NaN
         13   -1    0    0    0    0  0.00000000000E+00  0.00000000000E+00  0.74505805969E-08  0.10566000000E+00  0.10566000000E+00 0. -1.
     999900   -1    0    0    0    0 -0.00000000000E+00 -0.00000000000E+00 -0.74505805969E-08  0.93827000000E+00  0.93827000000E+00 0. -1.
     999902    2    1    2    0    0 -0.13066334434E-01 -0.16111070639E-01 -0.11246050242E-01  0.10203340398E+01  0.10200611665E+01 0.  0.
     999903    2    3    3    0    0  0.14535331429E-01  0.12126490925E+00 -0.36184014710E-01  0.12889928957E+00  0.19730429727E-01 0.  0.
         14    1    1    2    0    0  0.13066334434E-01  0.16111070639E-01  0.11246050242E-01  0.23595960220E-01  0.00000000000E+00 0. -1.
     999901    1    3    3    0    0 -0.27601665863E-01 -0.13737597988E+00  0.24937964469E-01  0.89143475021E+00  0.88000000000E+00 0. -1.
        -11    1    4    4    0    0  0.36922244842E-02  0.46448112457E-01 -0.41156110508E-02  0.46778831193E-01  0.51100000000E-03 0. -1.
         11    1    4    4    0    0  0.10843106945E-01  0.74816796789E-01 -0.32068403660E-01  0.82120458378E-01  0.51100000000E-03 0.  1.
</event>
<event>
 8    1  0.1183092E+005  0.1043930E+01  0.7957747E-01            NaN
         13   -1    0    0    0    0  0.00000000000E+00  0.00000000000E+00  0.74505805969E-08  0.10566000000E+00  0.10566000000E+00 0. -1.
     999900   -1    0    0    0    0 -0.00000000000E+00 -0.00000000000E+00 -0.74505805969E-08  0.93827000000E+00  0.93827000000E+00 0. -1.
     999902    2    1    2    0    0  0.12865849237E-01 -0.23563074762E-02 -0.19884694542E-01  0.10201290895E+01  0.10198513990E+01 0.  0.
     999903    2    3    3    0    0  0.12210627737E+00 -0.19986210917E-01 -0.43258239233E-01  0.13289146228E+00  0.21896892162E-01 0.  0.
         14    1    1    2    0    0 -0.12865849237E-01  0.23563074762E-02  0.19884694542E-01  0.23800910457E-01  0.00000000000E+00 0. -1.
     999901    1    3    3    0    0 -0.10924042813E+00  0.17629903440E-01  0.23373544690E-01  0.88723762726E+00  0.88000000000E+00 0.  1.
        -11    1    4    4    0    0  0.92947520875E-01 -0.10315411399E-01 -0.40912560707E-01  0.10207716735E+00  0.51100000000E-03 0. -1.
         11    1    4    4    0    0  0.29158756495E-01 -0.96707995175E-02 -0.23456785259E-02  0.30814294936E-01  0.51100000000E-03 0.  1.
</event>
<event>
 8    1  0.1183092E+005  0.1043930E+01  0.7957747E-01            NaN
         13   -1    0    0    0    0  0.00000000000E+00  0.00000000000E+00  0.74505805969E-08  0.10566000000E+00  0.10566000000E+00 0.  1.
     999900   -1    0    0    0    0 -0.00000000000E+00 -0.00000000000E+00 -0.74505805969E-08  0.93827000000E+00  0.93827000000E+00 0. -1.
     999902    2    1    2    0    0 -0.11441833311E-01 -0.89785398407E-02  0.18751791183E-01  0.10201990203E+01  0.10199229782E+01 0.  0.
     999903    2    3    3    0    0  0.48562474378E-02  0.65119525186E-01 -0.10787044321E+00  0.12790459523E+00  0.21434021179E-01 0.  0.
         14    1    1    2    0    0  0.11441833311E-01  0.89785398407E-02 -0.18751791183E-01  0.23730979747E-01  0.00000000000E+00 0. -1.
     999901    1    3    3    0    0 -0.16298080748E-01 -0.74098065027E-01  0.12662223439E+00  0.89229442502E+00  0.88000000000E+00 0.  1.
        -11    1    4    4    0    0  0.81710719890E-02  0.16052560735E-01 -0.41972287957E-01  0.45676965759E-01  0.51100000000E-03 0. -1.
         11    1    4    4    0    0 -0.33148245512E-02  0.49066964452E-01 -0.65898155254E-01  0.82227629475E-01  0.51100000000E-03 0.  1.
</event>
<event>
 8    1  0.1183092E+005  0.1043930E+01  0.7957747E-01            NaN
         13   -1    0    0    0    0  0.00000000000E+00  0.00000000000E+00  0.74505805969E-08  0.10566000000E+00  0.10566000000E+00 0.  1.
     999900   -1    0    0    0    0 -0.00000000000E+00 -0.00000000000E+00 -0.74505805969E-08  0.93827000000E+00  0.93827000000E+00 0. -1.
     999902    2    1    2    0    0 -0.60025564028E-02  0.20827702199E-01  0.90698356254E-02  0.10204334943E+01  0.10201629431E+01 0.  0.
     999903    2    3    3    0    0 -0.65763907125E-01  0.44356084763E-01 -0.10260018617E+00  0.13105438638E+00  0.18870618685E-01 0.  0.
         14    1    1    2    0    0  0.60025564028E-02 -0.20827702199E-01 -0.90698356254E-02  0.23496505709E-01  0.00000000000E+00 0.  1.
     999901    1    3    3    0    0  0.59761350722E-01 -0.23528382564E-01  0.11167002180E+00  0.88937910791E+00  0.88000000000E+00 0.  1.
        -11    1    4    4    0    0 -0.41097161674E-01  0.35422997173E-01 -0.58908175559E-01  0.80088698922E-01  0.51100000000E-03 0. -1.
         11    1    4    4    0    0 -0.24666745451E-01  0.89330875905E-02 -0.43692010616E-01  0.50965687454E-01  0.51100000000E-03 0.  1.
</event>
<event>
 8    1  0.1183092E+005  0.1043930E+01  0.7957747E-01            NaN
         13   -1    0    0    0    0  0.00000000000E+00  0.00000000000E+00  0.74505805969E-08  0.10566000000E+00  0.10566000000E+00 0. -1.
     999900   -1    0    0    0    0 -0.00000000000E+00 -0.00000000000E+00 -0.74505805969E-08  0.93827000000E+00  0.93827000000E+00 0.  1.
     999902    2    1    2    0    0  0.74892011807E-02  0.12301535153E-01  0.20369397322E-01  0.10189834923E+01  0.10186780793E+01 0.  0.
     999903    2    3    3    0    0  0.97572128276E-01 -0.71571371624E-01 -0.38404456769E-01  0.12847579202E+00  0.19706480766E-01 0.  0.
         14    1    1    2    0    0 -0.74892011807E-02 -0.12301535153E-01 -0.20369397322E-01  0.24946507745E-01  0.00000000000E+00 0.  1.
     999901    1    3    3    0    0 -0.90082927095E-01  0.83872906776E-01  0.58773854090E-01  0.89050770023E+00  0.88000000000E+00 0. -1.
        -11    1    4    4    0    0  0.17945916414E-01 -0.20255735514E-01 -0.25489108661E-02  0.27186555588E-01  0.51100000000E-03 0.  1.
         11    1    4    4    0    0  0.79626211862E-01 -0.51315636110E-01 -0.35855545902E-01  0.10128923644E+00  0.51100000000E-03 0. -1.
</event>
<event>
 8    1  0.1183092E+005  0.1043930E+01  0.7957747E-01            NaN
         13   -1    0    0    0    0  0.00000000000E+00  0.00000000000E+00  0.74505805969E-08  0.10566000000E+00  0.10566000000E+00 0.  1.
     999900   -1    0    0    0    0 -0.00000000000E+00 -0.00000000000E+00 -0.74505805969E-08  0.93827000000E+00  0.93827000000E+00 0. -1.
     999902    2    1    2    0    0  0.16069977827E-01  0.12288005689E-01  0.11941907879E-01  0.10204385455E+01  0.10201681120E+01 0.  0.
     999903    2    3    3    0    0 -0.96903870567E-01  0.83391829277E-01  0.15756204030E-01  0.13036360876E+00  0.20046326379E-01 0.  0.
         14    1    1    2    0    0 -0.16069977827E-01 -0.12288005689E-01 -0.11941907879E-01  0.23491454509E-01  0.00000000000E+00 0. -1.
     999901    1    3    3    0    0  0.11297384839E+00 -0.71103823589E-01 -0.38142961513E-02  0.89007493674E+00  0.88000000000E+00 0. -1.
        -11    1    4    4    0    0 -0.32808355744E-01  0.16393312291E-01  0.38660439154E-02  0.36882737304E-01  0.51100000000E-03 0.  1.
         11    1    4    4    0    0 -0.64095514823E-01  0.66998516986E-01  0.11890160115E-01  0.93480871451E-01  0.51100000000E-03 0. -1.
</event>
<event>
 8    1  0.1183092E+005  0.1043930E+01  0.7957747E-01            NaN
         13   -1    0    0    0    0  0.00000000000E+00  0.00000000000E+00  0.74505805969E-08  0.10566000000E+00  0.10566000000E+00 0. -1.
     999900   -1    0    0    0    0 -0.00000000000E+00 -0.00000000000E+00 -0.74505805969E-08  0.93827000000E+00  0.93827000000E+00 0.  1.
     999902    2    1    2    0    0  0.73279959598E-02  0.10379519685E-01  0.20046679084E-01  0.10201959886E+01  0.10199198752E+01 0.  0.
     999903    2    3    3    0    0 -0.71154669808E-01 -0.44884791326E-01  0.98921132750E-01  0.13146945457E+00  0.20523046840E-01 0.  0.
         14    1    1    2    0    0 -0.73279959598E-02 -0.10379519685E-01 -0.20046679084E-01  0.23734011375E-01  0.00000000000E+00 0.  1.
     999901    1    3    3    0    0  0.78482665767E-01  0.55264311011E-01 -0.78874453666E-01  0.88872653406E+00  0.88000000000E+00 0.  1.
        -11    1    4    4    0    0 -0.14703111537E-01 -0.77621496007E-03  0.20576979533E-01  0.25307255999E-01  0.51100000000E-03 0. -1.
         11    1    4    4    0    0 -0.56451558271E-01 -0.44108576366E-01  0.78344153217E-01  0.10616219857E+00  0.51100000000E-03 0.  1.
</event>
<event>
 8    1  0.1183092E+005  0.1043930E+01  0.7957747E-01            NaN
         13   -1    0    0    0    0  0.00000000000E+00  0.00000000000E+00  0.74505805969E-08  0.10566000000E+00  0.10566000000E+00 0. -1.
     999900   -1    0    0    0    0 -0.00000000000E+00 -0.00000000000E+00 -0.74505805969E-08  0.93827000000E+00  0.93827000000E+00 0.  1.
     999902    2    1    2    0    0 -0.10787987354E-01  0.13527025984E-01  0.15857714069E-01  0.10204602706E+01  0.10201903429E+01 0.  0.
     999903    2    3    3    0    0  0.10169664829E+00 -0.73575396583E-01 -0.18259431021E-01  0.12838202017E+00  0.19823950841E-01 0.  0.
         14    1    1    2    0    0  0.10787987354E-01 -0.13527025984E-01 -0.15857714069E-01  0.23469729411E-01  0.00000000000E+00 0.  1.
     999901    1    3    3    0    0 -0.11248463565E+00  0.87102422567E-01  0.34117145090E-01  0.89207825041E+00  0.88000000000E+00 0. -1.
        -11    1    4    4    0    0  0.48047883240E-01 -0.23490047610E-01 -0.41836174676E-02  0.53648347567E-01  0.51100000000E-03 0. -1.
         11    1    4    4    0    0  0.53648765051E-01 -0.50085348973E-01 -0.14075813553E-01  0.74733672607E-01  0.51100000000E-03 0.  1.
</event>
<event>
 8    1  0.1183092E+005  0.1043930E+01  0.7957747E-01            NaN
         13   -1    0    0    0    0  0.00000000000E+00  0.00000000000E+00  0.74505805969E-08  0.10566000000E+00  0.10566000000E+00 0.  1.
     999900   -1    0    0    0    0 -0.00000000000E+00 -0.00000000000E+00 -0.74505805969E-08  0.93827000000E+00  0.93827000000E+00 0. -1.
     999902    2    1    2    0    0 -0.57454153922E-02  0.22898269905E-02 -0.23122561276E-01  0.10199945463E+01  0.10197136698E+01 0.  0.
     999903    2    3    3    0    0  0.39956348512E-01  0.95592197415E-01  0.73527436147E-01  0.12862750315E+00  0.20109020518E-01 0.  0.
         14    1    1    2    0    0  0.57454153922E-02 -0.22898269905E-02  0.23122561276E-01  0.23935453738E-01  0.00000000000E+00 0.  1.
     999901    1    3    3    0    0 -0.45701763904E-01 -0.93302370425E-01 -0.96649997423E-01  0.89136704312E+00  0.88000000000E+00 0. -1.
        -11    1    4    4    0    0  0.33481291679E-01  0.73511483321E-01  0.46803186275E-01  0.93358097876E-01  0.51100000000E-03 0. -1.
         11    1    4    4    0    0  0.64750568331E-02  0.22080714095E-01  0.26724249872E-01  0.35269405270E-01  0.51100000000E-03 0.  1.
</event>
<event>
 8    1  0.1183092E+005  0.1043930E+01  0.7957747E-01            NaN
         13   -1    0    0    0    0  0.00000000000E+00  0.00000000000E+00  0.74505805969E-08  0.10566000000E+00  0.10566000000E+00 0.  1.
     999900   -1    0    0    0    0 -0.00000000000E+00 -0.00000000000E+00 -0.74505805969E-08  0.93827000000E+00  0.93827000000E+00 0. -1.
     999902    2    1    2    0    0  0.17658658500E-01 -0.10745038324E-01  0.94658814087E-02  0.10211948515E+01  0.10209417406E+01 0.  0.
     999903    2    3    3    0    0  0.38611634431E-01 -0.14530041312E-01 -0.12269967397E+00  0.13107065367E+00  0.20550568094E-01 0.  0.
         14    1    1    2    0    0 -0.17658658500E-01  0.10745038324E-01 -0.94658814087E-02  0.22735148547E-01  0.00000000000E+00 0. -1.
     999901    1    3    3    0    0 -0.20952975931E-01  0.37850029875E-02  0.13216555537E+00  0.89012419778E+00  0.88000000000E+00 0.  1.
        -11    1    4    4    0    0  0.19662126469E-01  0.30877432030E-02 -0.46036764574E-01  0.50157533720E-01  0.51100000000E-03 0.  1.
         11    1    4    4    0    0  0.18949507962E-01 -0.17617784515E-01 -0.76662909391E-01  0.80913119953E-01  0.51100000000E-03 0. -1.
</event>
<event>
 8    1  0.1183092E+005  0.1043930E+01  0.7957747E-01            NaN
         13   -1    0    0    0    0  0.00000000000E+00  0.00000000000E+00  0.74505805969E-08  0.10566000000E+00  0.10566000000E+00 0.  1.
     999900   -1    0    0    0    0 -0.00000000000E+00 -0.00000000000E+00 -0.74505805969E-08  0.93827000000E+00  0.93827000000E+00 0. -1.
     999902    2    1    2    0    0  0.14744996309E-01  0.37470476418E-02  0.19565258293E-01  0.10191458394E+01  0.10188444373E+01 0.  0.
     999903    2    3    3    0    0 -0.12462899974E+00  0.19391456128E-02  0.22546228551E-01  0.12817038217E+00  0.19574641327E-01 0.  0.
         14    1    1    2    0    0 -0.14744996309E-01 -0.37470476418E-02 -0.19565258293E-01  0.24784160552E-01  0.00000000000E+00 0. -1.
     999901    1    3    3    0    0  0.13937399605E+00  0.18079020291E-02 -0.29809702577E-02  0.89097545728E+00  0.88000000000E+00 0.  1.
        -11    1    4    4    0    0 -0.31363529795E-01 -0.66379601119E-02  0.10503165812E-01  0.33738866737E-01  0.51100000000E-03 0. -1.
         11    1    4    4    0    0 -0.93265469943E-01  0.85771057247E-02  0.12043062739E-01  0.94431515435E-01  0.51100000000E-03 0.  1.
</event>
<event>
 8    1  0.1183092E+005  0.1043930E+01  0.7957747E-01            NaN
         13   -1    0    0    0    0  0.00000000000E+00  0.00000000000E+00  0.74505805969E-08  0.10566000000E+00  0.10566000000E+00 0.  1.
     999900   -1    0    0    0    0 -0.00000000000E+00 -0.00000000000E+00 -0.74505805969E-08  0.93827000000E+00  0.93827000000E+00 0. -1.
     999902    2    1    2    0    0 -0.17408966905E-02 -0.87423877991E-02  0.22033971225E-01  0.10201611979E+01  0.10198842649E+01 0.  0.
     999903    2    3    3    0    0 -0.48127529946E-01 -0.11944010602E+00  0.21890267194E-01  0.13201384232E+00  0.19138252290E-01 0.  0.
         14    1    1    2    0    0  0.17408966905E-02  0.87423877991E-02 -0.22033971225E-01  0.23768802108E-01  0.00000000000E+00 0. -1.
     999901    1    3    3    0    0  0.46386633256E-01  0.11069771822E+00  0.14370403068E-03  0.88814735558E+00  0.88000000000E+00 0. -1.
        -11    1    4    4    0    0  0.81757315228E-03 -0.12925787639E-01  0.19718532231E-02  0.13110825225E-01  0.51100000000E-03 0. -1.
         11    1    4    4    0    0 -0.48945103098E-01 -0.10651431838E+00  0.19918413971E-01  0.11890301709E+00  0.51100000000E-03 0.  1.
</event>
<event>
 8    1  0.1183092E+005  0.1043930E+01  0.7957747E-01            NaN
         13   -1    0    0    0    0  0.00000000000E+00  0.00000000000E+00  0.74505805969E-08  0.10566000000E+00  0.10566000000E+00 0.  1.
     999900   -1    0    0    0    0 -0.00000000000E+00 -0.00000000000E+00 -0.74505805969E-08  0.93827000000E+00  0.93827000000E+00 0.  1.
     999902    2    1    2    0    0  0.21601955626E-01 -0.57684579463E-02 -0.52412718625E-02  0.10209650152E+01  0.10207067022E+01 0.  0.
     999903    2    3    3    0    0 -0.31540048403E-01  0.73732066814E-01 -0.10078773444E+00  0.13064286426E+00  0.21867744236E-01 0.  0.
         14    1    1    2    0    0 -0.21601955626E-01  0.57684579463E-02  0.52412718625E-02  0.22964984753E-01  0.00000000000E+00 0.  1.
     999901    1    3    3    0    0  0.53142004029E-01 -0.79500524760E-01  0.95546462579E-01  0.89032215099E+00  0.88000000000E+00 0. -1.
        -11    1    4    4    0    0 -0.13300487576E-01  0.48369309246E-01 -0.48790461032E-01  0.69980449094E-01  0.51100000000E-03 0. -1.
         11    1    4    4    0    0 -0.18239560826E-01  0.25362757568E-01 -0.51997273410E-01  0.60662415165E-01  0.51100000000E-03 0.  1.
</event>
<event>
 8    1  0.1183092E+005  0.1043930E+01  0.7957747E-01            NaN
         13   -1    0    0    0    0  0.00000000000E+00  0.00000000000E+00  0.74505805969E-08  0.10566000000E+00  0.10566000000E+00 0.  1.
     999900   -1    0    0    0    0 -0.00000000000E+00 -0.00000000000E+00 -0.74505805969E-08  0.93827000000E+00  0.93827000000E+00 0. -1.
     999902    2    1    2    0    0  0.83120105803E-02 -0.15967810319E-01  0.14516442454E-01  0.10208045251E+01  0.10205425473E+01 0.  0.
     999903    2    3    3    0    0 -0.10486464169E+00 -0.35944388698E-01  0.68185195423E-01  0.13171040562E+00  0.20243960053E-01 0.  0.
         14    1    1    2    0    0 -0.83120105803E-02  0.15967810319E-01 -0.14516442454E-01  0.23125474866E-01  0.00000000000E+00 0.  1.
     999901    1    3    3    0    0  0.11317665227E+00  0.19976578379E-01 -0.53668752969E-01  0.88909411951E+00  0.88000000000E+00 0. -1.
        -11    1    4    4    0    0 -0.78262531665E-01 -0.29534260342E-01  0.41089987903E-01  0.93198415348E-01  0.51100000000E-03 0. -1.
         11    1    4    4    0    0 -0.26602110027E-01 -0.64101283558E-02  0.27095207519E-01  0.38511990275E-01  0.51100000000E-03 0.  1.
</event>
<event>
 8    1  0.1183092E+005  0.1043930E+01  0.7957747E-01            NaN
         13   -1    0    0    0    0  0.00000000000E+00  0.00000000000E+00  0.74505805969E-08  0.10566000000E+00  0.10566000000E+00 0. -1.
     999900   -1    0    0    0    0 -0.00000000000E+00 -0.00000000000E+00 -0.74505805969E-08  0.93827000000E+00  0.93827000000E+00 0. -1.
     999902    2    1    2    0    0  0.48903404846E-02  0.23431411776E-01 -0.80912108443E-02  0.10186631407E+01  0.10183497336E+01 0.  0.
     999903    2    3    3    0    0 -0.63657515360E-01  0.10651164488E+00  0.36815025154E-01  0.13095952813E+00  0.19950994298E-01 0.  0.
         14    1    1    2    0    0 -0.48903404846E-02 -0.23431411776E-01  0.80912108443E-02  0.25266859338E-01  0.00000000000E+00 0. -1.
     999901    1    3    3    0    0  0.68547855845E-01 -0.83080233105E-01 -0.44906235999E-01  0.88770361253E+00  0.88000000000E+00 0.  1.
        -11    1    4    4    0    0 -0.39652712075E-01  0.48540113677E-01  0.14255926108E-01  0.64280422843E-01  0.51100000000E-03 0.  1.
         11    1    4    4    0    0 -0.24004803285E-01  0.57971531204E-01  0.22559099047E-01  0.66679105285E-01  0.51100000000E-03 0. -1.
</event>
<event>
 8    1  0.1183092E+005  0.1043930E+01  0.7957747E-01            NaN
         13   -1    0    0    0    0  0.00000000000E+00  0.00000000000E+00  0.74505805969E-08  0.10566000000E+00  0.10566000000E+00 0. -1.
     999900   -1    0    0    0    0 -0.00000000000E+00 -0.00000000000E+00 -0.74505805969E-08  0.93827000000E+00  0.93827000000E+00 0.  1.
     999902    2    1    2    0    0  0.19653621323E-01  0.10971173138E-01  0.70572131201E-02  0.10203411101E+01  0.10200684022E+01 0.  0.
     999903    2    3    3    0    0  0.14714460224E-01 -0.97113862017E-01 -0.81679028953E-01  0.12928505639E+00  0.19888300591E-01 0.  0.
         14    1    1    2    0    0 -0.19653621323E-01 -0.10971173138E-01 -0.70572131201E-02  0.23588889930E-01  0.00000000000E+00 0.  1.
     999901    1    3    3    0    0  0.49391610991E-02  0.10808503515E+00  0.88736242073E-01  0.89105605368E+00  0.88000000000E+00 0. -1.
        -11    1    4    4    0    0  0.13670668621E-01 -0.70050264425E-01 -0.47770494476E-01  0.85884853088E-01  0.51100000000E-03 0.  1.
         11    1    4    4    0    0  0.10437916030E-02 -0.27063597592E-01 -0.33908534477E-01  0.43400203305E-01  0.51100000000E-03 0. -1.
</event>
<event>
 8    1  0.1183092E+005  0.1043930E+01  0.7957747E-01            NaN
         13   -1    0    0    0    0  0.00000000000E+00  0.00000000000E+00  0.74505805969E-08  0.10566000000E+00  0.10566000000E+00 0. -1.
     999900   -1    0    0    0    0 -0.00000000000E+00 -0.00000000000E+00 -0.74505805969E-08  0.93827000000E+00  0.93827000000E+00 0.  1.
     999902    2    1    2    0    0  0.12053010378E-01  0.16410197319E-01 -0.11850151707E-01  0.10203716526E+01  0.10200996587E+01 0.  0.
     999903    2    3    3    0    0  0.79771697472E-01  0.16808041365E-01  0.10016917893E+00  0.13068951316E+00  0.19996261404E-01 0.  0.
         14    1    1    2    0    0 -0.12053010378E-01 -0.16410197319E-01  0.11850151707E-01  0.23558347368E-01  0.00000000000E+00 0. -1.
     999901    1    3    3    0    0 -0.67718687094E-01 -0.39784404551E-03 -0.11201933064E+00  0.88968213947E+00  0.88000000000E+00 0.  1.
        -11    1    4    4    0    0  0.46692062808E-01  0.35363964932E-02  0.44594109224E-01  0.64664909556E-01  0.51100000000E-03 0.  1.
         11    1    4    4    0    0  0.33079634664E-01  0.13271644872E-01  0.55575069705E-01  0.66024603602E-01  0.51100000000E-03 0. -1.
</event>
<event>
 8    1  0.1183092E+005  0.1043930E+01  0.7957747E-01            NaN
         13   -1    0    0    0    0  0.00000000000E+00  0.00000000000E+00  0.74505805969E-08  0.10566000000E+00  0.10566000000E+00 0.  1.
     999900   -1    0    0    0    0 -0.00000000000E+00 -0.00000000000E+00 -0.74505805969E-08  0.93827000000E+00  0.93827000000E+00 0. -1.
     999902    2    1    2    0    0 -0.10785367794E-01  0.91454851486E-02  0.18705929329E-01  0.10204805683E+01  0.10202111126E+01 0.  0.
     999903    2    3    3    0    0  0.76357786212E-01 -0.95414717230E-01  0.38897351455E-01  0.12978732211E+00  0.19931513989E-01 0.  0.
         14    1    1    2    0    0  0.10785367794E-01 -0.91454851486E-02 -0.18705929329E-01  0.23449431744E-01  0.00000000000E+00 0.  1.
     999901    1    3    3    0    0 -0.87143154006E-01  0.10456020238E+00 -0.20191422126E-01  0.89069324615E+00  0.88000000000E+00 0.  1.
        -11    1    4    4    0    0  0.34674656788E-01 -0.31759438695E-01  0.21641116369E-01  0.51764783475E-01  0.51100000000E-03 0. -1.
         11    1    4    4    0    0  0.41683129424E-01 -0.63655278535E-01  0.17256235086E-01  0.78022538630E-01  0.51100000000E-03 0.  1.
</event>
<event>
 8    1  0.1183092E+005  0.1043930E+01  0.7957747E-01            NaN
         13   -1    0    0    0    0  0.00000000000E+00  0.00000000000E+00  0.74505805969E-08  0.10566000000E+00  0.10566000000E+00 0.  1.
     999900   -1    0    0    0    0 -0.00000000000E+00 -0.00000000000E+00 -0.74505805969E-08  0.93827000000E+00  0.93827000000E+00 0.  1.
     999902    2    1    2    0    0 -0.18447014181E-01 -0.14980621067E-01  0.18379705636E-02  0.10200953723E+01  0.10198168851E+01 0.  0.
     999903    2    3    3    0    0 -0.51794360319E-01  0.75662919442E-01 -0.90123570426E-01  0.13004749613E+00  0.19559145274E-01 0.  0.
         14    1    1    2    0    0  0.18447014181E-01  0.14980621067E-01 -0.18379705636E-02  0.23834627657E-01  0.00000000000E+00 0. -1.
     999901    1    3    3    0    0  0.33347346138E-01 -0.90643540509E-01  0.91961540990E-01  0.89004787621E+00  0.88000000000E+00 0. -1.
        -11    1    4    4    0    0 -0.37259843880E-01  0.66643278150E-01 -0.69496471344E-01  0.10324554779E+00  0.51100000000E-03 0. -1.
         11    1    4    4    0    0 -0.14534516439E-01  0.90196412917E-02 -0.20627099082E-01  0.26801948338E-01  0.51100000000E-03 0.  1.
</event>
<event>
 8    1  0.1183092E+005  0.1043930E+01  0.7957747E-01            NaN
         13   -1    0    0    0    0  0.00000000000E+00  0.00000000000E+00  0.74505805969E-08  0.10566000000E+00  0.10566000000E+00 0.  1.
     999900   -1    0    0    0    0 -0.00000000000E+00 -0.00000000000E+00 -0.74505805969E-08  0.93827000000E+00  0.93827000000E+00 0.  1.
     999902    2    1    2    0    0 -0.38615778169E-02 -0.23780625424E-01 -0.16208827668E-02  0.10197834228E+01  0.10194975097E+01 0.  0.
     999903    2    3    3    0    0  0.76036748249E-01  0.88722144088E-01 -0.47894719506E-01  0.12782945336E+00  0.19830760314E-01 0.  0.
         14    1    1    2    0    0  0.38615778169E-02  0.23780625424E-01  0.16208827668E-02  0.24146577184E-01  0.00000000000E+00 0. -1.
     999901    1    3    3    0    0 -0.79898326066E-01 -0.11250276951E+00  0.46273836740E-01  0.89195396945E+00  0.88000000000E+00 0. -1.
        -11    1    4    4    0    0  0.12117564852E-01  0.25417581967E-01 -0.15931133086E-01  0.32356621786E-01  0.51100000000E-03 0. -1.
         11    1    4    4    0    0  0.63919183397E-01  0.63304562121E-01 -0.31963586421E-01  0.95472831577E-01  0.51100000000E-03 0.  1.
</event>
<event>
 8    1  0.1183092E+005  0.1043930E+01  0.7957747E-01            NaN
         13   -1    0    0    0    0  0.00000000000E+00  0.00000000000E+00  0.74505805969E-08  0.10566000000E+00  0.10566000000E+00 0. -1.
     999900   -1    0    0    0    0 -0.00000000000E+00 -0.00000000000E+00 -0.74505805969E-08  0.93827000000E+00  0.93827000000E+00 0. -1.
     999902    2    1    2    0    0 -0.17773467765E-01  0.92614158893E-02 -0.11307337275E-01  0.10209185712E+01  0.10206592003E+01 0.  0.
     999903    2    3    3    0    0 -0.65664454832E-01 -0.37762674430E-01  0.10481200764E+00  0.13075649942E+00  0.19335588601E-01 0.  0.
         14    1    1    2    0    0  0.17773467765E-01 -0.92614158893E-02  0.11307337275E-01  0.23011428832E-01  0.00000000000E+00 0. -1.
     999901    1    3    3    0    0  0.47890987067E-01  0.47024090319E-01 -0.11611934492E+00  0.89016207175E+00  0.88000000000E+00 0.  1.
        -11    1    4    4    0    0 -0.23587855207E-01 -0.21702587366E-01  0.54502776531E-01  0.63231344935E-01  0.51100000000E-03 0.  1.
         11    1    4    4    0    0 -0.42076599625E-01 -0.16060087064E-01  0.50309231110E-01  0.67525154486E-01  0.51100000000E-03 0. -1.
</event>
<event>
 8    1  0.1183092E+005  0.1043930E+01  0.7957747E-01            NaN
         13   -1    0    0    0    0  0.00000000000E+00  0.00000000000E+00  0.74505805969E-08  0.10566000000E+00  0.10566000000E+00 0. -1.
     999900   -1    0    0    0    0 -0.00000000000E+00 -0.00000000000E+00 -0.74505805969E-08  0.93827000000E+00  0.93827000000E+00 0. -1.
     999902    2    1    2    0    0 -0.77796146717E-02 -0.59509008781E-02 -0.19987996696E-01  0.10216711672E+01  0.10214286653E+01 0.  0.
     999903    2    3    3    0    0 -0.15713066145E-01 -0.12819079301E+00  0.20280090436E-01  0.13227415252E+00  0.20134286578E-01 0.  0.
         14    1    1    2    0    0  0.77796146717E-02  0.59509008781E-02  0.19987996696E-01  0.22258832800E-01  0.00000000000E+00 0. -1.
     999901    1    3    3    0    0  0.79334514734E-02  0.12223989213E+00 -0.40268087132E-01  0.88939701468E+00  0.88000000000E+00 0.  1.
        -11    1    4    4    0    0 -0.35303371260E-02 -0.64585994616E-01  0.19305058912E-01  0.67503780645E-01  0.51100000000E-03 0. -1.
         11    1    4    4    0    0 -0.12182729019E-01 -0.63604798395E-01  0.97503152450E-03  0.64770371874E-01  0.51100000000E-03 0.  1.
</event>
<event>
 8    1  0.1183092E+005  0.1043930E+01  0.7957747E-01            NaN
         13   -1    0    0    0    0  0.00000000000E+00  0.00000000000E+00  0.74505805969E-08  0.10566000000E+00  0.10566000000E+00 0. -1.
     999900   -1    0    0    0    0 -0.00000000000E+00 -0.00000000000E+00 -0.74505805969E-08  0.93827000000E+00  0.93827000000E+00 0.  1.
     999902    2    1    2    0    0  0.14700300878E-01  0.87561749951E-02  0.15895486937E-01  0.10205754298E+01  0.10203081749E+01 0.  0.
     999903    2    3    3    0    0  0.12926437986E-01 -0.90899592500E-01  0.92609857083E-01  0.13163251079E+00  0.17908197917E-01 0.  0.
         14    1    1    2    0    0 -0.14700300878E-01 -0.87561749951E-02 -0.15895486937E-01  0.23354570247E-01  0.00000000000E+00 0.  1.
     999901    1    3    3    0    0  0.17738628924E-02  0.99655767495E-01 -0.76714370146E-01  0.88894291896E+00  0.88000000000E+00 0.  1.
        -11    1    4    4    0    0  0.13934803456E-01 -0.73764906565E-01  0.65975180946E-01  0.99942112294E-01  0.51100000000E-03 0. -1.
         11    1    4    4    0    0 -0.10083654704E-02 -0.17134685935E-01  0.26634676137E-01  0.31690398498E-01  0.51100000000E-03 0.  1.
</event>
<event>
 8    1  0.1183092E+005  0.1043930E+01  0.7957747E-01            NaN
         13   -1    0    0    0    0  0.00000000000E+00  0.00000000000E+00  0.74505805969E-08  0.10566000000E+00  0.10566000000E+00 0.  1.
     999900   -1    0    0    0    0 -0.00000000000E+00 -0.00000000000E+00 -0.74505805969E-08  0.93827000000E+00  0.93827000000E+00 0.  1.
     999902    2    1    2    0    0 -0.13317563144E-01 -0.31369579160E-02  0.18565928788E-01  0.10208672225E+01  0.10206066795E+01 0.  0.
     999903    2    3    3    0    0  0.78832553746E-01 -0.33782140694E-03 -0.99186319559E-01  0.12825024353E+00  0.19887516778E-01 0.  0.
         14    1    1    2    0    0  0.13317563144E-01  0.31369579160E-02 -0.18565928788E-01  0.23062777474E-01  0.00000000000E+00 0. -1.
     999901    1    3    3    0    0 -0.92150116890E-01 -0.27991365090E-02  0.11775224835E+00  0.89261697900E+00  0.88000000000E+00 0. -1.
        -11    1    4    4    0    0  0.32622193482E-01  0.96483233794E-02 -0.41703332484E-01  0.53821247783E-01  0.51100000000E-03 0. -1.
         11    1    4    4    0    0  0.46210360263E-01 -0.99861447863E-02 -0.57482987075E-01  0.74428995743E-01  0.51100000000E-03 0.  1.
</event>
<event>
 8    1  0.1183092E+005  0.1043930E+01  0.7957747E-01            NaN
         13   -1    0    0    0    0  0.00000000000E+00  0.00000000000E+00  0.74505805969E-08  0.10566000000E+00  0.10566000000E+00 0.  1.
     999900   -1    0    0    0    0 -0.00000000000E+00 -0.00000000000E+00 -0.74505805969E-08  0.93827000000E+00  0.93827000000E+00 0. -1.
     999902    2    1    2    0    0  0.14406925799E-01 -0.17807035060E-01  0.27986458956E-02  0.10208544192E+01  0.10205935836E+01 0.  0.
     999903    2    3    3    0    0 -0.81581287232E-01  0.72848543528E-01 -0.64380168926E-01  0.12847268246E+00  0.19950119493E-01 0.  0.
         14    1    1    2    0    0 -0.14406925799E-01  0.17807035060E-01 -0.27986458956E-02  0.23075580761E-01  0.00000000000E+00 0.  1.
     999901    1    3    3    0    0  0.95988213031E-01 -0.90655578588E-01  0.67178814821E-01  0.89238173678E+00  0.88000000000E+00 0.  1.
        -11    1    4    4    0    0 -0.63591732302E-02  0.12443311694E-01 -0.35701077002E-02  0.14431974227E-01  0.51100000000E-03 0.  1.
         11    1    4    4    0    0 -0.75222114002E-01  0.60405231834E-01 -0.60810061226E-01  0.11404070824E+00  0.51100000000E-03 0. -1.
</event>
<event>
 8    1  0.1183092E+005  0.1043930E+01  0.7957747E-01            NaN
         13   -1    0    0    0    0  0.00000000000E+00  0.00000000000E+00  0.74505805969E-08  0.10566000000E+00  0.10566000000E+00 0.  1.
     999900   -1    0    0    0    0 -0.00000000000E+00 -0.00000000000E+00 -0.74505805969E-08  0.93827000000E+00  0.93827000000E+00 0.  1.
     999902    2    1    2    0    0  0.33292375491E-02 -0.17618690756E-01  0.17906227387E-01  0.10185896159E+01  0.10182743592E+01 0.  0.
     999903    2    3    3    0    0  0.51073284121E-01 -0.10815219546E+00  0.52314934705E-01  0.13198949827E+00  0.19467858794E-01 0.  0.
         14    1    1    2    0    0 -0.33292375491E-02  0.17618690756E-01 -0.17906227387E-01  0.25340384091E-01  0.00000000000E+00 0. -1.
     999901    1    3    3    0    0 -0.47744046572E-01  0.90533504708E-01 -0.34408707318E-01  0.88660011764E+00  0.88000000000E+00 0. -1.
        -11    1    4    4    0    0  0.32089853430E-02 -0.40209989052E-02 -0.14920750190E-02  0.53808389671E-02  0.51100000000E-03 0. -1.
         11    1    4    4    0    0  0.47864298778E-01 -0.10413119656E+00  0.53807009724E-01  0.12660865930E+00  0.51100000000E-03 0.  1.
</event>
<event>
 8    1  0.1183092E+005  0.1043930E+01  0.7957747E-01            NaN
         13   -1    0    0    0    0  0.00000000000E+00  0.00000000000E+00  0.74505805969E-08  0.10566000000E+00  0.10566000000E+00 0.  1.
     999900   -1    0    0    0    0 -0.00000000000E+00 -0.00000000000E+00 -0.74505805969E-08  0.93827000000E+00  0.93827000000E+00 0.  1.
     999902    2    1    2    0    0 -0.20150204297E-01 -0.37658081913E-02 -0.12734189678E-01  0.10197976228E+01  0.10195120498E+01 0.  0.
     999903    2    3    3    0    0  0.97041503279E-01 -0.21661669447E-01 -0.78911530560E-01  0.12938558408E+00  0.25046325701E-01 0.  0.
         14    1    1    2    0    0  0.20150204297E-01  0.37658081913E-02  0.12734189678E-01  0.24132377241E-01  0.00000000000E+00 0.  1.
     999901    1    3    3    0    0 -0.11719170758E+00  0.17895861256E-01  0.66177340882E-01  0.89041203868E+00  0.88000000000E+00 0. -1.
        -11    1    4    4    0    0  0.19917015704E-01 -0.14799464987E-01 -0.15121369399E-01  0.29062494937E-01  0.51100000000E-03 0.  1.
         11    1    4    4    0    0  0.77124487575E-01 -0.68622044603E-02 -0.63790161161E-01  0.10032308915E+00  0.51100000000E-03 0. -1.
</event>
<event>
 8    1  0.1183092E+005  0.1043930E+01  0.7957747E-01            NaN
         13   -1    0    0    0    0  0.00000000000E+00  0.00000000000E+00  0.74505805969E-08  0.10566000000E+00  0.10566000000E+00 0. -1.
     999900   -1    0    0    0    0 -0.00000000000E+00 -0.00000000000E+00 -0.74505805969E-08  0.93827000000E+00  0.93827000000E+00 0. -1.
     999902    2    1    2    0    0 -0.28059185233E-02  0.23237222513E-01  0.24380243151E-02  0.10203973492E+01  0.10201259553E+01 0.  0.
     999903    2    3    3    0    0 -0.89976102421E-01  0.30672652503E-01 -0.88460865254E-01  0.13139986067E+00  0.20101942272E-01 0.  0.
         14    1    1    2    0    0  0.28059185233E-02 -0.23237222513E-01 -0.24380243151E-02  0.23532650752E-01  0.00000000000E+00 0. -1.
     999901    1    3    3    0    0  0.87170183898E-01 -0.74354299901E-02  0.90898889569E-01  0.88899748858E+00  0.88000000000E+00 0.  1.
        -11    1    4    4    0    0 -0.63597523148E-01  0.12199234499E-01 -0.55091379201E-01  0.85022276235E-01  0.51100000000E-03 0. -1.
         11    1    4    4    0    0 -0.26378579273E-01  0.18473418003E-01 -0.33369486053E-01  0.46377584431E-01  0.51100000000E-03 0.  1.
</event>
<event>
 8    1  0.1183092E+005  0.1043930E+01  0.7957747E-01            NaN
         13   -1    0    0    0    0  0.00000000000E+00  0.00000000000E+00  0.74505805969E-08  0.10566000000E+00  0.10566000000E+00 0.  1.
     999900   -1    0    0    0    0 -0.00000000000E+00 -0.00000000000E+00 -0.74505805969E-08  0.93827000000E+00  0.93827000000E+00 0.  1.
     999902    2    1    2    0    0  0.12225018861E-01 -0.12116604696E-01 -0.16296082264E-01  0.10202271417E+01  0.10199517612E+01 0.  0.
     999903    2    3    3    0    0  0.14421378196E-01  0.14421242357E-03 -0.13046116015E+00  0.13276513312E+00  0.19961696240E-01 0.  0.
         14    1    1    2    0    0 -0.12225018861E-01  0.12116604696E-01  0.16296082264E-01  0.23702858322E-01  0.00000000000E+00 0.  1.
     999901    1    3    3    0    0 -0.21963593354E-02 -0.12260817120E-01  0.11416507789E+00  0.88746200856E+00  0.88000000000E+00 0. -1.
        -11    1    4    4    0    0  0.17976154674E-01 -0.42472545533E-02 -0.87406308325E-01  0.89338150665E-01  0.51100000000E-03 0. -1.
         11    1    4    4    0    0 -0.35547764778E-02  0.43914669769E-02 -0.43054851827E-01  0.43426982452E-01  0.51100000000E-03 0.  1.
</event>
<event>
 8    1  0.1183092E+005  0.1043930E+01  0.7957747E-01            NaN
         13   -1    0    0    0    0  0.00000000000E+00  0.00000000000E+00  0.74505805969E-08  0.10566000000E+00  0.10566000000E+00 0.  1.
     999900   -1    0    0    0    0 -0.00000000000E+00 -0.00000000000E+00 -0.74505805969E-08  0.93827000000E+00  0.93827000000E+00 0. -1.
     999902    2    1    2    0    0 -0.14365356018E-01  0.29812902822E-02 -0.19310287847E-01  0.10196784276E+01  0.10193899926E+01 0.  0.
     999903    2    3    3    0    0 -0.13119990174E-01  0.11655348085E+00  0.51250737688E-01  0.12957784246E+00  0.20172533351E-01 0.  0.
         14    1    1    2    0    0  0.14365356018E-01 -0.29812902822E-02  0.19310287847E-01  0.24251572362E-01  0.00000000000E+00 0.  1.
     999901    1    3    3    0    0 -0.12453658442E-02 -0.11357219057E+00 -0.70561025535E-01  0.89010058518E+00  0.88000000000E+00 0. -1.
        -11    1    4    4    0    0 -0.28843035756E-02  0.88934166671E-01  0.32896621444E-01  0.94868614578E-01  0.51100000000E-03 0. -1.
         11    1    4    4    0    0 -0.10235686599E-01  0.27619314184E-01  0.18354116244E-01  0.34709227883E-01  0.51100000000E-03 0.  1.
</event>
<event>
 8    1  0.1183092E+005  0.1043930E+01  0.7957747E-01            NaN
         13   -1    0    0    0    0  0.00000000000E+00  0.00000000000E+00  0.74505805969E-08  0.10566000000E+00  0.10566000000E+00 0.  1.
     999900   -1    0    0    0    0 -0.00000000000E+00 -0.00000000000E+00 -0.74505805969E-08  0.93827000000E+00  0.93827000000E+00 0. -1.
     999902    2    1    2    0    0  0.15359539069E-01  0.17641694306E-01 -0.44475077467E-02  0.10201198101E+01  0.10198419004E+01 0.  0.
     999903    2    3    3    0    0  0.12049747284E+00 -0.51598453208E-02  0.49241083606E-01  0.13194394903E+00  0.20934574459E-01 0.  0.
         14    1    1    2    0    0 -0.15359539069E-01 -0.17641694306E-01  0.44475077467E-02  0.23810189910E-01  0.00000000000E+00 0.  1.
     999901    1    3    3    0    0 -0.10513793377E+00  0.22801539627E-01 -0.53688591353E-01  0.88817586106E+00  0.88000000000E+00 0.  1.
        -11    1    4    4    0    0  0.64705689542E-01  0.44618570037E-02  0.34373959952E-01  0.73406843487E-01  0.51100000000E-03 0. -1.
         11    1    4    4    0    0  0.55791783293E-01 -0.96217023245E-02  0.14867123655E-01  0.58537105543E-01  0.51100000000E-03 0.  1.
</event>
<event>
 8    1  0.1183092E+005  0.1043930E+01  0.7957747E-01            NaN
         13   -1    0    0    0    0  0.00000000000E+00  0.00000000000E+00  0.74505805969E-08  0.10566000000E+00  0.10566000000E+00 0. -1.
     999900   -1    0    0    0    0 -0.00000000000E+00 -0.00000000000E+00 -0.74505805969E-08  0.93827000000E+00  0.93827000000E+00 0.  1.
     999902    2    1    2    0    0  0.11015010649E-01 -0.12788991236E-01  0.16199322876E-01  0.10205354105E+01  0.10202672284E+01 0.  0.
     999903    2    3    3    0    0  0.10154438276E+00 -0.81547946812E-01  0.19727690525E-01  0.13321595812E+00  0.19899256869E-01 0.  0.
         14    1    1    2    0    0 -0.11015010649E-01  0.12788991236E-01 -0.16199322876E-01  0.23394589505E-01  0.00000000000E+00 0.  1.
     999901    1    3    3    0    0 -0.90529372115E-01  0.68758955575E-01 -0.35283676488E-02  0.88731945238E+00  0.88000000000E+00 0.  1.
        -11    1    4    4    0    0  0.14562695730E-01 -0.70890932330E-02  0.81318572325E-02  0.18130514963E-01  0.51100000000E-03 0. -1.
         11    1    4    4    0    0  0.86981687034E-01 -0.74458853579E-01  0.11595833293E-01  0.11508544316E+00  0.51100000000E-03 0.  1.
</event>
<event>
 8    1  0.1183092E+005  0.1043930E+01  0.7957747E-01            NaN
         13   -1    0    0    0    0  0.00000000000E+00  0.00000000000E+00  0.74505805969E-08  0.10566000000E+00  0.10566000000E+00 0.  1.
     999900   -1    0    0    0    0 -0.00000000000E+00 -0.00000000000E+00 -0.74505805969E-08  0.93827000000E+00  0.93827000000E+00 0.  1.
     999902    2    1    2    0    0 -0.59012091101E-02  0.21506467282E-01  0.13057743879E-01  0.10180870691E+01  0.10177590202E+01 0.  0.
     999903    2    3    3    0    0  0.77681885843E-01  0.21987578214E-01 -0.96418714852E-01  0.12737305198E+00  0.20233556582E-01 0.  0.
         14    1    1    2    0    0  0.59012091101E-02 -0.21506467282E-01 -0.13057743879E-01  0.25842930932E-01  0.00000000000E+00 0. -1.
     999901    1    3    3    0    0 -0.83583094953E-01 -0.48111093202E-03  0.10947645873E+00  0.89071401709E+00  0.88000000000E+00 0. -1.
        -11    1    4    4    0    0  0.38681785155E-01  0.87201026472E-02 -0.32233841155E-01  0.51103838697E-01  0.51100000000E-03 0.  1.
         11    1    4    4    0    0  0.39000100688E-01  0.13267475567E-01 -0.64184873697E-01  0.76269213279E-01  0.51100000000E-03 0. -1.
</event>
<event>
 8    1  0.1183092E+005  0.1043930E+01  0.7957747E-01            NaN
         13   -1    0    0    0    0  0.00000000000E+00  0.00000000000E+00  0.74505805969E-08  0.10566000000E+00  0.10566000000E+00 0. -1.
     999900   -1    0    0    0    0 -0.00000000000E+00 -0.00000000000E+00 -0.74505805969E-08  0.93827000000E+00  0.93827000000E+00 0. -1.
     999902    2    1    2    0    0  0.22972587412E-01 -0.27134166198E-02  0.23065240836E-01  0.10112633850E+01  0.10107356361E+01 0.  0.
     999903    2    3    3    0    0  0.68154853787E-01  0.81072336186E-01 -0.58065890999E-01  0.12241933222E+00  0.19925797719E-01 0.  0.
         14    1    1    2    0    0 -0.22972587412E-01  0.27134166198E-02 -0.23065240836E-01  0.32666615022E-01  0.00000000000E+00 0.  1.
     999901    1    3    3    0    0 -0.45182266375E-01 -0.83785752805E-01  0.81131131836E-01  0.88884405276E+00  0.88000000000E+00 0.  1.
        -11    1    4    4    0    0  0.38919450680E-01  0.58052628034E-01 -0.31313499505E-01  0.76587385614E-01  0.51100000000E-03 0. -1.
         11    1    4    4    0    0  0.29235403106E-01  0.23019708152E-01 -0.26752391495E-01  0.45831946608E-01  0.51100000000E-03 0.  1.
</event>
<event>
 8    1  0.1183092E+005  0.1043930E+01  0.7957747E-01            NaN
         13   -1    0    0    0    0  0.00000000000E+00  0.00000000000E+00  0.74505805969E-08  0.10566000000E+00  0.10566000000E+00 0.  1.
     999900   -1    0    0    0    0 -0.00000000000E+00 -0.00000000000E+00 -0.74505805969E-08  0.93827000000E+00  0.93827000000E+00 0. -1.
     999902    2    1    2    0    0  0.76773048943E-02 -0.44036688558E-02  0.23582966510E-01  0.10187409226E+01  0.10184294663E+01 0.  0.
     999903    2    3    3    0    0  0.18762719307E-01  0.49951409303E-01 -0.11286468609E+00  0.12649918249E+00  0.20406442061E-01 0.  0.
         14    1    1    2    0    0 -0.76773048943E-02  0.44036688558E-02 -0.23582966510E-01  0.25189077379E-01  0.00000000000E+00 0. -1.
     999901    1    3    3    0    0 -0.11085414413E-01 -0.54355078159E-01  0.13644765260E+00  0.89224174013E+00  0.88000000000E+00 0.  1.
        -11    1    4    4    0    0  0.20818137008E-01  0.48957977128E-01 -0.98543834154E-01  0.11198851157E+00  0.51100000000E-03 0.  1.
         11    1    4    4    0    0 -0.20554177007E-02  0.99343217469E-03 -0.14320851933E-01  0.14510670918E-01  0.51100000000E-03 0. -1.
</event>
<event>
 8    1  0.1183092E+005  0.1043930E+01  0.7957747E-01            NaN
         13   -1    0    0    0    0  0.00000000000E+00  0.00000000000E+00  0.74505805969E-08  0.10566000000E+00  0.10566000000E+00 0.  1.
     999900   -1    0    0    0    0 -0.00000000000E+00 -0.00000000000E+00 -0.74505805969E-08  0.93827000000E+00  0.93827000000E+00 0.  1.
     999902    2    1    2    0    0  0.13006082466E-01 -0.18047607351E-01  0.90548716329E-02  0.10199119857E+01  0.10196291451E+01 0.  0.
     999903    2    3    3    0    0  0.68432614822E-01 -0.11079415482E+00 -0.15465972877E-01  0.13296480890E+00  0.21956242310E-01 0.  0.
         14    1    1    2    0    0 -0.13006082466E-01  0.18047607351E-01 -0.90548716329E-02  0.24018014333E-01  0.00000000000E+00 0.  1.
     999901    1    3    3    0    0 -0.55426532356E-01  0.92746547465E-01  0.24520844510E-01  0.88694717676E+00  0.88000000000E+00 0.  1.
        -11    1    4    4    0    0  0.16138772728E-01 -0.12369258642E-01 -0.54641749554E-02  0.21061264764E-01  0.51100000000E-03 0.  1.
         11    1    4    4    0    0  0.52293842095E-01 -0.98424896175E-01 -0.10001797921E-01  0.11190354414E+00  0.51100000000E-03 0. -1.
</event>
<event>
 8    1  0.1183092E+005  0.1043930E+01  0.7957747E-01            NaN
         13   -1    0    0    0    0  0.00000000000E+00  0.00000000000E+00  0.74505805969E-08  0.10566000000E+00  0.10566000000E+00 0. -1.
     999900   -1    0    0    0    0 -0.00000000000E+00 -0.00000000000E+00 -0.74505805969E-08  0.93827000000E+00  0.93827000000E+00 0.  1.
     999902    2    1    2    0    0  0.66028968288E-02  0.10875142484E-01  0.20221727080E-01  0.10200388883E+01  0.10197590639E+01 0.  0.
     999903    2    3    3    0    0 -0.47334792520E-01 -0.42882575861E-01  0.11346504788E+00  0.13184212889E+00  0.20701013605E-01 0.  0.
         14    1    1    2    0    0 -0.66028968288E-02 -0.10875142484E-01 -0.20221727080E-01  0.23891111667E-01  0.00000000000E+00 0. -1.
     999901    1    3    3    0    0  0.53937689348E-01  0.53757718345E-01 -0.93243320799E-01  0.88819675944E+00  0.88000000000E+00 0.  1.
        -11    1    4    4    0    0 -0.30892323914E-01 -0.33958677151E-01  0.62505407075E-01  0.77554590227E-01  0.51100000000E-03 0. -1.
         11    1    4    4    0    0 -0.16442468606E-01 -0.89238987099E-02  0.50959640804E-01  0.54287538662E-01  0.51100000000E-03 0.  1.
</event>
<event>
 8    1  0.1183092E+005  0.1043930E+01  0.7957747E-01            NaN
         13   -1    0    0    0    0  0.00000000000E+00  0.00000000000E+00  0.74505805969E-08  0.10566000000E+00  0.10566000000E+00 0.  1.
     999900   -1    0    0    0    0 -0.00000000000E+00 -0.00000000000E+00 -0.74505805969E-08  0.93827000000E+00  0.93827000000E+00 0. -1.
     999902    2    1    2    0    0 -0.29481701735E-02 -0.80732691057E-02 -0.22778246945E-01  0.10195842013E+01  0.10192934933E+01 0.  0.
     999903    2    3    3    0    0  0.82820946777E-01 -0.92688481483E-01 -0.37112879442E-01  0.13125905964E+00  0.20027758021E-01 0.  0.
         14    1    1    2    0    0  0.29481701735E-02  0.80732691057E-02  0.22778246945E-01  0.24345798720E-01  0.00000000000E+00 0.  1.
     999901    1    3    3    0    0 -0.85769116950E-01  0.84615212378E-01  0.14334632497E-01  0.88832514164E+00  0.88000000000E+00 0. -1.
        -11    1    4    4    0    0  0.80396870090E-02 -0.25362567288E-02 -0.49585399484E-02  0.97937431463E-02  0.51100000000E-03 0.  1.
         11    1    4    4    0    0  0.74781259768E-01 -0.90152224755E-01 -0.32154339494E-01  0.12146531649E+00  0.51100000000E-03 0. -1.
</event>
<event>
 8    1  0.1183092E+005  0.1043930E+01  0.7957747E-01            NaN
         13   -1    0    0    0    0  0.00000000000E+00  0.00000000000E+00  0.74505805969E-08  0.10566000000E+00  0.10566000000E+00 0. -1.
     999900   -1    0    0    0    0 -0.00000000000E+00 -0.00000000000E+00 -0.74505805969E-08  0.93827000000E+00  0.93827000000E+00 0.  1.
     999902    2    1    2    0    0  0.86392916163E-02  0.21250779881E-01 -0.49931293099E-02  0.10204531104E+01  0.10201830160E+01 0.  0.
     999903    2    3    3    0    0  0.16750560919E-01 -0.12116863371E+00 -0.33520204391E-01  0.12850979601E+00  0.20706146035E-01 0.  0.
         14    1    1    2    0    0 -0.86392916163E-02 -0.21250779881E-01  0.49931293099E-02  0.23476889605E-01  0.00000000000E+00 0. -1.
     999901    1    3    3    0    0 -0.81112693030E-02  0.14241941359E+00  0.28527075081E-01  0.89194331438E+00  0.88000000000E+00 0.  1.
        -11    1    4    4    0    0  0.41758232162E-02 -0.75656047363E-01 -0.28770055136E-01  0.81050923472E-01  0.51100000000E-03 0. -1.
         11    1    4    4    0    0  0.12574737703E-01 -0.45512586344E-01 -0.47501492549E-02  0.47458872543E-01  0.51100000000E-03 0.  1.
</event>
<event>
 8    1  0.1183092E+005  0.1043930E+01  0.7957747E-01            NaN
         13   -1    0    0    0    0  0.00000000000E+00  0.00000000000E+00  0.74505805969E-08  0.10566000000E+00  0.10566000000E+00 0. -1.
     999900   -1    0    0    0    0 -0.00000000000E+00 -0.00000000000E+00 -0.74505805969E-08  0.93827000000E+00  0.93827000000E+00 0.  1.
     999902    2    1    2    0    0  0.66419891973E-02 -0.12442417296E-01  0.19263288105E-01  0.10200552427E+01  0.10197758058E+01 0.  0.
     999903    2    3    3    0    0  0.38106784510E-01 -0.91539383949E-01 -0.81847957569E-01  0.13018455124E+00  0.20428983907E-01 0.  0.
         14    1    1    2    0    0 -0.66419891973E-02  0.12442417296E-01 -0.19263288105E-01  0.23874757324E-01  0.00000000000E+00 0. -1.
     999901    1    3    3    0    0 -0.31464795313E-01  0.79096966653E-01  0.10111124567E+00  0.88987069144E+00  0.88000000000E+00 0. -1.
        -11    1    4    4    0    0  0.16068730959E-01 -0.53324920757E-01 -0.34728755223E-01  0.65636109335E-01  0.51100000000E-03 0. -1.
         11    1    4    4    0    0  0.22038053551E-01 -0.38214463192E-01 -0.47119202346E-01  0.64548441903E-01  0.51100000000E-03 0.  1.
</event>
<event>
 8    1  0.1183092E+005  0.1043930E+01  0.7957747E-01            NaN
         13   -1    0    0    0    0  0.00000000000E+00  0.00000000000E+00  0.74505805969E-08  0.10566000000E+00  0.10566000000E+00 0.  1.
     999900   -1    0    0    0    0 -0.00000000000E+00 -0.00000000000E+00 -0.74505805969E-08  0.93827000000E+00  0.93827000000E+00 0.  1.
     999902    2    1    2    0    0 -0.16602858630E-02  0.38884438064E-02  0.23055127670E-01  0.10204903870E+01  0.10202211596E+01 0.  0.
     999903    2    3    3    0    0  0.68679097864E-01  0.16166235896E-01 -0.10528419841E+00  0.12831923994E+00  0.20072350086E-01 0.  0.
         14    1    1    2    0    0  0.16602858630E-02 -0.38884438064E-02 -0.23055127670E-01  0.23439612972E-01  0.00000000000E+00 0. -1.
     999901    1    3    3    0    0 -0.70339383727E-01 -0.12277792090E-01  0.12833932608E+00  0.89217114709E+00  0.88000000000E+00 0. -1.
        -11    1    4    4    0    0  0.54252453277E-01  0.43063258917E-02 -0.82803731857E-01  0.99088809962E-01  0.51100000000E-03 0.  1.
         11    1    4    4    0    0  0.14426644587E-01  0.11859910004E-01 -0.22480466549E-01  0.29230429976E-01  0.51100000000E-03 0. -1.
</event>
<event>
 8    1  0.1183092E+005  0.1043930E+01  0.7957747E-01            NaN
         13   -1    0    0    0    0  0.00000000000E+00  0.00000000000E+00  0.74505805969E-08  0.10566000000E+00  0.10566000000E+00 0. -1.
     999900   -1    0    0    0    0 -0.00000000000E+00 -0.00000000000E+00 -0.74505805969E-08  0.93827000000E+00  0.93827000000E+00 0. -1.
     999902    2    1    2    0    0  0.99159910820E-02 -0.12389346743E-01  0.17727609046E-01  0.10201373349E+01  0.10198598389E+01 0.  0.
     999903    2    3    3    0    0  0.36797396757E-01  0.11874388276E+00  0.31859353726E-01  0.12990239955E+00  0.20135960053E-01 0.  0.
         14    1    1    2    0    0 -0.99159910820E-02  0.12389346743E-01 -0.17727609046E-01  0.23792665137E-01  0.00000000000E+00 0.  1.
     999901    1    3    3    0    0 -0.26881405675E-01 -0.13113322950E+00 -0.14131744680E-01  0.89023493532E+00  0.88000000000E+00 0. -1.
        -11    1    4    4    0    0  0.20709296945E-01  0.58594061637E-01  0.25977376068E-01  0.67358920920E-01  0.51100000000E-03 0.  1.
         11    1    4    4    0    0  0.16088099811E-01  0.60149821121E-01  0.58819776586E-02  0.62543478626E-01  0.51100000000E-03 0. -1.
</event>
<event>
 8    1  0.1183092E+005  0.1043930E+01  0.7957747E-01            NaN
         13   -1    0    0    0    0  0.00000000000E+00  0.00000000000E+00  0.74505805969E-08  0.10566000000E+00  0.10566000000E+00 0. -1.
     999900   -1    0    0    0    0 -0.00000000000E+00 -0.00000000000E+00 -0.74505805969E-08  0.93827000000E+00  0.93827000000E+00 0. -1.
     999902    2    1    2    0    0 -0.13201405094E-01  0.11233700540E-01  0.18950015090E-01  0.10182477844E+01  0.10179238549E+01 0.  0.
     999903    2    3    3    0    0  0.84840747004E-01 -0.52212553640E-01  0.78518923934E-01  0.12853651349E+00  0.20792084395E-01 0.  0.
         14    1    1    2    0    0  0.13201405094E-01 -0.11233700540E-01 -0.18950015090E-01  0.25682215563E-01  0.00000000000E+00 0.  1.
     999901    1    3    3    0    0 -0.98042152098E-01  0.63446254180E-01 -0.59568908844E-01  0.88971127095E+00  0.88000000000E+00 0.  1.
        -11    1    4    4    0    0  0.15705526334E-01 -0.19028672843E-01  0.24165871140E-01  0.34539895723E-01  0.51100000000E-03 0. -1.
         11    1    4    4    0    0  0.69135220670E-01 -0.33183880797E-01  0.54353052794E-01  0.93996617763E-01  0.51100000000E-03 0.  1.
</event>
<event>
 8    1  0.1183092E+005  0.1043930E+01  0.7957747E-01            NaN
         13   -1    0    0    0    0  0.00000000000E+00  0.00000000000E+00  0.74505805969E-08  0.10566000000E+00  0.10566000000E+00 0. -1.
     999900   -1    0    0    0    0 -0.00000000000E+00 -0.00000000000E+00 -0.74505805969E-08  0.93827000000E+00  0.93827000000E+00 0. -1.
     999902    2    1    2    0    0  0.21989229291E-02  0.10974584487E-01 -0.21286768832E-01  0.10198799835E+01  0.10195963797E+01 0.  0.
     999903    2    3    3    0    0 -0.59321245848E-01  0.11423245347E+00  0.13809350492E-01  0.13101629526E+00  0.20162039278E-01 0.  0.
         14    1    1    2    0    0 -0.21989229291E-02 -0.10974584487E-01  0.21286768832E-01  0.24050016508E-01  0.00000000000E+00 0. -1.
     999901    1    3    3    0    0  0.61520168777E-01 -0.10325786898E+00 -0.35096119324E-01  0.88886368824E+00  0.88000000000E+00 0.  1.
        -11    1    4    4    0    0 -0.52298225495E-01  0.94116003614E-01  0.18351558221E-01  0.10922438984E+00  0.51100000000E-03 0. -1.
         11    1    4    4    0    0 -0.70230203530E-02  0.20116449852E-01 -0.45422077295E-02  0.21791905415E-01  0.51100000000E-03 0.  1.
</event>
<event>
 8    1  0.1183092E+005  0.1043930E+01  0.7957747E-01            NaN
         13   -1    0    0    0    0  0.00000000000E+00  0.00000000000E+00  0.74505805969E-08  0.10566000000E+00  0.10566000000E+00 0.  1.
     999900   -1    0    0    0    0 -0.00000000000E+00 -0.00000000000E+00 -0.74505805969E-08  0.93827000000E+00  0.93827000000E+00 0.  1.
     999902    2    1    2    0    0 -0.16583774166E-02 -0.24155405455E-01  0.50564248703E-03  0.10197124547E+01  0.10194248382E+01 0.  0.
     999903    2    3    3    0    0 -0.73170338405E-01 -0.10147213046E+00  0.37744369112E-01  0.13265069846E+00  0.22827148771E-01 0.  0.
         14    1    1    2    0    0  0.16583774166E-02  0.24155405455E-01 -0.50564248703E-03  0.24217545347E-01  0.00000000000E+00 0. -1.
     999901    1    3    3    0    0  0.71511960989E-01  0.77316725006E-01 -0.37238726625E-01  0.88706175619E+00  0.88000000000E+00 0.  1.
        -11    1    4    4    0    0 -0.34475604448E-01 -0.51390042739E-01  0.30357609385E-01  0.68930032376E-01  0.51100000000E-03 0. -1.
         11    1    4    4    0    0 -0.38694733957E-01 -0.50082087721E-01  0.73867597271E-02  0.63720666089E-01  0.51100000000E-03 0.  1.
</event>
<event>
 8    1  0.1183092E+005  0.1043930E+01  0.7957747E-01            NaN
         13   -1    0    0    0    0  0.00000000000E+00  0.00000000000E+00  0.74505805969E-08  0.10566000000E+00  0.10566000000E+00 0.  1.
     999900   -1    0    0    0    0 -0.00000000000E+00 -0.00000000000E+00 -0.74505805969E-08  0.93827000000E+00  0.93827000000E+00 0. -1.
     999902    2    1    2    0    0 -0.13958715889E-01  0.21696886093E-01 -0.14147879575E-01  0.10145061472E+01  0.10140793656E+01 0.  0.
     999903    2    3    3    0    0  0.57040183559E-01 -0.71940691665E-02 -0.11028008141E+00  0.12595849446E+00  0.19962685120E-01 0.  0.
         14    1    1    2    0    0  0.13958715889E-01 -0.21696886093E-01  0.14147879575E-01  0.29423852771E-01  0.00000000000E+00 0.  1.
     999901    1    3    3    0    0 -0.70998899448E-01  0.28890955260E-01  0.96132201839E-01  0.88854765277E+00  0.88000000000E+00 0.  1.
        -11    1    4    4    0    0  0.36163081865E-01  0.52247434138E-02 -0.67818373102E-01  0.77036739838E-01  0.51100000000E-03 0.  1.
         11    1    4    4    0    0  0.20877101694E-01 -0.12418812580E-01 -0.42461708312E-01  0.48921754617E-01  0.51100000000E-03 0. -1.
</event>
<event>
 8    1  0.1183092E+005  0.1043930E+01  0.7957747E-01            NaN
         13   -1    0    0    0    0  0.00000000000E+00  0.00000000000E+00  0.74505805969E-08  0.10566000000E+00  0.10566000000E+00 0.  1.
     999900   -1    0    0    0    0 -0.00000000000E+00 -0.00000000000E+00 -0.74505805969E-08  0.93827000000E+00  0.93827000000E+00 0.  1.
     999902    2    1    2    0    0 -0.57437193724E-02  0.13241058177E-01  0.19197799356E-01  0.10199118520E+01  0.10196290082E+01 0.  0.
     999903    2    3    3    0    0  0.10870474083E+00  0.71097034399E-01  0.66286963522E-02  0.13052793805E+00  0.11049616101E-01 0.  0.
         14    1    1    2    0    0  0.57437193724E-02 -0.13241058177E-01 -0.19197799356E-01  0.24018148013E-01  0.00000000000E+00 0. -1.
     999901    1    3    3    0    0 -0.11444846020E+00 -0.57855976222E-01  0.12569103004E-01  0.88938391394E+00  0.88000000000E+00 0. -1.
        -11    1    4    4    0    0  0.83029517697E-01  0.58017508598E-01  0.84954088005E-02  0.10164824251E+00  0.51100000000E-03 0.  1.
         11    1    4    4    0    0  0.25675223133E-01  0.13079525801E-01 -0.18667124484E-02  0.28879695539E-01  0.51100000000E-03 0. -1.
</event>
<event>
 8    1  0.1183092E+005  0.1043930E+01  0.7957747E-01            NaN
         13   -1    0    0    0    0  0.00000000000E+00  0.00000000000E+00  0.74505805969E-08  0.10566000000E+00  0.10566000000E+00 0.  1.
     999900   -1    0    0    0    0 -0.00000000000E+00 -0.00000000000E+00 -0.74505805969E-08  0.93827000000E+00  0.93827000000E+00 0.  1.
     999902    2    1    2    0    0 -0.21120438005E-02 -0.26370404657E-02 -0.23029392433E-01  0.10206540977E+01  0.10203886610E+01 0.  0.
     999903    2    3    3    0    0  0.11366692780E-01 -0.58610211107E-01 -0.11852142487E+00  0.13361779607E+00  0.15557272327E-01 0.  0.
         14    1    1    2    0    0  0.21120438005E-02  0.26370404657E-02  0.23029392433E-01  0.23275902286E-01  0.00000000000E+00 0.  1.
     999901    1    3    3    0    0 -0.13478736581E-01  0.55973170641E-01  0.95492032441E-01  0.88703630164E+00  0.88000000000E+00 0. -1.
        -11    1    4    4    0    0  0.50018132078E-02 -0.10339485427E-01 -0.36119063976E-01  0.37904762204E-01  0.51100000000E-03 0.  1.
         11    1    4    4    0    0  0.63648795724E-02 -0.48270725680E-01 -0.82402360898E-01  0.95713033867E-01  0.51100000000E-03 0. -1.
</event>
<event>
 8    1  0.1183092E+005  0.1043930E+01  0.7957747E-01            NaN
         13   -1    0    0    0    0  0.00000000000E+00  0.00000000000E+00  0.74505805969E-08  0.10566000000E+00  0.10566000000E+00 0. -1.
     999900   -1    0    0    0    0 -0.00000000000E+00 -0.00000000000E+00 -0.74505805969E-08  0.93827000000E+00  0.93827000000E+00 0. -1.
     999902    2    1    2    0    0 -0.16942113706E-02  0.23638801668E-01  0.97710695837E-03  0.10202104293E+01  0.10199346558E+01 0.  0.
     999903    2    3    3    0    0 -0.91813594086E-01 -0.93701697276E-02 -0.89896859747E-01  0.13034011674E+00  0.19737388399E-01 0.  0.
         14    1    1    2    0    0  0.16942113706E-02 -0.23638801668E-01 -0.97710695837E-03  0.23719570706E-01  0.00000000000E+00 0. -1.
     999901    1    3    3    0    0  0.90119382715E-01  0.33008971395E-01  0.90873966706E-01  0.88987031255E+00  0.88000000000E+00 0.  1.
        -11    1    4    4    0    0 -0.78127682395E-01 -0.82846208372E-02 -0.85015266017E-01  0.11576021024E+00  0.51100000000E-03 0.  1.
         11    1    4    4    0    0 -0.13685911691E-01 -0.10855488904E-02 -0.48815937302E-02  0.14579906500E-01  0.51100000000E-03 0. -1.
</event>
<event>
 8    1  0.1183092E+005  0.1043930E+01  0.7957747E-01            NaN
         13   -1    0    0    0    0  0.00000000000E+00  0.00000000000E+00  0.74505805969E-08  0.10566000000E+00  0.10566000000E+00 0. -1.
     999900   -1    0    0    0    0 -0.00000000000E+00 -0.00000000000E+00 -0.74505805969E-08  0.93827000000E+00  0.93827000000E+00 0. -1.
     999902    2    1    2    0    0 -0.12661800680E-02  0.15081576771E-01  0.17681534635E-01  0.10206556829E+01  0.10203902828E+01 0.  0.
     999903    2    3    3    0    0  0.72159458848E-04 -0.76858785267E-01 -0.10026493659E+00  0.12803807641E+00  0.20818583573E-01 0.  0.
         14    1    1    2    0    0  0.12661800680E-02 -0.15081576771E-01 -0.17681534635E-01  0.23274317110E-01  0.00000000000E+00 0.  1.
     999901    1    3    3    0    0 -0.13383395268E-02  0.91940362038E-01  0.11794647122E+00  0.89261760648E+00  0.88000000000E+00 0. -1.
        -11    1    4    4    0    0 -0.97224134038E-02 -0.51858325481E-01 -0.67334696087E-01  0.85545506383E-01  0.51100000000E-03 0.  1.
         11    1    4    4    0    0  0.97945728626E-02 -0.25000459785E-01 -0.32930240502E-01  0.42492570027E-01  0.51100000000E-03 0. -1.
</event>
<event>
 8    1  0.1183092E+005  0.1043930E+01  0.7957747E-01            NaN
         13   -1    0    0    0    0  0.00000000000E+00  0.00000000000E+00  0.74505805969E-08  0.10566000000E+00  0.10566000000E+00 0.  1.
     999900   -1    0    0    0    0 -0.00000000000E+00 -0.00000000000E+00 -0.74505805969E-08  0.93827000000E+00  0.93827000000E+00 0.  1.
     999902    2    1    2    0    0  0.76190894171E-02  0.21647638912E-01  0.57337621215E-02  0.10202752579E+01  0.10200010074E+01 0.  0.
     999903    2    3    3    0    0  0.34788854895E-01  0.90124993230E-01  0.89518254702E-01  0.13323118608E+00  0.20106023753E-01 0.  0.
         14    1    1    2    0    0 -0.76190894171E-02 -0.21647638912E-01 -0.57337621215E-02  0.23654742063E-01  0.00000000000E+00 0.  1.
     999901    1    3    3    0    0 -0.27169765478E-01 -0.68477354318E-01 -0.83784492580E-01  0.88704407185E+00  0.88000000000E+00 0. -1.
        -11    1    4    4    0    0  0.20564925465E-01  0.27504814748E-01  0.34254864116E-01  0.48508636657E-01  0.51100000000E-03 0.  1.
         11    1    4    4    0    0  0.14223929429E-01  0.62620178482E-01  0.55263390585E-01  0.84722549428E-01  0.51100000000E-03 0. -1.
</event>
<event>
 8    1  0.1183092E+005  0.1043930E+01  0.7957747E-01            NaN
         13   -1    0    0    0    0  0.00000000000E+00  0.00000000000E+00  0.74505805969E-08  0.10566000000E+00  0.10566000000E+00 0. -1.
     999900   -1    0    0    0    0 -0.00000000000E+00 -0.00000000000E+00 -0.74505805969E-08  0.93827000000E+00  0.93827000000E+00 0.  1.
     999902    2    1    2    0    0 -0.45807968431E-02  0.92229829371E-02  0.21626121299E-01  0.10199772082E+01  0.10196959198E+01 0.  0.
     999903    2    3    3    0    0 -0.83394302710E-01 -0.60153344787E-01  0.80664090394E-01  0.13177108043E+00  0.16848962757E-01 0.  0.
         14    1    1    2    0    0  0.45807968431E-02 -0.92229829371E-02 -0.21626121299E-01  0.23952791829E-01  0.00000000000E+00 0.  1.
     999901    1    3    3    0    0  0.78813505867E-01  0.69376327724E-01 -0.59037969095E-01  0.88820612774E+00  0.88000000000E+00 0.  1.
        -11    1    4    4    0    0 -0.46774867296E-01 -0.29875470927E-01  0.33553922712E-01  0.64857989670E-01  0.51100000000E-03 0.  1.
         11    1    4    4    0    0 -0.36619435414E-01 -0.30277873860E-01  0.47110167682E-01  0.66913090763E-01  0.51100000000E-03 0. -1.
</event>
<event>
 8    1  0.1183092E+005  0.1043930E+01  0.7957747E-01            NaN
         13   -1    0    0    0    0  0.00000000000E+00  0.00000000000E+00  0.74505805969E-08  0.10566000000E+00  0.10566000000E+00 0.  1.
     999900   -1    0    0    0    0 -0.00000000000E+00 -0.00000000000E+00 -0.74505805969E-08  0.93827000000E+00  0.93827000000E+00 0. -1.
     999902    2    1    2    0    0  0.22724468539E-01  0.61385987059E-02 -0.12358796365E-02  0.10203585923E+01  0.10200862932E+01 0.  0.
     999903    2    3    3    0    0  0.11769383593E+00  0.47322440848E-01 -0.37094731259E-01  0.13356597454E+00  0.19302798869E-01 0.  0.
         14    1    1    2    0    0 -0.22724468539E-01 -0.61385987059E-02  0.12358796365E-02  0.23571407742E-01  0.00000000000E+00 0. -1.
     999901    1    3    3    0    0 -0.94969367392E-01 -0.41183842142E-01  0.35858851622E-01  0.88679261772E+00  0.88000000000E+00 0.  1.
        -11    1    4    4    0    0  0.80383666116E-01  0.25340065739E-01 -0.17745392046E-01  0.86132530264E-01  0.51100000000E-03 0.  1.
         11    1    4    4    0    0  0.37310169816E-01  0.21982375109E-01 -0.19349339212E-01  0.47433444278E-01  0.51100000000E-03 0. -1.
</event>
<event>
 8    1  0.1183092E+005  0.1043930E+01  0.7957747E-01            NaN
         13   -1    0    0    0    0  0.00000000000E+00  0.00000000000E+00  0.74505805969E-08  0.10566000000E+00  0.10566000000E+00 0.  1.
     999900   -1    0    0    0    0 -0.00000000000E+00 -0.00000000000E+00 -0.74505805969E-08  0.93827000000E+00  0.93827000000E+00 0. -1.
     999902    2    1    2    0    0 -0.14519860237E-01 -0.13873414936E-01 -0.12765779934E-01  0.10201337162E+01  0.10198561349E+01 0.  0.
     999903    2    3    3    0    0  0.23570140573E-01  0.72886513914E-01  0.10039027952E+00  0.12784316535E+00  0.19941696752E-01 0.  0.
         14    1    1    2    0    0  0.14519860237E-01  0.13873414936E-01  0.12765779934E-01  0.23796283757E-01  0.00000000000E+00 0. -1.
     999901    1    3    3    0    0 -0.38090000811E-01 -0.86759928850E-01 -0.11315605945E+00  0.89229055089E+00  0.88000000000E+00 0. -1.
        -11    1    4    4    0    0  0.14291621033E-01  0.38973920291E-01  0.38277931136E-01  0.56468380778E-01  0.51100000000E-03 0.  1.
         11    1    4    4    0    0  0.92785195401E-02  0.33912593623E-01  0.62112348379E-01  0.71374784576E-01  0.51100000000E-03 0. -1.
</event>
<event>
 8    1  0.1183092E+005  0.1043930E+01  0.7957747E-01            NaN
         13   -1    0    0    0    0  0.00000000000E+00  0.00000000000E+00  0.74505805969E-08  0.10566000000E+00  0.10566000000E+00 0.  1.
     999900   -1    0    0    0    0 -0.00000000000E+00 -0.00000000000E+00 -0.74505805969E-08  0.93827000000E+00  0.93827000000E+00 0. -1.
     999902    2    1    2    0    0 -0.73116282992E-02  0.16103290418E-01  0.14569905521E-01  0.10210158555E+01  0.10207586978E+01 0.  0.
     999903    2    3    3    0    0 -0.11660586715E+00 -0.47205698936E-01  0.33864369271E-01  0.13178836206E+00  0.19901522623E-01 0.  0.
         14    1    1    2    0    0  0.73116282992E-02 -0.16103290418E-01 -0.14569905521E-01  0.22914144487E-01  0.00000000000E+00 0. -1.
     999901    1    3    3    0    0  0.10929423885E+00  0.63308989354E-01 -0.19294463749E-01  0.88922749345E+00  0.88000000000E+00 0. -1.
        -11    1    4    4    0    0 -0.35222889767E-01 -0.10214296886E-01  0.14831090974E-02  0.36707554509E-01  0.51100000000E-03 0.  1.
         11    1    4    4    0    0 -0.81382977383E-01 -0.36991402050E-01  0.32381260173E-01  0.95080807552E-01  0.51100000000E-03 0. -1.
</event>
<event>
 8    1  0.1183092E+005  0.1043930E+01  0.7957747E-01            NaN
         13   -1    0    0    0    0  0.00000000000E+00  0.00000000000E+00  0.74505805969E-08  0.10566000000E+00  0.10566000000E+00 0.  1.
     999900   -1    0    0    0    0 -0.00000000000E+00 -0.00000000000E+00 -0.74505805969E-08  0.93827000000E+00  0.93827000000E+00 0.  1.
     999902    2    1    2    0    0  0.20138468788E-01 -0.11108344326E-01  0.39186462041E-02  0.10205995687E+01  0.10203328724E+01 0.  0.
     999903    2    3    3    0    0 -0.11937022497E+00  0.32548806561E-01 -0.25145227197E-01  0.12806759096E+00  0.21455768146E-01 0.  0.
         14    1    1    2    0    0 -0.20138468788E-01  0.11108344326E-01 -0.39186462041E-02  0.23330431348E-01  0.00000000000E+00 0.  1.
     999901    1    3    3    0    0  0.13950869376E+00 -0.43657150887E-01  0.29063873401E-01  0.89253197769E+00  0.88000000000E+00 0. -1.
        -11    1    4    4    0    0 -0.37195659037E-01  0.18262622525E-01 -0.14874017037E-01  0.44028830742E-01  0.51100000000E-03 0.  1.
         11    1    4    4    0    0 -0.82174565934E-01  0.14286184036E-01 -0.10271210160E-01  0.84038760223E-01  0.51100000000E-03 0. -1.
</event>
<event>
 8    1  0.1183092E+005  0.1043930E+01  0.7957747E-01            NaN
         13   -1    0    0    0    0  0.00000000000E+00  0.00000000000E+00  0.74505805969E-08  0.10566000000E+00  0.10566000000E+00 0.  1.
     999900   -1    0    0    0    0 -0.00000000000E+00 -0.00000000000E+00 -0.74505805969E-08  0.93827000000E+00  0.93827000000E+00 0.  1.
     999902    2    1    2    0    0 -0.20626108229E-01  0.10122553733E-01 -0.76700585348E-02  0.10197074437E+01  0.10194197068E+01 0.  0.
     999903    2    3    3    0    0  0.16999185427E-01 -0.12366058504E+00  0.21966974327E-01  0.12830857416E+00  0.19990738922E-01 0.  0.
         14    1    1    2    0    0  0.20626108229E-01 -0.10122553733E-01  0.76700585348E-02  0.24222556279E-01  0.00000000000E+00 0. -1.
     999901    1    3    3    0    0 -0.37625293656E-01  0.13378313878E+00 -0.29637032862E-01  0.89139886956E+00  0.88000000000E+00 0.  1.
        -11    1    4    4    0    0  0.21531578658E-01 -0.96887260271E-01  0.16893455207E-01  0.10067969027E+00  0.51100000000E-03 0. -1.
         11    1    4    4    0    0 -0.45323932312E-02 -0.26773324773E-01  0.50735191199E-02  0.27628883891E-01  0.51100000000E-03 0.  1.
</event>
<event>
 8    1  0.1183092E+005  0.1043930E+01  0.7957747E-01            NaN
         13   -1    0    0    0    0  0.00000000000E+00  0.00000000000E+00  0.74505805969E-08  0.10566000000E+00  0.10566000000E+00 0.  1.
     999900   -1    0    0    0    0 -0.00000000000E+00 -0.00000000000E+00 -0.74505805969E-08  0.93827000000E+00  0.93827000000E+00 0. -1.
     999902    2    1    2    0    0  0.40037152264E-02  0.21708462354E-01  0.74479805517E-02  0.10206328009E+01  0.10203668726E+01 0.  0.
     999903    2    3    3    0    0  0.41635906961E-01 -0.11676116615E+00  0.29902860768E-01  0.12872796204E+00  0.17606489106E-01 0.  0.
         14    1    1    2    0    0 -0.40037152264E-02 -0.21708462354E-01 -0.74479805517E-02  0.23297199138E-01  0.00000000000E+00 0. -1.
     999901    1    3    3    0    0 -0.37632191735E-01  0.13846962851E+00 -0.22454880216E-01  0.89190483882E+00  0.88000000000E+00 0. -1.
        -11    1    4    4    0    0  0.25580401580E-01 -0.49484938130E-01  0.86965357827E-02  0.56382682646E-01  0.51100000000E-03 0.  1.
         11    1    4    4    0    0  0.16055505381E-01 -0.67276228021E-01  0.21206324985E-01  0.72345279391E-01  0.51100000000E-03 0. -1.
</event>
<event>
 8    1  0.1183092E+005  0.1043930E+01  0.7957747E-01            NaN
         13   -1    0    0    0    0  0.00000000000E+00  0.00000000000E+00  0.74505805969E-08  0.10566000000E+00  0.10566000000E+00 0.  1.
     999900   -1    0    0    0    0 -0.00000000000E+00 -0.00000000000E+00 -0.74505805969E-08  0.93827000000E+00  0.93827000000E+00 0.  1.
     999902    2    1    2    0    0 -0.14759292193E-02 -0.22347460725E-01 -0.73408946355E-02  0.10203614595E+01  0.10200892274E+01 0.  0.
     999903    2    3    3    0    0 -0.13403540302E-01  0.41084058479E-01  0.11988657293E+00  0.12887245000E+00  0.19177154233E-01 0.  0.
         14    1    1    2    0    0  0.14759292193E-02  0.22347460725E-01  0.73408946355E-02  0.23568540514E-01  0.00000000000E+00 0.  1.
     999901    1    3    3    0    0  0.11927611083E-01 -0.63431519204E-01 -0.12722746757E+00  0.89148900949E+00  0.88000000000E+00 0. -1.
        -11    1    4    4    0    0 -0.65900919215E-02  0.30950833650E-01  0.10470024380E+00  0.10937909118E+00  0.51100000000E-03 0.  1.
         11    1    4    4    0    0 -0.68134483806E-02  0.10133224829E-01  0.15186329134E-01  0.19493358813E-01  0.51100000000E-03 0. -1.
</event>
<event>
 8    1  0.1183092E+005  0.1043930E+01  0.7957747E-01            NaN
         13   -1    0    0    0    0  0.00000000000E+00  0.00000000000E+00  0.74505805969E-08  0.10566000000E+00  0.10566000000E+00 0. -1.
     999900   -1    0    0    0    0 -0.00000000000E+00 -0.00000000000E+00 -0.74505805969E-08  0.93827000000E+00  0.93827000000E+00 0.  1.
     999902    2    1    2    0    0  0.17335196742E-01  0.15907477028E-01  0.37100848518E-03  0.10203992856E+01  0.10201279369E+01 0.  0.
     999903    2    3    3    0    0  0.63846004421E-01  0.74895035453E-01 -0.87095715186E-01  0.13287846050E+00  0.19632703490E-01 0.  0.
         14    1    1    2    0    0 -0.17335196742E-01 -0.15907477028E-01 -0.37100848518E-03  0.23530714371E-01  0.00000000000E+00 0. -1.
     999901    1    3    3    0    0 -0.46510807679E-01 -0.58987558425E-01  0.87466723671E-01  0.88752082512E+00  0.88000000000E+00 0. -1.
        -11    1    4    4    0    0  0.34964539156E-02  0.93823329058E-02 -0.16125683770E-01  0.18988211047E-01  0.51100000000E-03 0.  1.
         11    1    4    4    0    0  0.60349550505E-01  0.65512702547E-01 -0.70970031416E-01  0.11389024946E+00  0.51100000000E-03 0. -1.
</event>
<event>
 8    1  0.1183092E+005  0.1043930E+01  0.7957747E-01            NaN
         13   -1    0    0    0    0  0.00000000000E+00  0.00000000000E+00  0.74505805969E-08  0.10566000000E+00  0.10566000000E+00 0. -1.
     999900   -1    0    0    0    0 -0.00000000000E+00 -0.00000000000E+00 -0.74505805969E-08  0.93827000000E+00  0.93827000000E+00 0.  1.
     999902    2    1    2    0    0 -0.27146552792E-02 -0.80125722974E-02 -0.21783162004E-01  0.10205617135E+01  0.10202941410E+01 0.  0.
     999903    2    3    3    0    0  0.66102903345E-02  0.12740826132E+00  0.95770524279E-02  0.12960199506E+00  0.20697734181E-01 0.  0.
         14    1    1    2    0    0  0.27146552792E-02  0.80125722974E-02  0.21783162004E-01  0.23368286523E-01  0.00000000000E+00 0. -1.
     999901    1    3    3    0    0 -0.93249456137E-02 -0.13542083362E+00 -0.31360214432E-01  0.89095971841E+00  0.88000000000E+00 0. -1.
        -11    1    4    4    0    0  0.11529360355E-01  0.89670284350E-01  0.13203697491E-01  0.91368948741E-01  0.51100000000E-03 0.  1.
         11    1    4    4    0    0 -0.49190700203E-02  0.37737976969E-01 -0.36266450629E-02  0.38233046322E-01  0.51100000000E-03 0. -1.
</event>
<event>
 8    1  0.1183092E+005  0.1043930E+01  0.7957747E-01            NaN
         13   -1    0    0    0    0  0.00000000000E+00  0.00000000000E+00  0.74505805969E-08  0.10566000000E+00  0.10566000000E+00 0.  1.
     999900   -1    0    0    0    0 -0.00000000000E+00 -0.00000000000E+00 -0.74505805969E-08  0.93827000000E+00  0.93827000000E+00 0.  1.
     999902    2    1    2    0    0  0.61134203290E-03  0.26863864539E-01  0.92771678910E-02  0.10155027806E+01  0.10151048176E+01 0.  0.
     999903    2    3    3    0    0 -0.31670225532E-01 -0.11245139388E+00 -0.34210314194E-01  0.12289872399E+00  0.16894720789E-01 0.  0.
         14    1    1    2    0    0 -0.61134203290E-03 -0.26863864539E-01 -0.92771678910E-02  0.28427219371E-01  0.00000000000E+00 0.  1.
     999901    1    3    3    0    0  0.32281567565E-01  0.13931525842E+00  0.43487482085E-01  0.89260405664E+00  0.88000000000E+00 0. -1.
        -11    1    4    4    0    0 -0.69984676192E-02 -0.38189548910E-01 -0.18802165187E-01  0.43141658889E-01  0.51100000000E-03 0. -1.
         11    1    4    4    0    0 -0.24671757913E-01 -0.74261844968E-01 -0.15408149007E-01  0.79757065100E-01  0.51100000000E-03 0.  1.
</event>
<event>
 8    1  0.1183092E+005  0.1043930E+01  0.7957747E-01            NaN
         13   -1    0    0    0    0  0.00000000000E+00  0.00000000000E+00  0.74505805969E-08  0.10566000000E+00  0.10566000000E+00 0. -1.
     999900   -1    0    0    0    0 -0.00000000000E+00 -0.00000000000E+00 -0.74505805969E-08  0.93827000000E+00  0.93827000000E+00 0. -1.
     999902    2    1    2    0    0 -0.79150653007E-02 -0.11490049316E-01 -0.19390866097E-01  0.10200411913E+01  0.10197614215E+01 0.  0.
     999903    2    3    3    0    0 -0.94878966595E-01  0.29128546159E-01  0.80390856050E-01  0.12921630253E+00  0.19587562334E-01 0.  0.
         14    1    1    2    0    0  0.79150653007E-02  0.11490049316E-01  0.19390866097E-01  0.23888808677E-01  0.00000000000E+00 0. -1.
     999901    1    3    3    0    0  0.86963901295E-01 -0.40618595475E-01 -0.99781722148E-01  0.89082488880E+00  0.88000000000E+00 0. -1.
        -11    1    4    4    0    0 -0.24626213226E-01  0.43059212551E-02  0.30974644284E-01  0.39808052518E-01  0.51100000000E-03 0.  1.
         11    1    4    4    0    0 -0.70252753369E-01  0.24822624904E-01  0.49416211766E-01  0.89408250007E-01  0.51100000000E-03 0. -1.
</event>
<event>
 8    1  0.1183092E+005  0.1043930E+01  0.7957747E-01            NaN
         13   -1    0    0    0    0  0.00000000000E+00  0.00000000000E+00  0.74505805969E-08  0.10566000000E+00  0.10566000000E+00 0. -1.
     999900   -1    0    0    0    0 -0.00000000000E+00 -0.00000000000E+00 -0.74505805969E-08  0.93827000000E+00  0.93827000000E+00 0. -1.
     999902    2    1    2    0    0 -0.68056357366E-03  0.24662316609E-01  0.31520240973E-02  0.10190577608E+01  0.10187541860E+01 0.  0.
     999903    2    3    3    0    0 -0.69509583245E-02  0.12716831584E+00 -0.30597246942E-01  0.13244295659E+00  0.19617564983E-01 0.  0.
         14    1    1    2    0    0  0.68056357366E-03 -0.24662316609E-01 -0.31520240973E-02  0.24872239208E-01  0.00000000000E+00 0. -1.
     999901    1    3    3    0    0  0.62703947508E-02 -0.10250599923E+00  0.33749271039E-01  0.88661480420E+00  0.88000000000E+00 0.  1.
        -11    1    4    4    0    0  0.33785015572E-02  0.80022731175E-01 -0.24698536597E-01  0.83817245293E-01  0.51100000000E-03 0.  1.
         11    1    4    4    0    0 -0.10329459882E-01  0.47145584663E-01 -0.58987103453E-02  0.48625711300E-01  0.51100000000E-03 0. -1.
</event>
<event>
 8    1  0.1183092E+005  0.1043930E+01  0.7957747E-01            NaN
         13   -1    0    0    0    0  0.00000000000E+00  0.00000000000E+00  0.74505805969E-08  0.10566000000E+00  0.10566000000E+00 0.  1.
     999900   -1    0    0    0    0 -0.00000000000E+00 -0.00000000000E+00 -0.74505805969E-08  0.93827000000E+00  0.93827000000E+00 0. -1.
     999902    2    1    2    0    0  0.54415623292E-03 -0.15197058367E-01 -0.18669331057E-01  0.10198511584E+01  0.10195668662E+01 0.  0.
     999903    2    3    3    0    0  0.71510020109E-01 -0.61204041409E-01  0.86404536062E-01  0.12957405895E+00  0.21542405592E-01 0.  0.
         14    1    1    2    0    0 -0.54415623292E-03  0.15197058367E-01  0.18669331057E-01  0.24078841565E-01  0.00000000000E+00 0.  1.
     999901    1    3    3    0    0 -0.70965863876E-01  0.46006983042E-01 -0.10507386712E+00  0.89027709949E+00  0.88000000000E+00 0. -1.
        -11    1    4    4    0    0  0.28375264680E-01 -0.38427739005E-01  0.43497761180E-01  0.64607763615E-01  0.51100000000E-03 0.  1.
         11    1    4    4    0    0  0.43134755430E-01 -0.22776302403E-01  0.42906774881E-01  0.64966295330E-01  0.51100000000E-03 0. -1.
</event>
<event>
 8    1  0.1183092E+005  0.1043930E+01  0.7957747E-01            NaN
         13   -1    0    0    0    0  0.00000000000E+00  0.00000000000E+00  0.74505805969E-08  0.10566000000E+00  0.10566000000E+00 0. -1.
     999900   -1    0    0    0    0 -0.00000000000E+00 -0.00000000000E+00 -0.74505805969E-08  0.93827000000E+00  0.93827000000E+00 0. -1.
     999902    2    1    2    0    0 -0.86042819042E-02 -0.55598150467E-02 -0.21287425816E-01  0.10203058660E+01  0.10200323330E+01 0.  0.
     999903    2    3    3    0    0 -0.50375087496E-01 -0.46857459671E-01  0.10735978361E+00  0.12901444330E+00  0.19629887265E-01 0.  0.
         14    1    1    2    0    0  0.86042819042E-02  0.55598150467E-02  0.21287425816E-01  0.23624134023E-01  0.00000000000E+00 0. -1.
     999901    1    3    3    0    0  0.41770805592E-01  0.41297644624E-01 -0.12864720943E+00  0.89129142268E+00  0.88000000000E+00 0. -1.
        -11    1    4    4    0    0 -0.39889738351E-01 -0.33047480492E-01  0.64165302794E-01  0.82466807846E-01  0.51100000000E-03 0.  1.
         11    1    4    4    0    0 -0.10485349145E-01 -0.13809979179E-01  0.43194480821E-01  0.46547635450E-01  0.51100000000E-03 0. -1.
</event>
<event>
 8    1  0.1183092E+005  0.1043930E+01  0.7957747E-01            NaN
         13   -1    0    0    0    0  0.00000000000E+00  0.00000000000E+00  0.74505805969E-08  0.10566000000E+00  0.10566000000E+00 0. -1.
     999900   -1    0    0    0    0 -0.00000000000E+00 -0.00000000000E+00 -0.74505805969E-08  0.93827000000E+00  0.93827000000E+00 0.  1.
     999902    2    1    2    0    0  0.54187919527E-02  0.34518274542E-02 -0.23441053672E-01  0.10196244159E+01  0.10193346792E+01 0.  0.
     999903    2    3    3    0    0  0.70453828934E-01 -0.91096037731E-01  0.54703292260E-01  0.12873980296E+00  0.17867752549E-01 0.  0.
         14    1    1    2    0    0 -0.54187919527E-02 -0.34518274542E-02  0.23441053672E-01  0.24305584055E-01  0.00000000000E+00 0. -1.
     999901    1    3    3    0    0 -0.65035036981E-01  0.94547865185E-01 -0.78144345933E-01  0.89088461298E+00  0.88000000000E+00 0.  1.
        -11    1    4    4    0    0  0.61188435144E-01 -0.71004973155E-01  0.38599092210E-01  0.10137002441E+00  0.51100000000E-03 0. -1.
         11    1    4    4    0    0  0.92653937896E-02 -0.20091064576E-01  0.16104200050E-01  0.27369778555E-01  0.51100000000E-03 0.  1.
</event>
<event>
 8    1  0.1183092E+005  0.1043930E+01  0.7957747E-01            NaN
         13   -1    0    0    0    0  0.00000000000E+00  0.00000000000E+00  0.74505805969E-08  0.10566000000E+00  0.10566000000E+00 0. -1.
     999900   -1    0    0    0    0 -0.00000000000E+00 -0.00000000000E+00 -0.74505805969E-08  0.93827000000E+00  0.93827000000E+00 0. -1.
     999902    2    1    2    0    0 -0.48140546827E-02  0.11750174231E-01  0.13146555904E-02  0.10311640282E+01  0.10310850028E+01 0.  0.
     999903    2    3    3    0    0  0.92919803211E-01  0.65937915081E-01 -0.79439561695E-01  0.14042867925E+00  0.20680220508E-01 0.  0.
         14    1    1    2    0    0  0.48140546827E-02 -0.11750174231E-01 -0.13146555904E-02  0.12765971810E-01  0.00000000000E+00 0.  1.
     999901    1    3    3    0    0 -0.97733857894E-01 -0.54187740850E-01  0.80754217285E-01  0.89073534894E+00  0.88000000000E+00 0.  1.
        -11    1    4    4    0    0  0.32386091225E-01  0.34740940824E-01 -0.36724545371E-01  0.60039530543E-01  0.51100000000E-03 0. -1.
         11    1    4    4    0    0  0.60533711986E-01  0.31196974258E-01 -0.42715016324E-01  0.80389148709E-01  0.51100000000E-03 0.  1.
</event>
<event>
 8    1  0.1183092E+005  0.1043930E+01  0.7957747E-01            NaN
         13   -1    0    0    0    0  0.00000000000E+00  0.00000000000E+00  0.74505805969E-08  0.10566000000E+00  0.10566000000E+00 0. -1.
     999900   -1    0    0    0    0 -0.00000000000E+00 -0.00000000000E+00 -0.74505805969E-08  0.93827000000E+00  0.93827000000E+00 0. -1.
     999902    2    1    2    0    0 -0.99594676482E-03  0.22326249655E-01  0.91783995873E-02  0.10197701914E+01  0.10194839611E+01 0.  0.
     999903    2    3    3    0    0 -0.35641468898E-01 -0.51871269827E-02  0.12489648424E+00  0.13109253710E+00  0.16997085521E-01 0.  0.
         14    1    1    2    0    0  0.99594676482E-03 -0.22326249655E-01 -0.91783995873E-02  0.24159808621E-01  0.00000000000E+00 0.  1.
     999901    1    3    3    0    0  0.34645522133E-01  0.27513376638E-01 -0.11571808465E+00  0.88867765428E+00  0.88000000000E+00 0. -1.
        -11    1    4    4    0    0 -0.11527105784E-01 -0.10384621252E-04  0.69503063352E-01  0.70454320038E-01  0.51100000000E-03 0. -1.
         11    1    4    4    0    0 -0.24114363114E-01 -0.51767423615E-02  0.55393420888E-01  0.60638217063E-01  0.51100000000E-03 0.  1.
</event>
<event>
 8    1  0.1183092E+005  0.1043930E+01  0.7957747E-01            NaN
         13   -1    0    0    0    0  0.00000000000E+00  0.00000000000E+00  0.74505805969E-08  0.10566000000E+00  0.10566000000E+00 0.  1.
     999900   -1    0    0    0    0 -0.00000000000E+00 -0.00000000000E+00 -0.74505805969E-08  0.93827000000E+00  0.93827000000E+00 0. -1.
     999902    2    1    2    0    0  0.14762723804E-01  0.15739487206E-01 -0.12040559555E-01  0.10192187769E+01  0.10189191679E+01 0.  0.
     999903    2    3    3    0    0  0.36192718014E-02 -0.95872766047E-01 -0.83670050149E-01  0.12921189182E+00  0.22143832071E-01 0.  0.
         14    1    1    2    0    0 -0.14762723804E-01 -0.15739487206E-01  0.12040559555E-01  0.24711223078E-01  0.00000000000E+00 0. -1.
     999901    1    3    3    0    0  0.11143452003E-01  0.11161225325E+00  0.71629490594E-01  0.89000688510E+00  0.88000000000E+00 0.  1.
        -11    1    4    4    0    0 -0.76139735359E-02 -0.16086046919E-01 -0.13134519743E-01  0.22124878042E-01  0.51100000000E-03 0. -1.
         11    1    4    4    0    0  0.11233245337E-01 -0.79786719128E-01 -0.70535530406E-01  0.10708701378E+00  0.51100000000E-03 0.  1.
</event>
<event>
 8    1  0.1183092E+005  0.1043930E+01  0.7957747E-01            NaN
         13   -1    0    0    0    0  0.00000000000E+00  0.00000000000E+00  0.74505805969E-08  0.10566000000E+00  0.10566000000E+00 0.  1.
     999900   -1    0    0    0    0 -0.00000000000E+00 -0.00000000000E+00 -0.74505805969E-08  0.93827000000E+00  0.93827000000E+00 0. -1.
     999902    2    1    2    0    0 -0.21599050165E-01  0.92305878127E-02 -0.15681992635E-02  0.10203889302E+01  0.10201173398E+01 0.  0.
     999903    2    3    3    0    0 -0.63478129521E-01 -0.10507554415E+00 -0.41310321870E-01  0.13112002518E+00  0.20385666625E-01 0.  0.
         14    1    1    2    0    0  0.21599050165E-01 -0.92305878127E-02  0.15681992635E-02  0.23541069821E-01  0.00000000000E+00 0. -1.
     999901    1    3    3    0    0  0.41879079356E-01  0.11430613196E+00  0.39742122606E-01  0.88926890500E+00  0.88000000000E+00 0.  1.
        -11    1    4    4    0    0 -0.29748869232E-01 -0.40634379885E-01 -0.26431682373E-01  0.56877438438E-01  0.51100000000E-03 0. -1.
         11    1    4    4    0    0 -0.33729260289E-01 -0.64441164266E-01 -0.14878639496E-01  0.74242586740E-01  0.51100000000E-03 0.  1.
</event>
<event>
 8    1  0.1183092E+005  0.1043930E+01  0.7957747E-01            NaN
         13   -1    0    0    0    0  0.00000000000E+00  0.00000000000E+00  0.74505805969E-08  0.10566000000E+00  0.10566000000E+00 0.  1.
     999900   -1    0    0    0    0 -0.00000000000E+00 -0.00000000000E+00 -0.74505805969E-08  0.93827000000E+00  0.93827000000E+00 0. -1.
     999902    2    1    2    0    0  0.99168099181E-02 -0.21769761546E-01  0.30107349491E-02  0.10198192107E+01  0.10195341546E+01 0.  0.
     999903    2    3    3    0    0  0.55979000503E-01 -0.11038281570E+00 -0.40221204247E-01  0.13311576570E+00  0.28000844799E-01 0.  0.
         14    1    1    2    0    0 -0.99168099181E-02  0.21769761546E-01 -0.30107349491E-02  0.24110789320E-01  0.00000000000E+00 0.  1.
     999901    1    3    3    0    0 -0.46062190585E-01  0.88613054150E-01  0.43231939196E-01  0.88670344498E+00  0.88000000000E+00 0.  1.
        -11    1    4    4    0    0  0.41503337818E-01 -0.52760112625E-01 -0.26251662928E-01  0.72080284834E-01  0.51100000000E-03 0. -1.
         11    1    4    4    0    0  0.14475662685E-01 -0.57622703070E-01 -0.13969541320E-01  0.61035480869E-01  0.51100000000E-03 0.  1.
</event>
<event>
 8    1  0.1183092E+005  0.1043930E+01  0.7957747E-01            NaN
         13   -1    0    0    0    0  0.00000000000E+00  0.00000000000E+00  0.74505805969E-08  0.10566000000E+00  0.10566000000E+00 0. -1.
     999900   -1    0    0    0    0 -0.00000000000E+00 -0.00000000000E+00 -0.74505805969E-08  0.93827000000E+00  0.93827000000E+00 0. -1.
     999902    2    1    2    0    0 -0.74250680538E-02 -0.21406849949E-01 -0.23080013490E-02  0.10211547562E+01  0.10209007417E+01 0.  0.
     999903    2    3    3    0    0  0.41466313826E-01  0.11695742232E+00  0.26179049328E-01  0.12854815129E+00  0.20995017425E-01 0.  0.
         14    1    1    2    0    0  0.74250680538E-02  0.21406849949E-01  0.23080013490E-02  0.22775243809E-01  0.00000000000E+00 0. -1.
     999901    1    3    3    0    0 -0.48891381880E-01 -0.13836427227E+00 -0.28487050677E-01  0.89260660490E+00  0.88000000000E+00 0.  1.
        -11    1    4    4    0    0  0.33411355872E-01  0.82023993976E-01  0.27286878931E-01  0.92677339042E-01  0.51100000000E-03 0. -1.
         11    1    4    4    0    0  0.80549579543E-02  0.34933428346E-01 -0.11078296026E-02  0.35870812244E-01  0.51100000000E-03 0.  1.
</event>
<event>
 8    1  0.1183092E+005  0.1043930E+01  0.7957747E-01            NaN
         13   -1    0    0    0    0  0.00000000000E+00  0.00000000000E+00  0.74505805969E-08  0.10566000000E+00  0.10566000000E+00 0.  1.
     999900   -1    0    0    0    0 -0.00000000000E+00 -0.00000000000E+00 -0.74505805969E-08  0.93827000000E+00  0.93827000000E+00 0. -1.
     999902    2    1    2    0    0 -0.12966476945E-01  0.16227732417E-01  0.11554893173E-01  0.10201605999E+01  0.10198836528E+01 0.  0.
     999903    2    3    3    0    0 -0.77879027547E-02 -0.61544024025E-01  0.11349712608E+00  0.13085329501E+00  0.19815874028E-01 0.  0.
         14    1    1    2    0    0  0.12966476945E-01 -0.16227732417E-01 -0.11554893173E-01  0.23769400077E-01  0.00000000000E+00 0. -1.
     999901    1    3    3    0    0 -0.51785741901E-02  0.77771756443E-01 -0.10194223290E+00  0.88930730492E+00  0.88000000000E+00 0. -1.
        -11    1    4    4    0    0 -0.64387301568E-02 -0.63382324354E-02  0.96108378766E-02  0.13200748544E-01  0.51100000000E-03 0. -1.
         11    1    4    4    0    0 -0.13491725979E-02 -0.55205791590E-01  0.10388628820E+00  0.11765254646E+00  0.51100000000E-03 0.  1.
</event>
<event>
 8    1  0.1183092E+005  0.1043930E+01  0.7957747E-01            NaN
         13   -1    0    0    0    0  0.00000000000E+00  0.00000000000E+00  0.74505805969E-08  0.10566000000E+00  0.10566000000E+00 0. -1.
     999900   -1    0    0    0    0 -0.00000000000E+00 -0.00000000000E+00 -0.74505805969E-08  0.93827000000E+00  0.93827000000E+00 0. -1.
     999902    2    1    2    0    0 -0.40635399027E-02  0.10170707459E-01  0.21169673498E-01  0.10200949266E+01  0.10198164289E+01 0.  0.
     999903    2    3    3    0    0 -0.97773514577E-01  0.27819847178E-01  0.83067721812E-01  0.13278189287E+00  0.19929390792E-01 0.  0.
         14    1    1    2    0    0  0.40635399027E-02 -0.10170707459E-01 -0.21169673498E-01  0.23835073375E-01  0.00000000000E+00 0.  1.
     999901    1    3    3    0    0  0.93709974675E-01 -0.17649139719E-01 -0.61898048314E-01  0.88731303375E+00  0.88000000000E+00 0. -1.
        -11    1    4    4    0    0 -0.39014298991E-01  0.15768380810E-01  0.23295399614E-01  0.48100874455E-01  0.51100000000E-03 0.  1.
         11    1    4    4    0    0 -0.58759215586E-01  0.12051466368E-01  0.59772322198E-01  0.84681018415E-01  0.51100000000E-03 0. -1.
</event>
<event>
 8    1  0.1183092E+005  0.1043930E+01  0.7957747E-01            NaN
         13   -1    0    0    0    0  0.00000000000E+00  0.00000000000E+00  0.74505805969E-08  0.10566000000E+00  0.10566000000E+00 0. -1.
     999900   -1    0    0    0    0 -0.00000000000E+00 -0.00000000000E+00 -0.74505805969E-08  0.93827000000E+00  0.93827000000E+00 0.  1.
     999902    2    1    2    0    0 -0.36932465715E-02  0.16992142895E-01 -0.57156152697E-02  0.10256258680E+01  0.10254625200E+01 0.  0.
     999903    2    3    3    0    0 -0.11131365619E+00  0.33321005452E-01  0.68304617254E-01  0.13583500541E+00  0.16870343738E-01 0.  0.
         14    1    1    2    0    0  0.36932465715E-02 -0.16992142895E-01  0.57156152697E-02  0.18304132001E-01  0.00000000000E+00 0. -1.
     999901    1    3    3    0    0  0.10762040962E+00 -0.16328862557E-01 -0.74020232524E-01  0.88979086259E+00  0.88000000000E+00 0.  1.
        -11    1    4    4    0    0 -0.78854467548E-01  0.16819743605E-01  0.42009654916E-01  0.90917561858E-01  0.51100000000E-03 0.  1.
         11    1    4    4    0    0 -0.32459188646E-01  0.16501261847E-01  0.26294962338E-01  0.44917443554E-01  0.51100000000E-03 0. -1.
</event>
<event>
 8    1  0.1183092E+005  0.1043930E+01  0.7957747E-01            NaN
         13   -1    0    0    0    0  0.00000000000E+00  0.00000000000E+00  0.74505805969E-08  0.10566000000E+00  0.10566000000E+00 0. -1.
     999900   -1    0    0    0    0 -0.00000000000E+00 -0.00000000000E+00 -0.74505805969E-08  0.93827000000E+00  0.93827000000E+00 0.  1.
     999902    2    1    2    0    0  0.17662092717E-01 -0.12968118874E-01  0.22535766593E-02  0.10219027388E+01  0.10216653109E+01 0.  0.
     999903    2    3    3    0    0  0.83400305445E-01 -0.10368806097E+00  0.37477084305E-02  0.13479854376E+00  0.21207950046E-01 0.  0.
         14    1    1    2    0    0 -0.17662092717E-01  0.12968118874E-01 -0.22535766593E-02  0.22027261156E-01  0.00000000000E+00 0. -1.
     999901    1    3    3    0    0 -0.65738212728E-01  0.90719942096E-01 -0.14941317712E-02  0.88710419508E+00  0.88000000000E+00 0. -1.
        -11    1    4    4    0    0  0.20588448700E-01 -0.33907053971E-01 -0.70445785882E-02  0.40292179605E-01  0.51100000000E-03 0. -1.
         11    1    4    4    0    0  0.62811856745E-01 -0.69781007000E-01  0.10792287019E-01  0.94506364155E-01  0.51100000000E-03 0.  1.
</event>
<event>
 8    1  0.1183092E+005  0.1043930E+01  0.7957747E-01            NaN
         13   -1    0    0    0    0  0.00000000000E+00  0.00000000000E+00  0.74505805969E-08  0.10566000000E+00  0.10566000000E+00 0. -1.
     999900   -1    0    0    0    0 -0.00000000000E+00 -0.00000000000E+00 -0.74505805969E-08  0.93827000000E+00  0.93827000000E+00 0. -1.
     999902    2    1    2    0    0 -0.11398648659E-01 -0.19668392789E-01  0.55255664427E-02  0.10205354119E+01  0.10202672298E+01 0.  0.
     999903    2    3    3    0    0 -0.15910078123E-01 -0.69894658021E-01 -0.10853388740E+00  0.13174264097E+00  0.20931433993E-01 0.  0.
         14    1    1    2    0    0  0.11398648659E-01  0.19668392789E-01 -0.55255664427E-02  0.23394588064E-01  0.00000000000E+00 0. -1.
     999901    1    3    3    0    0  0.45114294640E-02  0.50226265231E-01  0.11405945384E+00  0.88879277097E+00  0.88000000000E+00 0.  1.
        -11    1    4    4    0    0 -0.60989719513E-02 -0.60486841359E-01 -0.92835142131E-01  0.11097062752E+00  0.51100000000E-03 0.  1.
         11    1    4    4    0    0 -0.98111061721E-02 -0.94078166620E-02 -0.15698745270E-01  0.20772013449E-01  0.51100000000E-03 0. -1.
</event>
<event>
 8    1  0.1183092E+005  0.1043930E+01  0.7957747E-01            NaN
         13   -1    0    0    0    0  0.00000000000E+00  0.00000000000E+00  0.74505805969E-08  0.10566000000E+00  0.10566000000E+00 0. -1.
     999900   -1    0    0    0    0 -0.00000000000E+00 -0.00000000000E+00 -0.74505805969E-08  0.93827000000E+00  0.93827000000E+00 0.  1.
     999902    2    1    2    0    0  0.18106299216E-02 -0.38876171501E-02  0.23555327020E-01  0.10199874567E+01  0.10197064119E+01 0.  0.
     999903    2    3    3    0    0  0.26873946593E-01  0.12202541554E+00  0.32245084721E-01  0.13062938848E+00  0.20294841817E-01 0.  0.
         14    1    1    2    0    0 -0.18106299216E-02  0.38876171501E-02 -0.23555327020E-01  0.23942543283E-01  0.00000000000E+00 0.  1.
     999901    1    3    3    0    0 -0.25063316671E-01 -0.12591303269E+00 -0.86897577008E-02  0.88935806823E+00  0.88000000000E+00 0. -1.
        -11    1    4    4    0    0 -0.11103458192E-02  0.33523615399E-01  0.11979675933E-01  0.35620772223E-01  0.51100000000E-03 0. -1.
         11    1    4    4    0    0  0.27984292412E-01  0.88501800138E-01  0.20265408788E-01  0.95008616261E-01  0.51100000000E-03 0.  1.
</event>
<event>
 8    1  0.1183092E+005  0.1043930E+01  0.7957747E-01            NaN
         13   -1    0    0    0    0  0.00000000000E+00  0.00000000000E+00  0.74505805969E-08  0.10566000000E+00  0.10566000000E+00 0.  1.
     999900   -1    0    0    0    0 -0.00000000000E+00 -0.00000000000E+00 -0.74505805969E-08  0.93827000000E+00  0.93827000000E+00 0.  1.
     999902    2    1    2    0    0  0.21883852039E-01  0.90786746924E-02 -0.86742607658E-03  0.10202218212E+01  0.10199463156E+01 0.  0.
     999903    2    3    3    0    0  0.16945998448E-01  0.11155461069E+00 -0.65390877523E-01  0.13191501854E+00  0.19849615219E-01 0.  0.
         14    1    1    2    0    0 -0.21883852039E-01 -0.90786746924E-02  0.86742607658E-03  0.23708178804E-01  0.00000000000E+00 0.  1.
     999901    1    3    3    0    0  0.49378535908E-02 -0.10247593599E+00  0.64523451447E-01  0.88830680265E+00  0.88000000000E+00 0. -1.
        -11    1    4    4    0    0 -0.98679839854E-03  0.54823734697E-01 -0.27173725308E-01  0.61198759181E-01  0.51100000000E-03 0.  1.
         11    1    4    4    0    0  0.17932796847E-01  0.56730875991E-01 -0.38217152215E-01  0.70716259360E-01  0.51100000000E-03 0. -1.
</event>
<event>
 8    1  0.1183092E+005  0.1043930E+01  0.7957747E-01            NaN
         13   -1    0    0    0    0  0.00000000000E+00  0.00000000000E+00  0.74505805969E-08  0.10566000000E+00  0.10566000000E+00 0.  1.
     999900   -1    0    0    0    0 -0.00000000000E+00 -0.00000000000E+00 -0.74505805969E-08  0.93827000000E+00  0.93827000000E+00 0. -1.
     999902    2    1    2    0    0  0.81709977579E-02 -0.39325562009E-02  0.22008103231E-01  0.10201269159E+01  0.10198491741E+01 0.  0.
     999903    2    3    3    0    0 -0.11830765391E+00 -0.24801658709E-01 -0.40063703136E-01  0.12867569579E+00  0.18452943642E-01 0.  0.
         14    1    1    2    0    0 -0.81709977579E-02  0.39325562009E-02 -0.22008103231E-01  0.23803084054E-01  0.00000000000E+00 0. -1.
     999901    1    3    3    0    0  0.12647865167E+00  0.20869102508E-01  0.62071806367E-01  0.89145122015E+00  0.88000000000E+00 0.  1.
        -11    1    4    4    0    0 -0.73722938499E-01 -0.11290813946E-01 -0.32979900732E-01  0.81550531045E-01  0.51100000000E-03 0.  1.
         11    1    4    4    0    0 -0.44584715416E-01 -0.13510844762E-01 -0.70838024042E-02  0.47125164747E-01  0.51100000000E-03 0. -1.
</event>
<event>
 8    1  0.1183092E+005  0.1043930E+01  0.7957747E-01            NaN
         13   -1    0    0    0    0  0.00000000000E+00  0.00000000000E+00  0.74505805969E-08  0.10566000000E+00  0.10566000000E+00 0. -1.
     999900   -1    0    0    0    0 -0.00000000000E+00 -0.00000000000E+00 -0.74505805969E-08  0.93827000000E+00  0.93827000000E+00 0. -1.
     999902    2    1    2    0    0  0.20509084825E-01 -0.11028158857E-01  0.80228125551E-03  0.10206300750E+01  0.10203640838E+01 0.  0.
     999903    2    3    3    0    0 -0.60402528869E-02 -0.62990862995E-01 -0.11330853465E+00  0.13134594257E+00  0.20213835073E-01 0.  0.
         14    1    1    2    0    0 -0.20509084825E-01  0.11028158857E-01 -0.80228125551E-03  0.23299924964E-01  0.00000000000E+00 0.  1.
     999901    1    3    3    0    0  0.26549337711E-01  0.51962704138E-01  0.11411081591E+00  0.88928413247E+00  0.88000000000E+00 0.  1.
        -11    1    4    4    0    0  0.59069631030E-02 -0.30395778767E-01 -0.63262973418E-01  0.70436215874E-01  0.51100000000E-03 0. -1.
         11    1    4    4    0    0 -0.11947215990E-01 -0.32595084228E-01 -0.50045561233E-01  0.60909726693E-01  0.51100000000E-03 0.  1.
</event>
<event>
 8    1  0.1183092E+005  0.1043930E+01  0.7957747E-01            NaN
         13   -1    0    0    0    0  0.00000000000E+00  0.00000000000E+00  0.74505805969E-08  0.10566000000E+00  0.10566000000E+00 0.  1.
     999900   -1    0    0    0    0 -0.00000000000E+00 -0.00000000000E+00 -0.74505805969E-08  0.93827000000E+00  0.93827000000E+00 0. -1.
     999902    2    1    2    0    0 -0.25744869044E-01  0.69968949877E-02  0.44213927167E-02  0.10168873756E+01  0.10165277326E+01 0.  0.
     999903    2    3    3    0    0  0.22584446110E-01 -0.86343182433E-01  0.86748069788E-01  0.12681671855E+00  0.24332080346E-01 0.  0.
         14    1    1    2    0    0  0.25744869044E-01 -0.69968949877E-02 -0.44213927167E-02  0.27042624412E-01  0.00000000000E+00 0. -1.
     999901    1    3    3    0    0 -0.48329315153E-01  0.93340077421E-01 -0.82326677071E-01  0.89007065703E+00  0.88000000000E+00 0. -1.
        -11    1    4    4    0    0 -0.69317960704E-03 -0.32953146814E-01  0.41855906272E-01  0.53278216879E-01  0.51100000000E-03 0.  1.
         11    1    4    4    0    0  0.23277625717E-01 -0.53390035619E-01  0.44892163516E-01  0.73538501675E-01  0.51100000000E-03 0. -1.
</event>
<event>
 8    1  0.1183092E+005  0.1043930E+01  0.7957747E-01            NaN
         13   -1    0    0    0    0  0.00000000000E+00  0.00000000000E+00  0.74505805969E-08  0.10566000000E+00  0.10566000000E+00 0.  1.
     999900   -1    0    0    0    0 -0.00000000000E+00 -0.00000000000E+00 -0.74505805969E-08  0.93827000000E+00  0.93827000000E+00 0.  1.
     999902    2    1    2    0    0  0.29933233752E-02  0.75187426473E-02  0.20756843744E-01  0.10216513547E+01  0.10214084161E+01 0.  0.
     999903    2    3    3    0    0 -0.78886262604E-02  0.13045675983E+00  0.12976934836E-01  0.13300479957E+00  0.20992361973E-01 0.  0.
         14    1    1    2    0    0 -0.29933233752E-02 -0.75187426473E-02 -0.20756843744E-01  0.22278645337E-01  0.00000000000E+00 0. -1.
     999901    1    3    3    0    0  0.10881949636E-01 -0.12293801718E+00  0.77799089081E-02  0.88864655509E+00  0.88000000000E+00 0. -1.
        -11    1    4    4    0    0 -0.14018029753E-01  0.96582833312E-01  0.13801082902E-01  0.98567133767E-01  0.51100000000E-03 0. -1.
         11    1    4    4    0    0  0.61294034924E-02  0.33873926518E-01 -0.82414806559E-03  0.34437665803E-01  0.51100000000E-03 0.  1.
</event>
<event>
 8    1  0.1183092E+005  0.1043930E+01  0.7957747E-01            NaN
         13   -1    0    0    0    0  0.00000000000E+00  0.00000000000E+00  0.74505805969E-08  0.10566000000E+00  0.10566000000E+00 0. -1.
     999900   -1    0    0    0    0 -0.00000000000E+00 -0.00000000000E+00 -0.74505805969E-08  0.93827000000E+00  0.93827000000E+00 0. -1.
     999902    2    1    2    0    0 -0.20122211586E-01 -0.10794917251E-01 -0.67352619950E-02  0.10201224930E+01  0.10198446466E+01 0.  0.
     999903    2    3    3    0    0  0.12061098273E+00  0.10271096116E-01  0.35313011088E-01  0.12770013433E+00  0.20194330527E-01 0.  0.
         14    1    1    2    0    0  0.20122211586E-01  0.10794917251E-01  0.67352619950E-02  0.23807507045E-01  0.00000000000E+00 0.  1.
     999901    1    3    3    0    0 -0.14073319432E+00 -0.21066013367E-01 -0.42048273083E-01  0.89242235862E+00  0.88000000000E+00 0.  1.
        -11    1    4    4    0    0  0.98078048704E-02  0.49325334411E-02 -0.84650592582E-03  0.11022731776E-01  0.51100000000E-03 0. -1.
         11    1    4    4    0    0  0.11080317786E+00  0.53385626746E-02  0.36159517014E-01  0.11667740256E+00  0.51100000000E-03 0.  1.
</event>
<event>
 8    1  0.1183092E+005  0.1043930E+01  0.7957747E-01            NaN
         13   -1    0    0    0    0  0.00000000000E+00  0.00000000000E+00  0.74505805969E-08  0.10566000000E+00  0.10566000000E+00 0.  1.
     999900   -1    0    0    0    0 -0.00000000000E+00 -0.00000000000E+00 -0.74505805969E-08  0.93827000000E+00  0.93827000000E+00 0. -1.
     999902    2    1    2    0    0 -0.28604210128E-01 -0.24810725494E-03 -0.46470195724E-02  0.10149497104E+01  0.10145358828E+01 0.  0.
     999903    2    3    3    0    0 -0.39710903741E-01 -0.89073331961E-01 -0.79205647214E-01  0.12727168987E+00  0.20335539046E-01 0.  0.
         14    1    1    2    0    0  0.28604210128E-01  0.24810725494E-03  0.46470195724E-02  0.28980289597E-01  0.00000000000E+00 0. -1.
     999901    1    3    3    0    0  0.11106693614E-01  0.88825224706E-01  0.74558627642E-01  0.88767802054E+00  0.88000000000E+00 0.  1.
        -11    1    4    4    0    0 -0.32521414329E-01 -0.85332957026E-01 -0.70514087058E-01  0.11537700611E+00  0.51100000000E-03 0.  1.
         11    1    4    4    0    0 -0.71894894120E-02 -0.37403749343E-02 -0.86915601565E-02  0.11894683754E-01  0.51100000000E-03 0. -1.
</event>
<event>
 8    1  0.1183092E+005  0.1043930E+01  0.7957747E-01            NaN
         13   -1    0    0    0    0  0.00000000000E+00  0.00000000000E+00  0.74505805969E-08  0.10566000000E+00  0.10566000000E+00 0. -1.
     999900   -1    0    0    0    0 -0.00000000000E+00 -0.00000000000E+00 -0.74505805969E-08  0.93827000000E+00  0.93827000000E+00 0.  1.
     999902    2    1    2    0    0  0.10763335582E-01 -0.48814953685E-02 -0.19333661505E-01  0.10212701488E+01  0.10210187305E+01 0.  0.
     999903    2    3    3    0    0 -0.11257679694E+00 -0.32066133171E-01 -0.56342238820E-01  0.13148285532E+00  0.20285986825E-01 0.  0.
         14    1    1    2    0    0 -0.10763335582E-01  0.48814953685E-02  0.19333661505E-01  0.22659851215E-01  0.00000000000E+00 0. -1.
     999901    1    3    3    0    0  0.12334013252E+00  0.27184637802E-01  0.37008577315E-01  0.88978729347E+00  0.88000000000E+00 0. -1.
        -11    1    4    4    0    0 -0.58002933448E-01 -0.10691409005E-01 -0.18920317979E-01  0.61942603017E-01  0.51100000000E-03 0. -1.
         11    1    4    4    0    0 -0.54573863491E-01 -0.21374724166E-01 -0.37421920842E-01  0.69540252300E-01  0.51100000000E-03 0.  1.
</event>
<event>
 8    1  0.1183092E+005  0.1043930E+01  0.7957747E-01            NaN
         13   -1    0    0    0    0  0.00000000000E+00  0.00000000000E+00  0.74505805969E-08  0.10566000000E+00  0.10566000000E+00 0.  1.
     999900   -1    0    0    0    0 -0.00000000000E+00 -0.00000000000E+00 -0.74505805969E-08  0.93827000000E+00  0.93827000000E+00 0.  1.
     999902    2    1    2    0    0  0.18730719287E-01  0.27032554110E-01  0.39547286304E-02  0.10108054063E+01  0.10102625059E+01 0.  0.
     999903    2    3    3    0    0  0.39645451983E-01  0.97453187524E-01 -0.64588560155E-01  0.12508836682E+00  0.20162633490E-01 0.  0.
         14    1    1    2    0    0 -0.18730719287E-01 -0.27032554110E-01 -0.39547286304E-02  0.33124593662E-01  0.00000000000E+00 0.  1.
     999901    1    3    3    0    0 -0.20914732696E-01 -0.70420633414E-01  0.68543288786E-01  0.88571703952E+00  0.88000000000E+00 0. -1.
        -11    1    4    4    0    0  0.76992784857E-02  0.20268925454E-01 -0.44054376286E-02  0.22130911187E-01  0.51100000000E-03 0. -1.
         11    1    4    4    0    0  0.31946173497E-01  0.77184262070E-01 -0.60183122527E-01  0.10295745563E+00  0.51100000000E-03 0.  1.
</event>
<event>
 8    1  0.1183092E+005  0.1043930E+01  0.7957747E-01            NaN
         13   -1    0    0    0    0  0.00000000000E+00  0.00000000000E+00  0.74505805969E-08  0.10566000000E+00  0.10566000000E+00 0.  1.
     999900   -1    0    0    0    0 -0.00000000000E+00 -0.00000000000E+00 -0.74505805969E-08  0.93827000000E+00  0.93827000000E+00 0. -1.
     999902    2    1    2    0    0 -0.19209652957E-01 -0.27151219013E-02 -0.13646552071E-01  0.10202105768E+01  0.10199348067E+01 0.  0.
     999903    2    3    3    0    0 -0.29990646781E-01  0.33938696786E-01 -0.12316559395E+00  0.13259908927E+00  0.19012651315E-01 0.  0.
         14    1    1    2    0    0  0.19209652957E-01  0.27151219013E-02  0.13646552071E-01  0.23719423203E-01  0.00000000000E+00 0.  1.
     999901    1    3    3    0    0  0.10780993824E-01 -0.36653818687E-01  0.10951904188E+00  0.88761148752E+00  0.88000000000E+00 0.  1.
        -11    1    4    4    0    0 -0.29680087827E-01  0.30845879665E-01 -0.94300831189E-01  0.10356294603E+00  0.51100000000E-03 0.  1.
         11    1    4    4    0    0 -0.31055895392E-03  0.30928171210E-02 -0.28864762756E-01  0.29036143246E-01  0.51100000000E-03 0. -1.
</event>
<event>
 8    1  0.1183092E+005  0.1043930E+01  0.7957747E-01            NaN
         13   -1    0    0    0    0  0.00000000000E+00  0.00000000000E+00  0.74505805969E-08  0.10566000000E+00  0.10566000000E+00 0. -1.
     999900   -1    0    0    0    0 -0.00000000000E+00 -0.00000000000E+00 -0.74505805969E-08  0.93827000000E+00  0.93827000000E+00 0. -1.
     999902    2    1    2    0    0  0.37308973981E-02 -0.17507340783E-01  0.14730717167E-01  0.10207476661E+01  0.10204843836E+01 0.  0.
     999903    2    3    3    0    0 -0.68618023591E-01  0.77167738170E-01 -0.73562255893E-01  0.12833891108E+00  0.19904211365E-01 0.  0.
         14    1    1    2    0    0 -0.37308973981E-02  0.17507340783E-01 -0.14730717167E-01  0.23182333898E-01  0.00000000000E+00 0.  1.
     999901    1    3    3    0    0  0.72348920990E-01 -0.94675078953E-01  0.88292973060E-01  0.89240875502E+00  0.88000000000E+00 0.  1.
        -11    1    4    4    0    0 -0.52546692402E-01  0.49565751663E-01 -0.58827384389E-01  0.93160296776E-01  0.51100000000E-03 0. -1.
         11    1    4    4    0    0 -0.16071331189E-01  0.27601986507E-01 -0.14734871504E-01  0.35178614307E-01  0.51100000000E-03 0.  1.
</event>
<event>
 8    1  0.1183092E+005  0.1043930E+01  0.7957747E-01            NaN
         13   -1    0    0    0    0  0.00000000000E+00  0.00000000000E+00  0.74505805969E-08  0.10566000000E+00  0.10566000000E+00 0. -1.
     999900   -1    0    0    0    0 -0.00000000000E+00 -0.00000000000E+00 -0.74505805969E-08  0.93827000000E+00  0.93827000000E+00 0. -1.
     999902    2    1    2    0    0  0.11897834125E-01 -0.14526796051E-01 -0.14246452022E-01  0.10203599415E+01  0.10200876740E+01 0.  0.
     999903    2    3    3    0    0  0.12211019640E+00  0.10361857060E-01 -0.46681296748E-01  0.13254339011E+00  0.19244184803E-01 0.  0.
         14    1    1    2    0    0 -0.11897834125E-01  0.14526796051E-01  0.14246452022E-01  0.23570058455E-01  0.00000000000E+00 0. -1.
     999901    1    3    3    0    0 -0.11021236227E+00 -0.24888653111E-01  0.32434844726E-01  0.88781655144E+00  0.88000000000E+00 0.  1.
        -11    1    4    4    0    0  0.27946291861E-01 -0.44933101287E-03 -0.27995730009E-02  0.28094409713E-01  0.51100000000E-03 0.  1.
         11    1    4    4    0    0  0.94163904539E-01  0.10811188073E-01 -0.43881723747E-01  0.10444898039E+00  0.51100000000E-03 0. -1.
</event>
<event>
 8    1  0.1183092E+005  0.1043930E+01  0.7957747E-01            NaN
         13   -1    0    0    0    0  0.00000000000E+00  0.00000000000E+00  0.74505805969E-08  0.10566000000E+00  0.10566000000E+00 0. -1.
     999900   -1    0    0    0    0 -0.00000000000E+00 -0.00000000000E+00 -0.74505805969E-08  0.93827000000E+00  0.93827000000E+00 0.  1.
     999902    2    1    2    0    0  0.66432429025E-02  0.24069940675E-01 -0.93221481302E-02  0.10172767232E+01  0.10169274971E+01 0.  0.
     999903    2    3    3    0    0  0.64126209842E-01  0.77094508868E-01 -0.81692387483E-01  0.13084942899E+00  0.19803858382E-01 0.  0.
         14    1    1    2    0    0 -0.66432429025E-02 -0.24069940675E-01  0.93221481302E-02  0.26653276836E-01  0.00000000000E+00 0. -1.
     999901    1    3    3    0    0 -0.57482966940E-01 -0.53024568193E-01  0.72370239353E-01  0.88642729418E+00  0.88000000000E+00 0. -1.
        -11    1    4    4    0    0  0.32674164696E-01  0.28197393114E-01 -0.26288768997E-01  0.50537654411E-01  0.51100000000E-03 0. -1.
         11    1    4    4    0    0  0.31452045147E-01  0.48897115754E-01 -0.55403618486E-01  0.80311774574E-01  0.51100000000E-03 0.  1.
</event>
<event>
 8    1  0.1183092E+005  0.1043930E+01  0.7957747E-01            NaN
         13   -1    0    0    0    0  0.00000000000E+00  0.00000000000E+00  0.74505805969E-08  0.10566000000E+00  0.10566000000E+00 0. -1.
     999900   -1    0    0    0    0 -0.00000000000E+00 -0.00000000000E+00 -0.74505805969E-08  0.93827000000E+00  0.93827000000E+00 0. -1.
     999902    2    1    2    0    0 -0.32976129132E-02  0.11292089233E-01  0.21211546592E-01  0.10196747894E+01  0.10193862668E+01 0.  0.
     999903    2    3    3    0    0  0.46251005558E-01 -0.57008954590E-01  0.10595323831E+00  0.13158625079E+00  0.26451394469E-01 0.  0.
         14    1    1    2    0    0  0.32976129132E-02 -0.11292089233E-01 -0.21211546592E-01  0.24255210554E-01  0.00000000000E+00 0.  1.
     999901    1    3    3    0    0 -0.49548618471E-01  0.68301043824E-01 -0.84741691719E-01  0.88808853866E+00  0.88000000000E+00 0. -1.
        -11    1    4    4    0    0  0.42526883875E-01 -0.33904433823E-01  0.69290573462E-01  0.88087974075E-01  0.51100000000E-03 0. -1.
         11    1    4    4    0    0  0.37241216830E-02 -0.23104520767E-01  0.36662664849E-01  0.43498276714E-01  0.51100000000E-03 0.  1.
</event>
<event>
 8    1  0.1183092E+005  0.1043930E+01  0.7957747E-01            NaN
         13   -1    0    0    0    0  0.00000000000E+00  0.00000000000E+00  0.74505805969E-08  0.10566000000E+00  0.10566000000E+00 0.  1.
     999900   -1    0    0    0    0 -0.00000000000E+00 -0.00000000000E+00 -0.74505805969E-08  0.93827000000E+00  0.93827000000E+00 0. -1.
     999902    2    1    2    0    0 -0.91416706058E-02  0.18977299724E-01  0.30691637644E-02  0.10226432010E+01  0.10224216296E+01 0.  0.
     999903    2    3    3    0    0 -0.93214177782E-01  0.16743469133E-01 -0.92028667718E-01  0.13353309868E+00  0.19813784663E-01 0.  0.
         14    1    1    2    0    0  0.91416706058E-02 -0.18977299724E-01 -0.30691637644E-02  0.21286799019E-01  0.00000000000E+00 0. -1.
     999901    1    3    3    0    0  0.84072507177E-01  0.22338305912E-02  0.95097831482E-01  0.88911010230E+00  0.88000000000E+00 0. -1.
        -11    1    4    4    0    0 -0.35755770781E-01  0.85957115523E-02 -0.23120224868E-01  0.43441539109E-01  0.51100000000E-03 0.  1.
         11    1    4    4    0    0 -0.57458407001E-01  0.81477575803E-02 -0.68908442850E-01  0.90091559570E-01  0.51100000000E-03 0. -1.
</event>
<event>
 8    1  0.1183092E+005  0.1043930E+01  0.7957747E-01            NaN
         13   -1    0    0    0    0  0.00000000000E+00  0.00000000000E+00  0.74505805969E-08  0.10566000000E+00  0.10566000000E+00 0.  1.
     999900   -1    0    0    0    0 -0.00000000000E+00 -0.00000000000E+00 -0.74505805969E-08  0.93827000000E+00  0.93827000000E+00 0. -1.
     999902    2    1    2    0    0 -0.48974105333E-02  0.17496631514E-01  0.16789205663E-01  0.10191914841E+01  0.10188912047E+01 0.  0.
     999903    2    3    3    0    0 -0.17265489748E-01  0.74984054611E-01 -0.10194784506E+00  0.12927224030E+00  0.19930966317E-01 0.  0.
         14    1    1    2    0    0  0.48974105333E-02 -0.17496631514E-01 -0.16789205663E-01  0.24738515943E-01  0.00000000000E+00 0. -1.
     999901    1    3    3    0    0  0.12368079215E-01 -0.57487423098E-01  0.11873705072E+00  0.88991924376E+00  0.88000000000E+00 0.  1.
        -11    1    4    4    0    0  0.12452751239E-02  0.36988708886E-01 -0.52238192098E-01  0.64021911326E-01  0.51100000000E-03 0. -1.
         11    1    4    4    0    0 -0.18510764872E-01  0.37995345726E-01 -0.49709652957E-01  0.65250328973E-01  0.51100000000E-03 0.  1.
</event>
<event>
 8    1  0.1183092E+005  0.1043930E+01  0.7957747E-01            NaN
         13   -1    0    0    0    0  0.00000000000E+00  0.00000000000E+00  0.74505805969E-08  0.10566000000E+00  0.10566000000E+00 0. -1.
     999900   -1    0    0    0    0 -0.00000000000E+00 -0.00000000000E+00 -0.74505805969E-08  0.93827000000E+00  0.93827000000E+00 0.  1.
     999902    2    1    2    0    0  0.17348282276E-01 -0.17231817522E-01  0.31632474127E-02  0.10192742792E+01  0.10189760310E+01 0.  0.
     999903    2    3    3    0    0 -0.10936650501E+00  0.76070196516E-02 -0.61938043650E-01  0.12747173199E+00  0.19844949975E-01 0.  0.
         14    1    1    2    0    0 -0.17348282276E-01  0.17231817522E-01 -0.31632474127E-02  0.24655720781E-01  0.00000000000E+00 0. -1.
     999901    1    3    3    0    0  0.12671478728E+00 -0.24838837174E-01  0.65101291063E-01  0.89180254723E+00  0.88000000000E+00 0. -1.
        -11    1    4    4    0    0 -0.76581918761E-01  0.14220608353E-01 -0.45397659628E-01  0.90156666996E-01  0.51100000000E-03 0. -1.
         11    1    4    4    0    0 -0.32784586246E-01 -0.66135887014E-02 -0.16540384022E-01  0.37315064993E-01  0.51100000000E-03 0.  1.
</event>
<event>
 8    1  0.1183092E+005  0.1043930E+01  0.7957747E-01            NaN
         13   -1    0    0    0    0  0.00000000000E+00  0.00000000000E+00  0.74505805969E-08  0.10566000000E+00  0.10566000000E+00 0.  1.
     999900   -1    0    0    0    0 -0.00000000000E+00 -0.00000000000E+00 -0.74505805969E-08  0.93827000000E+00  0.93827000000E+00 0.  1.
     999902    2    1    2    0    0 -0.16366430533E-01 -0.92567346641E-02 -0.14133534046E-01  0.10204075858E+01  0.10201364307E+01 0.  0.
     999903    2    3    3    0    0 -0.23451260428E-01  0.89702878652E-01 -0.90940470375E-01  0.13150798216E+00  0.20678785420E-01 0.  0.
         14    1    1    2    0    0  0.16366430533E-01  0.92567346641E-02  0.14133534046E-01  0.23522414197E-01  0.00000000000E+00 0.  1.
     999901    1    3    3    0    0  0.70848298948E-02 -0.98959613316E-01  0.76806936329E-01  0.88889960364E+00  0.88000000000E+00 0. -1.
        -11    1    4    4    0    0 -0.38218940100E-02  0.51086244523E-01 -0.55551219496E-01  0.75568580520E-01  0.51100000000E-03 0. -1.
         11    1    4    4    0    0 -0.19629366418E-01  0.38616634129E-01 -0.35389250879E-01  0.55939401643E-01  0.51100000000E-03 0.  1.
</event>
<event>
 8    1  0.1183092E+005  0.1043930E+01  0.7957747E-01            NaN
         13   -1    0    0    0    0  0.00000000000E+00  0.00000000000E+00  0.74505805969E-08  0.10566000000E+00  0.10566000000E+00 0. -1.
     999900   -1    0    0    0    0 -0.00000000000E+00 -0.00000000000E+00 -0.74505805969E-08  0.93827000000E+00  0.93827000000E+00 0. -1.
     999902    2    1    2    0    0 -0.25514924370E-01  0.20726323242E-02 -0.35014472225E-02  0.10180926762E+01  0.10177647714E+01 0.  0.
     999903    2    3    3    0    0 -0.76302398217E-01  0.65410164619E-01  0.80774938266E-01  0.13034636125E+00  0.19105957958E-01 0.  0.
         14    1    1    2    0    0  0.25514924370E-01 -0.20726323242E-02  0.35014472225E-02  0.25837323836E-01  0.00000000000E+00 0.  1.
     999901    1    3    3    0    0  0.50787473847E-01 -0.63337532295E-01 -0.84276385488E-01  0.88774631492E+00  0.88000000000E+00 0. -1.
        -11    1    4    4    0    0 -0.44002897650E-01  0.49524646422E-01  0.54312946262E-01  0.85668563998E-01  0.51100000000E-03 0. -1.
         11    1    4    4    0    0 -0.32299500567E-01  0.15885518197E-01  0.26461992004E-01  0.44677797249E-01  0.51100000000E-03 0.  1.
</event>
<event>
 8    1  0.1183092E+005  0.1043930E+01  0.7957747E-01            NaN
         13   -1    0    0    0    0  0.00000000000E+00  0.00000000000E+00  0.74505805969E-08  0.10566000000E+00  0.10566000000E+00 0. -1.
     999900   -1    0    0    0    0 -0.00000000000E+00 -0.00000000000E+00 -0.74505805969E-08  0.93827000000E+00  0.93827000000E+00 0. -1.
     999902    2    1    2    0    0  0.16129246195E-01 -0.14028209952E-01  0.13649981524E-01  0.10185673256E+01  0.10182515070E+01 0.  0.
     999903    2    3    3    0    0  0.41123079262E-01 -0.99417938889E-01 -0.70277424741E-01  0.13010803727E+00  0.20350693156E-01 0.  0.
         14    1    1    2    0    0 -0.16129246195E-01  0.14028209952E-01 -0.13649981524E-01  0.25362674403E-01  0.00000000000E+00 0. -1.
     999901    1    3    3    0    0 -0.24993833067E-01  0.85389728937E-01  0.83927406265E-01  0.88845928833E+00  0.88000000000E+00 0.  1.
        -11    1    4    4    0    0  0.40392607763E-01 -0.78881077101E-01 -0.60787184783E-01  0.10746687881E+00  0.51100000000E-03 0.  1.
         11    1    4    4    0    0  0.73047149901E-03 -0.20536861788E-01 -0.94902399581E-02  0.22641158455E-01  0.51100000000E-03 0. -1.
</event>
<event>
 8    1  0.1183092E+005  0.1043930E+01  0.7957747E-01            NaN
         13   -1    0    0    0    0  0.00000000000E+00  0.00000000000E+00  0.74505805969E-08  0.10566000000E+00  0.10566000000E+00 0. -1.
     999900   -1    0    0    0    0 -0.00000000000E+00 -0.00000000000E+00 -0.74505805969E-08  0.93827000000E+00  0.93827000000E+00 0.  1.
     999902    2    1    2    0    0 -0.13138221610E-01 -0.19594707219E-01 -0.33401628796E-02  0.10201030802E+01  0.10198247752E+01 0.  0.
     999903    2    3    3    0    0 -0.51756921409E-01 -0.83767846101E-01 -0.86913737948E-01  0.13297617939E+00  0.20804698678E-01 0.  0.
         14    1    1    2    0    0  0.13138221610E-01  0.19594707219E-01  0.33401628796E-02  0.23826919778E-01  0.00000000000E+00 0.  1.
     999901    1    3    3    0    0  0.38618699799E-01  0.64173138883E-01  0.83573575069E-01  0.88712690083E+00  0.88000000000E+00 0. -1.
        -11    1    4    4    0    0 -0.45593461435E-01 -0.59789617478E-01 -0.58374916956E-01  0.95191670509E-01  0.51100000000E-03 0.  1.
         11    1    4    4    0    0 -0.61634599737E-02 -0.23978228623E-01 -0.28538820993E-01  0.37784508882E-01  0.51100000000E-03 0. -1.
</event>
<event>
 8    1  0.1183092E+005  0.1043930E+01  0.7957747E-01            NaN
         13   -1    0    0    0    0  0.00000000000E+00  0.00000000000E+00  0.74505805969E-08  0.10566000000E+00  0.10566000000E+00 0.  1.
     999900   -1    0    0    0    0 -0.00000000000E+00 -0.00000000000E+00 -0.74505805969E-08  0.93827000000E+00  0.93827000000E+00 0.  1.
     999902    2    1    2    0    0  0.93942719538E-02 -0.67603667321E-02  0.21049105868E-01  0.10199087644E+01  0.10196258470E+01 0.  0.
     999903    2    3    3    0    0 -0.11804494874E+00 -0.46642253064E-01  0.28851292343E-02  0.12964967293E+00  0.26279345993E-01 0.  0.
         14    1    1    2    0    0 -0.93942719538E-02  0.67603667321E-02 -0.21049105868E-01  0.24021235641E-01  0.00000000000E+00 0. -1.
     999901    1    3    3    0    0  0.12743922069E+00  0.39881886332E-01  0.18163976633E-01  0.89025909143E+00  0.88000000000E+00 0.  1.
        -11    1    4    4    0    0 -0.10817027008E+00 -0.34295673329E-01  0.55272484392E-02  0.11361255272E+00  0.51100000000E-03 0. -1.
         11    1    4    4    0    0 -0.98746786579E-02 -0.12346579735E-01 -0.26421192049E-02  0.16037120211E-01  0.51100000000E-03 0.  1.
</event>
<event>
 8    1  0.1183092E+005  0.1043930E+01  0.7957747E-01            NaN
         13   -1    0    0    0    0  0.00000000000E+00  0.00000000000E+00  0.74505805969E-08  0.10566000000E+00  0.10566000000E+00 0.  1.
     999900   -1    0    0    0    0 -0.00000000000E+00 -0.00000000000E+00 -0.74505805969E-08  0.93827000000E+00  0.93827000000E+00 0. -1.
     999902    2    1    2    0    0  0.24197804606E-02 -0.39219396547E-02 -0.23214568697E-01  0.10202624452E+01  0.10199878941E+01 0.  0.
     999903    2    3    3    0    0 -0.12193901087E+00 -0.39406632604E-01 -0.16661935284E-01  0.13078663927E+00  0.20137523628E-01 0.  0.
         14    1    1    2    0    0 -0.24197804606E-02  0.39219396547E-02  0.23214568697E-01  0.23667554752E-01  0.00000000000E+00 0.  1.
     999901    1    3    3    0    0  0.12435879133E+00  0.35484692950E-01 -0.65526334136E-02  0.88947580598E+00  0.88000000000E+00 0.  1.
        -11    1    4    4    0    0 -0.65293069956E-01 -0.10543654147E-01 -0.89099496799E-02  0.66738309473E-01  0.51100000000E-03 0.  1.
         11    1    4    4    0    0 -0.56645940919E-01 -0.28862978457E-01 -0.77519856038E-02  0.64048329797E-01  0.51100000000E-03 0. -1.
</event>
<event>
 8    1  0.1183092E+005  0.1043930E+01  0.7957747E-01            NaN
         13   -1    0    0    0    0  0.00000000000E+00  0.00000000000E+00  0.74505805969E-08  0.10566000000E+00  0.10566000000E+00 0. -1.
     999900   -1    0    0    0    0 -0.00000000000E+00 -0.00000000000E+00 -0.74505805969E-08  0.93827000000E+00  0.93827000000E+00 0. -1.
     999902    2    1    2    0    0  0.21792720543E-01 -0.13901079125E-01 -0.39666018055E-02  0.10177785832E+01  0.10174425526E+01 0.  0.
     999903    2    3    3    0    0 -0.34345499886E-01  0.71131941836E-01  0.96267517048E-01  0.12624675932E+00  0.20771203364E-01 0.  0.
         14    1    1    2    0    0 -0.21792720543E-01  0.13901079125E-01  0.39666018055E-02  0.26151416776E-01  0.00000000000E+00 0. -1.
     999901    1    3    3    0    0  0.56138220429E-01 -0.85033020961E-01 -0.10023411885E+00  0.89153182390E+00  0.88000000000E+00 0.  1.
        -11    1    4    4    0    0 -0.10564538317E-01  0.13047132654E-01  0.33532787432E-01  0.37503947716E-01  0.51100000000E-03 0. -1.
         11    1    4    4    0    0 -0.23780961568E-01  0.58084809183E-01  0.62734729616E-01  0.88742811607E-01  0.51100000000E-03 0.  1.
</event>
<event>
 8    1  0.1183092E+005  0.1043930E+01  0.7957747E-01            NaN
         13   -1    0    0    0    0  0.00000000000E+00  0.00000000000E+00  0.74505805969E-08  0.10566000000E+00  0.10566000000E+00 0. -1.
     999900   -1    0    0    0    0 -0.00000000000E+00 -0.00000000000E+00 -0.74505805969E-08  0.93827000000E+00  0.93827000000E+00 0. -1.
     999902    2    1    2    0    0  0.95845899861E-02  0.80987867028E-02  0.20229008918E-01  0.10201252208E+01  0.10198474389E+01 0.  0.
     999903    2    3    3    0    0  0.34557832353E-01 -0.70460686469E-01 -0.99158723459E-01  0.12824592162E+00  0.21345066373E-01 0.  0.
         14    1    1    2    0    0 -0.95845899861E-02 -0.80987867028E-02 -0.20229008918E-01  0.23804779206E-01  0.00000000000E+00 0.  1.
     999901    1    3    3    0    0 -0.24973242367E-01  0.78559473172E-01  0.11938773238E+00  0.89187929918E+00  0.88000000000E+00 0.  1.
        -11    1    4    4    0    0  0.18862471017E-01 -0.16380426076E-01 -0.32052955052E-01  0.40641902266E-01  0.51100000000E-03 0. -1.
         11    1    4    4    0    0  0.15695361336E-01 -0.54080260393E-01 -0.67105768408E-01  0.87604019350E-01  0.51100000000E-03 0.  1.
</event>
<event>
 8    1  0.1183092E+005  0.1043930E+01  0.7957747E-01            NaN
         13   -1    0    0    0    0  0.00000000000E+00  0.00000000000E+00  0.74505805969E-08  0.10566000000E+00  0.10566000000E+00 0. -1.
     999900   -1    0    0    0    0 -0.00000000000E+00 -0.00000000000E+00 -0.74505805969E-08  0.93827000000E+00  0.93827000000E+00 0. -1.
     999902    2    1    2    0    0  0.22536742174E-01 -0.48880546696E-02 -0.38995911042E-02  0.10205418697E+01  0.10202738374E+01 0.  0.
     999903    2    3    3    0    0 -0.11480923247E+00  0.45165173289E-01  0.27898059472E-01  0.12791634189E+00  0.19058752931E-01 0.  0.
         14    1    1    2    0    0 -0.22536742174E-01  0.48880546696E-02  0.38995911042E-02  0.23388130260E-01  0.00000000000E+00 0. -1.
     999901    1    3    3    0    0  0.13734597464E+00 -0.50053227958E-01 -0.31797650576E-01  0.89262552785E+00  0.88000000000E+00 0.  1.
        -11    1    4    4    0    0 -0.20022935673E-01  0.12289106528E-01 -0.96859404193E-03  0.23518915529E-01  0.51100000000E-03 0. -1.
         11    1    4    4    0    0 -0.94786296794E-01  0.32876066761E-01  0.28866653514E-01  0.10439742637E+00  0.51100000000E-03 0.  1.
</event>
<event>
 8    1  0.1183092E+005  0.1043930E+01  0.7957747E-01            NaN
         13   -1    0    0    0    0  0.00000000000E+00  0.00000000000E+00  0.74505805969E-08  0.10566000000E+00  0.10566000000E+00 0. -1.
     999900   -1    0    0    0    0 -0.00000000000E+00 -0.00000000000E+00 -0.74505805969E-08  0.93827000000E+00  0.93827000000E+00 0.  1.
     999902    2    1    2    0    0 -0.21829138899E-01  0.18028402155E-02  0.11640014658E-01  0.10191257367E+01  0.10188238394E+01 0.  0.
     999903    2    3    3    0    0 -0.10965661317E+00 -0.59442487624E-01  0.39154366097E-01  0.13220877610E+00  0.19700607747E-01 0.  0.
         14    1    1    2    0    0  0.21829138899E-01 -0.18028402155E-02 -0.11640014658E-01  0.24804263326E-01  0.00000000000E+00 0.  1.
     999901    1    3    3    0    0  0.87827474274E-01  0.61245327839E-01 -0.27514351439E-01  0.88691696057E+00  0.88000000000E+00 0. -1.
        -11    1    4    4    0    0 -0.99782094048E-01 -0.59807289869E-01  0.37065395146E-01  0.12209620327E+00  0.51100000000E-03 0.  1.
         11    1    4    4    0    0 -0.98745191249E-02  0.36480224540E-03  0.20889709514E-02  0.10112572831E-01  0.51100000000E-03 0. -1.
</event>
<event>
 8    1  0.1183092E+005  0.1043930E+01  0.7957747E-01            NaN
         13   -1    0    0    0    0  0.00000000000E+00  0.00000000000E+00  0.74505805969E-08  0.10566000000E+00  0.10566000000E+00 0. -1.
     999900   -1    0    0    0    0 -0.00000000000E+00 -0.00000000000E+00 -0.74505805969E-08  0.93827000000E+00  0.93827000000E+00 0.  1.
     999902    2    1    2    0    0  0.16692871760E-01 -0.14499705751E-01  0.43857665539E-02  0.10213882968E+01  0.10211395225E+01 0.  0.
     999903    2    3    3    0    0 -0.67984789883E-01  0.14895050972E-01  0.10878978801E+00  0.13069499505E+00  0.20054165556E-01 0.  0.
         14    1    1    2    0    0 -0.16692871760E-01  0.14499705751E-01 -0.43857665539E-02  0.22541703191E-01  0.00000000000E+00 0.  1.
     999901    1    3    3    0    0  0.84677661643E-01 -0.29394756724E-01 -0.10440402146E+00  0.89069330176E+00  0.88000000000E+00 0.  1.
        -11    1    4    4    0    0 -0.27027896443E-01  0.15699847108E-01  0.42316071645E-01  0.52610867943E-01  0.51100000000E-03 0. -1.
         11    1    4    4    0    0 -0.40956893440E-01 -0.80479613530E-03  0.66473716368E-01  0.78084127105E-01  0.51100000000E-03 0.  1.
</event>
<event>
 8    1  0.1183092E+005  0.1043930E+01  0.7957747E-01            NaN
         13   -1    0    0    0    0  0.00000000000E+00  0.00000000000E+00  0.74505805969E-08  0.10566000000E+00  0.10566000000E+00 0.  1.
     999900   -1    0    0    0    0 -0.00000000000E+00 -0.00000000000E+00 -0.74505805969E-08  0.93827000000E+00  0.93827000000E+00 0.  1.
     999902    2    1    2    0    0  0.17813582378E-01  0.32796698663E-02 -0.17759869418E-01  0.10185628379E+01  0.10182469061E+01 0.  0.
     999903    2    3    3    0    0 -0.91945958764E-01  0.82342643302E-01  0.23699289253E-01  0.12726211845E+00  0.19990503812E-01 0.  0.
         14    1    1    2    0    0 -0.17813582378E-01 -0.32796698663E-02  0.17759869418E-01  0.25367162106E-01  0.00000000000E+00 0.  1.
     999901    1    3    3    0    0  0.10975954114E+00 -0.79062973436E-01 -0.41459158671E-01  0.89130071944E+00  0.88000000000E+00 0.  1.
        -11    1    4    4    0    0 -0.24748136620E-01  0.22727805618E-01  0.15650599838E-01  0.37070551798E-01  0.51100000000E-03 0.  1.
         11    1    4    4    0    0 -0.67197822144E-01  0.59614837684E-01  0.80486894151E-02  0.90191566653E-01  0.51100000000E-03 0. -1.
</event>
<event>
 8    1  0.1183092E+005  0.1043930E+01  0.7957747E-01            NaN
         13   -1    0    0    0    0  0.00000000000E+00  0.00000000000E+00  0.74505805969E-08  0.10566000000E+00  0.10566000000E+00 0.  1.
     999900   -1    0    0    0    0 -0.00000000000E+00 -0.00000000000E+00 -0.74505805969E-08  0.93827000000E+00  0.93827000000E+00 0. -1.
     999902    2    1    2    0    0  0.19568386989E-01  0.15891679172E-01  0.81623624353E-03  0.10187083133E+01  0.10183960400E+01 0.  0.
     999903    2    3    3    0    0  0.63197533341E-01  0.69827070514E-01  0.89603570770E-01  0.13152416131E+00  0.20001427841E-01 0.  0.
         14    1    1    2    0    0 -0.19568386989E-01 -0.15891679172E-01 -0.81623624353E-03  0.25221686658E-01  0.00000000000E+00 0. -1.
     999901    1    3    3    0    0 -0.43629146352E-01 -0.53935391343E-01 -0.88787334526E-01  0.88718415204E+00  0.88000000000E+00 0. -1.
        -11    1    4    4    0    0  0.92213070491E-02  0.63335694598E-02  0.20093235453E-01  0.23003170168E-01  0.51100000000E-03 0.  1.
         11    1    4    4    0    0  0.53976226292E-01  0.63493501055E-01  0.69510335317E-01  0.10852099114E+00  0.51100000000E-03 0. -1.
</event>
<event>
 8    1  0.1183092E+005  0.1043930E+01  0.7957747E-01            NaN
         13   -1    0    0    0    0  0.00000000000E+00  0.00000000000E+00  0.74505805969E-08  0.10566000000E+00  0.10566000000E+00 0. -1.
     999900   -1    0    0    0    0 -0.00000000000E+00 -0.00000000000E+00 -0.74505805969E-08  0.93827000000E+00  0.93827000000E+00 0.  1.
     999902    2    1    2    0    0  0.32287814847E-02 -0.19303781703E-02  0.22827197303E-01  0.10207949114E+01  0.10205327132E+01 0.  0.
     999903    2    3    3    0    0  0.12233498241E-02 -0.10769710130E+00  0.75497376771E-01  0.13289583529E+00  0.19007549141E-01 0.  0.
         14    1    1    2    0    0 -0.32287814847E-02  0.19303781703E-02 -0.22827197303E-01  0.23135088642E-01  0.00000000000E+00 0.  1.
     999901    1    3    3    0    0  0.20054316606E-02  0.10576672313E+00 -0.52670179468E-01  0.88789907607E+00  0.88000000000E+00 0. -1.
        -11    1    4    4    0    0 -0.50848562803E-02 -0.36144247402E-01  0.17049664430E-01  0.40289137020E-01  0.51100000000E-03 0. -1.
         11    1    4    4    0    0  0.63082061044E-02 -0.71552853900E-01  0.58447712341E-01  0.92606698270E-01  0.51100000000E-03 0.  1.
</event>
<event>
 8    1  0.1183092E+005  0.1043930E+01  0.7957747E-01            NaN
         13   -1    0    0    0    0  0.00000000000E+00  0.00000000000E+00  0.74505805969E-08  0.10566000000E+00  0.10566000000E+00 0. -1.
     999900   -1    0    0    0    0 -0.00000000000E+00 -0.00000000000E+00 -0.74505805969E-08  0.93827000000E+00  0.93827000000E+00 0. -1.
     999902    2    1    2    0    0 -0.16426276154E-01  0.12181191022E-01  0.12495127659E-01  0.10199647715E+01  0.10196831875E+01 0.  0.
     999903    2    3    3    0    0 -0.46138809281E-01  0.95483421841E-01 -0.74953970384E-01  0.13121877794E+00  0.18825420008E-01 0.  0.
         14    1    1    2    0    0  0.16426276154E-01 -0.12181191022E-01 -0.12495127659E-01  0.23965228524E-01  0.00000000000E+00 0.  1.
     999901    1    3    3    0    0  0.29712533128E-01 -0.83302230819E-01  0.87449098043E-01  0.88874599354E+00  0.88000000000E+00 0.  1.
        -11    1    4    4    0    0 -0.13411629306E-01  0.13784836855E-01 -0.18278391036E-01  0.26537788672E-01  0.51100000000E-03 0. -1.
         11    1    4    4    0    0 -0.32727179975E-01  0.81698584986E-01 -0.56675579347E-01  0.10468098926E+00  0.51100000000E-03 0.  1.
</event>
<event>
 8    1  0.1183092E+005  0.1043930E+01  0.7957747E-01            NaN
         13   -1    0    0    0    0  0.00000000000E+00  0.00000000000E+00  0.74505805969E-08  0.10566000000E+00  0.10566000000E+00 0.  1.
     999900   -1    0    0    0    0 -0.00000000000E+00 -0.00000000000E+00 -0.74505805969E-08  0.93827000000E+00  0.93827000000E+00 0. -1.
     999902    2    1    2    0    0 -0.18524176892E-01  0.16738359429E-02  0.14314428298E-01  0.10204598122E+01  0.10201898738E+01 0.  0.
     999903    2    3    3    0    0 -0.63970558862E-01  0.63932941062E-01  0.94793951061E-01  0.13343189644E+00  0.25269041870E-01 0.  0.
         14    1    1    2    0    0  0.18524176892E-01 -0.16738359429E-02 -0.14314428298E-01  0.23470187766E-01  0.00000000000E+00 0. -1.
     999901    1    3    3    0    0  0.45446381970E-01 -0.62259105120E-01 -0.80479522764E-01  0.88702791579E+00  0.88000000000E+00 0. -1.
        -11    1    4    4    0    0 -0.31535033523E-01  0.27899926738E-01  0.26769167008E-01  0.49897030719E-01  0.51100000000E-03 0. -1.
         11    1    4    4    0    0 -0.32435525339E-01  0.36033014325E-01  0.68024784053E-01  0.83534865726E-01  0.51100000000E-03 0.  1.
</event>
<event>
 8    1  0.1183092E+005  0.1043930E+01  0.7957747E-01            NaN
         13   -1    0    0    0    0  0.00000000000E+00  0.00000000000E+00  0.74505805969E-08  0.10566000000E+00  0.10566000000E+00 0.  1.
     999900   -1    0    0    0    0 -0.00000000000E+00 -0.00000000000E+00 -0.74505805969E-08  0.93827000000E+00  0.93827000000E+00 0. -1.
     999902    2    1    2    0    0  0.64367161794E-02  0.23888185574E-01  0.15166693835E-02  0.10191433703E+01  0.10188419074E+01 0.  0.
     999903    2    3    3    0    0  0.11504774765E-01  0.52674333670E-01 -0.11751066782E+00  0.13064923159E+00  0.18802111438E-01 0.  0.
         14    1    1    2    0    0 -0.64367161794E-02 -0.23888185574E-01 -0.15166693835E-02  0.24786629687E-01  0.00000000000E+00 0.  1.
     999901    1    3    3    0    0 -0.50680585857E-02 -0.28786148096E-01  0.11902733720E+00  0.88849413872E+00  0.88000000000E+00 0.  1.
        -11    1    4    4    0    0  0.64513913189E-02  0.34358983661E-01 -0.94757649373E-01  0.10100214574E+00  0.51100000000E-03 0.  1.
         11    1    4    4    0    0  0.50533834461E-02  0.18315350010E-01 -0.22753018445E-01  0.29647085853E-01  0.51100000000E-03 0. -1.
</event>
<event>
 8    1  0.1183092E+005  0.1043930E+01  0.7957747E-01            NaN
         13   -1    0    0    0    0  0.00000000000E+00  0.00000000000E+00  0.74505805969E-08  0.10566000000E+00  0.10566000000E+00 0. -1.
     999900   -1    0    0    0    0 -0.00000000000E+00 -0.00000000000E+00 -0.74505805969E-08  0.93827000000E+00  0.93827000000E+00 0. -1.
     999902    2    1    2    0    0 -0.25162377929E-03 -0.22062456981E-02  0.23442425262E-01  0.10203826406E+01  0.10201109033E+01 0.  0.
     999903    2    3    3    0    0  0.18261166357E-01  0.10917243223E+00  0.68964867944E-01  0.13200196422E+00  0.20402828047E-01 0.  0.
         14    1    1    2    0    0  0.25162377929E-03  0.22062456981E-02 -0.23442425262E-01  0.23547359444E-01  0.00000000000E+00 0.  1.
     999901    1    3    3    0    0 -0.18512790136E-01 -0.11137867793E+00 -0.45522442682E-01  0.88838067633E+00  0.88000000000E+00 0. -1.
        -11    1    4    4    0    0  0.21942365093E-01  0.74282475936E-01  0.46675317036E-01  0.90433400680E-01  0.51100000000E-03 0.  1.
         11    1    4    4    0    0 -0.36811987364E-02  0.34889956293E-01  0.22289550908E-01  0.41568563542E-01  0.51100000000E-03 0. -1.
</event>
<event>
 8    1  0.1183092E+005  0.1043930E+01  0.7957747E-01            NaN
         13   -1    0    0    0    0  0.00000000000E+00  0.00000000000E+00  0.74505805969E-08  0.10566000000E+00  0.10566000000E+00 0.  1.
     999900   -1    0    0    0    0 -0.00000000000E+00 -0.00000000000E+00 -0.74505805969E-08  0.93827000000E+00  0.93827000000E+00 0.  1.
     999902    2    1    2    0    0 -0.19722632767E-01  0.12643540116E-01  0.70210010691E-02  0.10194731849E+01  0.10191797873E+01 0.  0.
     999903    2    3    3    0    0 -0.71560915346E-01  0.10415642365E+00  0.34739265740E-01  0.13277700377E+00  0.21292978981E-01 0.  0.
         14    1    1    2    0    0  0.19722632767E-01 -0.12643540116E-01 -0.70210010691E-02  0.24456815122E-01  0.00000000000E+00 0.  1.
     999901    1    3    3    0    0  0.51838282579E-01 -0.91512883533E-01 -0.27718264671E-01  0.88669618111E+00  0.88000000000E+00 0.  1.
        -11    1    4    4    0    0 -0.34247411281E-01  0.48217737895E-01  0.27241337893E-01  0.65116718578E-01  0.51100000000E-03 0. -1.
         11    1    4    4    0    0 -0.37313504065E-01  0.55938685753E-01  0.74979278473E-02  0.67660285193E-01  0.51100000000E-03 0.  1.
</event>
<event>
 8    1  0.1183092E+005  0.1043930E+01  0.7957747E-01            NaN
         13   -1    0    0    0    0  0.00000000000E+00  0.00000000000E+00  0.74505805969E-08  0.10566000000E+00  0.10566000000E+00 0. -1.
     999900   -1    0    0    0    0 -0.00000000000E+00 -0.00000000000E+00 -0.74505805969E-08  0.93827000000E+00  0.93827000000E+00 0. -1.
     999902    2    1    2    0    0 -0.23090425995E-01  0.62140327345E-02 -0.27921662169E-02  0.10198555703E+01  0.10195713835E+01 0.  0.
     999903    2    3    3    0    0 -0.12139161944E+00 -0.45656805544E-01  0.18256764654E-01  0.13261447225E+00  0.20804317605E-01 0.  0.
         14    1    1    2    0    0  0.23090425995E-01 -0.62140327345E-02  0.27921662169E-02  0.24074429747E-01  0.00000000000E+00 0. -1.
     999901    1    3    3    0    0  0.98301193446E-01  0.51870838279E-01 -0.21048930871E-01  0.88724109800E+00  0.88000000000E+00 0. -1.
        -11    1    4    4    0    0 -0.99684668671E-01 -0.40753670573E-01  0.22329468714E-01  0.10998527687E+00  0.51100000000E-03 0.  1.
         11    1    4    4    0    0 -0.21706950771E-01 -0.49031349712E-02 -0.40727040604E-02  0.22629195383E-01  0.51100000000E-03 0. -1.
</event>
<event>
 8    1  0.1183092E+005  0.1043930E+01  0.7957747E-01            NaN
         13   -1    0    0    0    0  0.00000000000E+00  0.00000000000E+00  0.74505805969E-08  0.10566000000E+00  0.10566000000E+00 0. -1.
     999900   -1    0    0    0    0 -0.00000000000E+00 -0.00000000000E+00 -0.74505805969E-08  0.93827000000E+00  0.93827000000E+00 0. -1.
     999902    2    1    2    0    0 -0.20310970573E-01  0.95539884803E-02  0.79305738837E-02  0.10201243657E+01  0.10198465636E+01 0.  0.
     999903    2    3    3    0    0 -0.96250340594E-01  0.61875575884E-01 -0.63634141773E-01  0.13241616763E+00  0.19799557942E-01 0.  0.
         14    1    1    2    0    0  0.20310970573E-01 -0.95539884803E-02 -0.79305738837E-02  0.23805634283E-01  0.00000000000E+00 0.  1.
     999901    1    3    3    0    0  0.75939370022E-01 -0.52321587403E-01  0.71564715656E-01  0.88770819809E+00  0.88000000000E+00 0.  1.
        -11    1    4    4    0    0 -0.19557539980E-01  0.19935345221E-01 -0.22205137678E-01  0.35682553432E-01  0.51100000000E-03 0.  1.
         11    1    4    4    0    0 -0.76692800614E-01  0.41940230663E-01 -0.41429004095E-01  0.96733614196E-01  0.51100000000E-03 0. -1.
</event>
<event>
 8    1  0.1183092E+005  0.1043930E+01  0.7957747E-01            NaN
         13   -1    0    0    0    0  0.00000000000E+00  0.00000000000E+00  0.74505805969E-08  0.10566000000E+00  0.10566000000E+00 0. -1.
     999900   -1    0    0    0    0 -0.00000000000E+00 -0.00000000000E+00 -0.74505805969E-08  0.93827000000E+00  0.93827000000E+00 0. -1.
     999902    2    1    2    0    0 -0.10806358271E-01 -0.13585839582E-01  0.15013928078E-01  0.10209785196E+01  0.10207205137E+01 0.  0.
     999903    2    3    3    0    0  0.67014218402E-01  0.72128675486E-01 -0.79771816228E-01  0.12834905696E+00  0.20407999980E-01 0.  0.
         14    1    1    2    0    0  0.10806358271E-01  0.13585839582E-01 -0.15013928078E-01  0.22951480400E-01  0.00000000000E+00 0.  1.
     999901    1    3    3    0    0 -0.77820576673E-01 -0.85714515068E-01  0.94785744306E-01  0.89262946264E+00  0.88000000000E+00 0.  1.
        -11    1    4    4    0    0  0.32197035185E-01  0.46946699230E-01 -0.52583810041E-01  0.77498127995E-01  0.51100000000E-03 0.  1.
         11    1    4    4    0    0  0.34817183217E-01  0.25181976256E-01 -0.27188006188E-01  0.50850928967E-01  0.51100000000E-03 0. -1.
</event>
<event>
 8    1  0.1183092E+005  0.1043930E+01  0.7957747E-01            NaN
         13   -1    0    0    0    0  0.00000000000E+00  0.00000000000E+00  0.74505805969E-08  0.10566000000E+00  0.10566000000E+00 0.  1.
     999900   -1    0    0    0    0 -0.00000000000E+00 -0.00000000000E+00 -0.74505805969E-08  0.93827000000E+00  0.93827000000E+00 0.  1.
     999902    2    1    2    0    0 -0.98485198059E-02 -0.18386405411E-01 -0.73194988020E-02  0.10218250614E+01  0.10215859376E+01 0.  0.
     999903    2    3    3    0    0 -0.54540024541E-01 -0.11248813474E+00 -0.46224243146E-01  0.13482672705E+00  0.20331525758E-01 0.  0.
         14    1    1    2    0    0  0.98485198059E-02  0.18386405411E-01  0.73194988020E-02  0.22104938566E-01  0.00000000000E+00 0.  1.
     999901    1    3    3    0    0  0.44691504735E-01  0.94101729329E-01  0.38904744344E-01  0.88699833438E+00  0.88000000000E+00 0.  1.
        -11    1    4    4    0    0 -0.41326199954E-01 -0.92642066319E-01 -0.44918304355E-01  0.11094287918E+00  0.51100000000E-03 0.  1.
         11    1    4    4    0    0 -0.13213824587E-01 -0.19846068421E-01 -0.13059387909E-02  0.23883847871E-01  0.51100000000E-03 0. -1.
</event>
<event>
 8    1  0.1183092E+005  0.1043930E+01  0.7957747E-01            NaN
         13   -1    0    0    0    0  0.00000000000E+00  0.00000000000E+00  0.74505805969E-08  0.10566000000E+00  0.10566000000E+00 0.  1.
     999900   -1    0    0    0    0 -0.00000000000E+00 -0.00000000000E+00 -0.74505805969E-08  0.93827000000E+00  0.93827000000E+00 0.  1.
     999902    2    1    2    0    0 -0.16260495374E-01  0.18078132759E-01 -0.11129994416E-02  0.10195894708E+01  0.10192988902E+01 0.  0.
     999903    2    3    3    0    0  0.36700802103E-01  0.61620251252E-01 -0.10734078580E+00  0.13055338733E+00  0.19445781249E-01 0.  0.
         14    1    1    2    0    0  0.16260495374E-01 -0.18078132759E-01  0.11129994416E-02  0.24340529198E-01  0.00000000000E+00 0.  1.
     999901    1    3    3    0    0 -0.52961297478E-01 -0.43542118492E-01  0.10622778636E+00  0.88903608347E+00  0.88000000000E+00 0. -1.
        -11    1    4    4    0    0  0.86021215687E-02  0.33284926264E-01 -0.48158429990E-01  0.59172445547E-01  0.51100000000E-03 0.  1.
         11    1    4    4    0    0  0.28098680535E-01  0.28335324988E-01 -0.59182355812E-01  0.71380941787E-01  0.51100000000E-03 0. -1.
</event>
<event>
 8    1  0.1183092E+005  0.1043930E+01  0.7957747E-01            NaN
         13   -1    0    0    0    0  0.00000000000E+00  0.00000000000E+00  0.74505805969E-08  0.10566000000E+00  0.10566000000E+00 0. -1.
     999900   -1    0    0    0    0 -0.00000000000E+00 -0.00000000000E+00 -0.74505805969E-08  0.93827000000E+00  0.93827000000E+00 0.  1.
     999902    2    1    2    0    0  0.11387784083E-01  0.13829877215E-01 -0.15509222636E-01  0.10202343650E+01  0.10199591543E+01 0.  0.
     999903    2    3    3    0    0  0.92574390933E-01  0.78226516861E-01  0.48127198268E-01  0.13187194664E+00  0.19610642550E-01 0.  0.
         14    1    1    2    0    0 -0.11387784083E-01 -0.13829877215E-01  0.15509222636E-01  0.23695634975E-01  0.00000000000E+00 0. -1.
     999901    1    3    3    0    0 -0.81186606850E-01 -0.64396639645E-01 -0.63636420903E-01  0.88836241838E+00  0.88000000000E+00 0.  1.
        -11    1    4    4    0    0  0.25705901521E-01  0.26988197400E-01  0.23648767630E-01  0.44143872772E-01  0.51100000000E-03 0. -1.
         11    1    4    4    0    0  0.66868489412E-01  0.51238319461E-01  0.24478430638E-01  0.87728073870E-01  0.51100000000E-03 0.  1.
</event>
<event>
 8    1  0.1183092E+005  0.1043930E+01  0.7957747E-01            NaN
         13   -1    0    0    0    0  0.00000000000E+00  0.00000000000E+00  0.74505805969E-08  0.10566000000E+00  0.10566000000E+00 0.  1.
     999900   -1    0    0    0    0 -0.00000000000E+00 -0.00000000000E+00 -0.74505805969E-08  0.93827000000E+00  0.93827000000E+00 0. -1.
     999902    2    1    2    0    0  0.15171328682E-01  0.17794236734E-01 -0.20445595088E-02  0.10204569453E+01  0.10201869401E+01 0.  0.
     999903    2    3    3    0    0  0.13657601458E-02  0.12231082815E+00 -0.48195630273E-01  0.13296371547E+00  0.19867734404E-01 0.  0.
         14    1    1    2    0    0 -0.15171328682E-01 -0.17794236734E-01  0.20445595088E-02  0.23473054733E-01  0.00000000000E+00 0. -1.
     999901    1    3    3    0    0  0.13805568537E-01 -0.10451659142E+00  0.46151070764E-01  0.88749322980E+00  0.88000000000E+00 0. -1.
        -11    1    4    4    0    0 -0.66897214715E-03  0.21143042730E-01 -0.16792297965E-01  0.27013296199E-01  0.51100000000E-03 0.  1.
         11    1    4    4    0    0  0.20347322929E-02  0.10116778542E+00 -0.31403332308E-01  0.10595041927E+00  0.51100000000E-03 0. -1.
</event>
<event>
 8    1  0.1183092E+005  0.1043930E+01  0.7957747E-01            NaN
         13   -1    0    0    0    0  0.00000000000E+00  0.00000000000E+00  0.74505805969E-08  0.10566000000E+00  0.10566000000E+00 0. -1.
     999900   -1    0    0    0    0 -0.00000000000E+00 -0.00000000000E+00 -0.74505805969E-08  0.93827000000E+00  0.93827000000E+00 0. -1.
     999902    2    1    2    0    0  0.19133266699E-01 -0.12538057400E-01 -0.11306081914E-01  0.10184130984E+01  0.10180933782E+01 0.  0.
     999903    2    3    3    0    0 -0.54331495380E-01  0.91019057113E-01 -0.68249371738E-01  0.12747893391E+00  0.18881782248E-01 0.  0.
         14    1    1    2    0    0 -0.19133266699E-01  0.12538057400E-01  0.11306081914E-01  0.25516901579E-01  0.00000000000E+00 0.  1.
     999901    1    3    3    0    0  0.73464762079E-01 -0.10355711451E+00  0.56943289824E-01  0.89093416451E+00  0.88000000000E+00 0.  1.
        -11    1    4    4    0    0 -0.14058619335E-02  0.38480517451E-02 -0.80721059323E-02  0.90666402372E-02  0.51100000000E-03 0. -1.
         11    1    4    4    0    0 -0.52925633446E-01  0.87171005368E-01 -0.60177265805E-01  0.11841229367E+00  0.51100000000E-03 0.  1.
</event>
<event>
 8    1  0.1183092E+005  0.1043930E+01  0.7957747E-01            NaN
         13   -1    0    0    0    0  0.00000000000E+00  0.00000000000E+00  0.74505805969E-08  0.10566000000E+00  0.10566000000E+00 0. -1.
     999900   -1    0    0    0    0 -0.00000000000E+00 -0.00000000000E+00 -0.74505805969E-08  0.93827000000E+00  0.93827000000E+00 0. -1.
     999902    2    1    2    0    0  0.89097387788E-02  0.11589059216E-01 -0.18767667112E-01  0.10201410306E+01  0.10198636218E+01 0.  0.
     999903    2    3    3    0    0 -0.10617017264E+00  0.48718397014E-01 -0.56285200502E-01  0.13107998706E+00  0.19192484110E-01 0.  0.
         14    1    1    2    0    0 -0.89097387788E-02 -0.11589059216E-01  0.18767667112E-01  0.23788969449E-01  0.00000000000E+00 0. -1.
     999901    1    3    3    0    0  0.11507991142E+00 -0.37129337798E-01  0.37517533390E-01  0.88906104349E+00  0.88000000000E+00 0.  1.
        -11    1    4    4    0    0 -0.79495652580E-01  0.45016251359E-01 -0.41333576464E-01  0.10027336301E+00  0.51100000000E-03 0. -1.
         11    1    4    4    0    0 -0.26674520061E-01  0.37021456547E-02 -0.14951624037E-01  0.30806624049E-01  0.51100000000E-03 0.  1.
</event>
<event>
 8    1  0.1183092E+005  0.1043930E+01  0.7957747E-01            NaN
         13   -1    0    0    0    0  0.00000000000E+00  0.00000000000E+00  0.74505805969E-08  0.10566000000E+00  0.10566000000E+00 0. -1.
     999900   -1    0    0    0    0 -0.00000000000E+00 -0.00000000000E+00 -0.74505805969E-08  0.93827000000E+00  0.93827000000E+00 0. -1.
     999902    2    1    2    0    0  0.13312154567E-01 -0.19796660426E-01  0.58779491396E-03  0.10200664980E+01  0.10197873277E+01 0.  0.
     999903    2    3    3    0    0 -0.74655906056E-01 -0.45427272891E-01  0.94544336979E-01  0.13033443736E+00  0.20280347067E-01 0.  0.
         14    1    1    2    0    0 -0.13312154567E-01  0.19796660426E-01 -0.58779491396E-03  0.23863501967E-01  0.00000000000E+00 0. -1.
     999901    1    3    3    0    0  0.87968060623E-01  0.25630612464E-01 -0.93956542065E-01  0.88973206067E+00  0.88000000000E+00 0. -1.
        -11    1    4    4    0    0 -0.54806781358E-01 -0.23488701974E-01  0.69443908195E-01  0.91532616644E-01  0.51100000000E-03 0.  1.
         11    1    4    4    0    0 -0.19849124698E-01 -0.21938570917E-01  0.25100428783E-01  0.38801820721E-01  0.51100000000E-03 0. -1.
</event>
<event>
 8    1  0.1183092E+005  0.1043930E+01  0.7957747E-01            NaN
         13   -1    0    0    0    0  0.00000000000E+00  0.00000000000E+00  0.74505805969E-08  0.10566000000E+00  0.10566000000E+00 0. -1.
     999900   -1    0    0    0    0 -0.00000000000E+00 -0.00000000000E+00 -0.74505805969E-08  0.93827000000E+00  0.93827000000E+00 0. -1.
     999902    2    1    2    0    0 -0.11139453486E-01 -0.17840934263E-01  0.10526478440E-01  0.10204099424E+01  0.10201388423E+01 0.  0.
     999903    2    3    3    0    0 -0.81969370510E-02 -0.12603595354E+00  0.37775636132E-01  0.13336014835E+00  0.20141477647E-01 0.  0.
         14    1    1    2    0    0  0.11139453486E-01  0.17840934263E-01 -0.10526478440E-01  0.23520057562E-01  0.00000000000E+00 0. -1.
     999901    1    3    3    0    0 -0.29425164353E-02  0.10819501927E+00 -0.27249157692E-01  0.88704979409E+00  0.88000000000E+00 0.  1.
        -11    1    4    4    0    0  0.66324981645E-02 -0.41068145962E-01  0.13878260320E-01  0.43857153067E-01  0.51100000000E-03 0.  1.
         11    1    4    4    0    0 -0.14829435215E-01 -0.84967807574E-01  0.23897375812E-01  0.89502995282E-01  0.51100000000E-03 0. -1.
</event>
<event>
 8    1  0.1183092E+005  0.1043930E+01  0.7957747E-01            NaN
         13   -1    0    0    0    0  0.00000000000E+00  0.00000000000E+00  0.74505805969E-08  0.10566000000E+00  0.10566000000E+00 0.  1.
     999900   -1    0    0    0    0 -0.00000000000E+00 -0.00000000000E+00 -0.74505805969E-08  0.93827000000E+00  0.93827000000E+00 0.  1.
     999902    2    1    2    0    0  0.20936546802E-01 -0.12160565144E-01  0.15452412470E-02  0.10196687942E+01  0.10193801272E+01 0.  0.
     999903    2    3    3    0    0 -0.61675221389E-02 -0.96221032382E-01 -0.86692400235E-01  0.13085684891E+00  0.17647018057E-01 0.  0.
         14    1    1    2    0    0 -0.20936546802E-01  0.12160565144E-01 -0.15452412470E-02  0.24261205805E-01  0.00000000000E+00 0.  1.
     999901    1    3    3    0    0  0.27104068941E-01  0.84060467238E-01  0.88237641482E-01  0.88881194528E+00  0.88000000000E+00 0. -1.
        -11    1    4    4    0    0 -0.40900570955E-02 -0.30797576907E-01 -0.39011827872E-01  0.49873872372E-01  0.51100000000E-03 0. -1.
         11    1    4    4    0    0 -0.20774650434E-02 -0.65423455475E-01 -0.47680572362E-01  0.80982976539E-01  0.51100000000E-03 0.  1.
</event>
<event>
 8    1  0.1183092E+005  0.1043930E+01  0.7957747E-01            NaN
         13   -1    0    0    0    0  0.00000000000E+00  0.00000000000E+00  0.74505805969E-08  0.10566000000E+00  0.10566000000E+00 0. -1.
     999900   -1    0    0    0    0 -0.00000000000E+00 -0.00000000000E+00 -0.74505805969E-08  0.93827000000E+00  0.93827000000E+00 0. -1.
     999902    2    1    2    0    0  0.79702977476E-02 -0.99945099206E-02  0.19851874313E-01  0.10203182913E+01  0.10200450494E+01 0.  0.
     999903    2    3    3    0    0  0.17230935221E-01 -0.11571381060E-01  0.13021700858E+00  0.13337482703E+00  0.20039290693E-01 0.  0.
         14    1    1    2    0    0 -0.79702977476E-02  0.99945099206E-02 -0.19851874313E-01  0.23611708716E-01  0.00000000000E+00 0.  1.
     999901    1    3    3    0    0 -0.92606374739E-02  0.15768711394E-02 -0.11036513427E+00  0.88694346426E+00  0.88000000000E+00 0. -1.
        -11    1    4    4    0    0  0.85185805625E-02 -0.16548740430E-01  0.91519487785E-01  0.93394350954E-01  0.51100000000E-03 0.  1.
         11    1    4    4    0    0  0.87123546589E-02  0.49773593700E-02  0.38697520798E-01  0.39980476072E-01  0.51100000000E-03 0. -1.
</event>
<event>
 8    1  0.1183092E+005  0.1043930E+01  0.7957747E-01            NaN
         13   -1    0    0    0    0  0.00000000000E+00  0.00000000000E+00  0.74505805969E-08  0.10566000000E+00  0.10566000000E+00 0.  1.
     999900   -1    0    0    0    0 -0.00000000000E+00 -0.00000000000E+00 -0.74505805969E-08  0.93827000000E+00  0.93827000000E+00 0.  1.
     999902    2    1    2    0    0 -0.27603855851E-02 -0.15009435428E-01 -0.17275044173E-01  0.10208794028E+01  0.10206191381E+01 0.  0.
     999903    2    3    3    0    0  0.35107637882E-01  0.11699865964E+00 -0.39495004886E-01  0.12995075749E+00  0.20152205026E-01 0.  0.
         14    1    1    2    0    0  0.27603855851E-02  0.15009435428E-01  0.17275044173E-01  0.23050597207E-01  0.00000000000E+00 0.  1.
     999901    1    3    3    0    0 -0.37868023467E-01 -0.13200809506E+00  0.22219960713E-01  0.89092864530E+00  0.88000000000E+00 0. -1.
        -11    1    4    4    0    0  0.16319348292E-01  0.24984967552E-01 -0.11000192701E-01  0.31809355427E-01  0.51100000000E-03 0.  1.
         11    1    4    4    0    0  0.18788289590E-01  0.92013692085E-01 -0.28494812186E-01  0.98141402065E-01  0.51100000000E-03 0. -1.
</event>
<event>
 8    1  0.1183092E+005  0.1043930E+01  0.7957747E-01            NaN
         13   -1    0    0    0    0  0.00000000000E+00  0.00000000000E+00  0.74505805969E-08  0.10566000000E+00  0.10566000000E+00 0. -1.
     999900   -1    0    0    0    0 -0.00000000000E+00 -0.00000000000E+00 -0.74505805969E-08  0.93827000000E+00  0.93827000000E+00 0. -1.
     999902    2    1    2    0    0  0.10732520097E-01 -0.15626673562E-02  0.21658992309E-01  0.10197072655E+01  0.10194195243E+01 0.  0.
     999903    2    3    3    0    0 -0.68534982668E-01 -0.99124408628E-01  0.45555915309E-01  0.13045325611E+00  0.20494349837E-01 0.  0.
         14    1    1    2    0    0 -0.10732520097E-01  0.15626673562E-02 -0.21658992309E-01  0.24222734460E-01  0.00000000000E+00 0.  1.
     999901    1    3    3    0    0  0.79267502764E-01  0.97561741272E-01 -0.23896923000E-01  0.88925400943E+00  0.88000000000E+00 0. -1.
        -11    1    4    4    0    0 -0.29528189174E-01 -0.52855534608E-01  0.31802841713E-01  0.68390813393E-01  0.51100000000E-03 0. -1.
         11    1    4    4    0    0 -0.39006793494E-01 -0.46268874021E-01  0.13753073596E-01  0.62062442718E-01  0.51100000000E-03 0.  1.
</event>
<event>
 8    1  0.1183092E+005  0.1043930E+01  0.7957747E-01            NaN
         13   -1    0    0    0    0  0.00000000000E+00  0.00000000000E+00  0.74505805969E-08  0.10566000000E+00  0.10566000000E+00 0. -1.
     999900   -1    0    0    0    0 -0.00000000000E+00 -0.00000000000E+00 -0.74505805969E-08  0.93827000000E+00  0.93827000000E+00 0.  1.
     999902    2    1    2    0    0 -0.18978387727E-01 -0.12657566167E-01  0.48650845119E-02  0.10206048584E+01  0.10203382845E+01 0.  0.
     999903    2    3    3    0    0 -0.98242869612E-01 -0.63199038802E-01 -0.60924419804E-01  0.13315595431E+00  0.19311740072E-01 0.  0.
         14    1    1    2    0    0  0.18978387727E-01  0.12657566167E-01 -0.48650845119E-02  0.23325141571E-01  0.00000000000E+00 0.  1.
     999901    1    3    3    0    0  0.79264481885E-01  0.50541472635E-01  0.65789504315E-01  0.88744890412E+00  0.88000000000E+00 0. -1.
        -11    1    4    4    0    0 -0.26047916690E-01 -0.21425303434E-01 -0.26603554188E-01  0.42959839473E-01  0.51100000000E-03 0.  1.
         11    1    4    4    0    0 -0.72194952922E-01 -0.41773735367E-01 -0.34320865616E-01  0.90196114837E-01  0.51100000000E-03 0. -1.
</event>
<event>
 8    1  0.1183092E+005  0.1043930E+01  0.7957747E-01            NaN
         13   -1    0    0    0    0  0.00000000000E+00  0.00000000000E+00  0.74505805969E-08  0.10566000000E+00  0.10566000000E+00 0. -1.
     999900   -1    0    0    0    0 -0.00000000000E+00 -0.00000000000E+00 -0.74505805969E-08  0.93827000000E+00  0.93827000000E+00 0. -1.
     999902    2    1    2    0    0  0.13916528709E-01  0.15455043996E-01 -0.12269823615E-01  0.10197830182E+01  0.10194970954E+01 0.  0.
     999903    2    3    3    0    0  0.87900131554E-02 -0.88545664322E-01  0.89608600227E-01  0.12780676198E+00  0.19679130390E-01 0.  0.
         14    1    1    2    0    0 -0.13916528709E-01 -0.15455043996E-01  0.12269823615E-01  0.24146981753E-01  0.00000000000E+00 0. -1.
     999901    1    3    3    0    0  0.51265155532E-02  0.10400070832E+00 -0.10187842384E+00  0.89197625626E+00  0.88000000000E+00 0. -1.
        -11    1    4    4    0    0 -0.12589332989E-02 -0.55998034435E-01  0.46086394873E-01  0.72536760935E-01  0.51100000000E-03 0. -1.
         11    1    4    4    0    0  0.10048946454E-01 -0.32547629886E-01  0.43522205354E-01  0.55270001049E-01  0.51100000000E-03 0.  1.
</event>
<event>
 8    1  0.1183092E+005  0.1043930E+01  0.7957747E-01            NaN
         13   -1    0    0    0    0  0.00000000000E+00  0.00000000000E+00  0.74505805969E-08  0.10566000000E+00  0.10566000000E+00 0. -1.
     999900   -1    0    0    0    0 -0.00000000000E+00 -0.00000000000E+00 -0.74505805969E-08  0.93827000000E+00  0.93827000000E+00 0. -1.
     999902    2    1    2    0    0  0.23123705336E-01  0.16669690402E-02 -0.42366230016E-02  0.10203623631E+01  0.10200901522E+01 0.  0.
     999903    2    3    3    0    0  0.94355546230E-01  0.79739248664E-01 -0.45281962029E-01  0.13308902537E+00  0.20022879584E-01 0.  0.
         14    1    1    2    0    0 -0.23123705336E-01 -0.16669690402E-02  0.42366230016E-02  0.23567636893E-01  0.00000000000E+00 0. -1.
     999901    1    3    3    0    0 -0.71231840894E-01 -0.78072279624E-01  0.41045339028E-01  0.88727333774E+00  0.88000000000E+00 0.  1.
        -11    1    4    4    0    0  0.75985383488E-01  0.65587908833E-01 -0.44715491266E-01  0.10988761791E+00  0.51100000000E-03 0. -1.
         11    1    4    4    0    0  0.18370162743E-01  0.14151339830E-01 -0.56647076330E-03  0.23201407464E-01  0.51100000000E-03 0.  1.
</event>
<event>
 8    1  0.1183092E+005  0.1043930E+01  0.7957747E-01            NaN
         13   -1    0    0    0    0  0.00000000000E+00  0.00000000000E+00  0.74505805969E-08  0.10566000000E+00  0.10566000000E+00 0. -1.
     999900   -1    0    0    0    0 -0.00000000000E+00 -0.00000000000E+00 -0.74505805969E-08  0.93827000000E+00  0.93827000000E+00 0.  1.
     999902    2    1    2    0    0 -0.33438003649E-02 -0.10450421820E-01  0.20901551771E-01  0.10203234928E+01  0.10200503726E+01 0.  0.
     999903    2    3    3    0    0  0.80865922020E-01  0.70590438724E-01  0.72352607135E-01  0.13110692212E+00  0.20780228228E-01 0.  0.
         14    1    1    2    0    0  0.33438003649E-02  0.10450421820E-01 -0.20901551771E-01  0.23606507229E-01  0.00000000000E+00 0.  1.
     999901    1    3    3    0    0 -0.84209722385E-01 -0.81040860544E-01 -0.51451055363E-01  0.88921657065E+00  0.88000000000E+00 0.  1.
        -11    1    4    4    0    0  0.34058799155E-01  0.33841508526E-01  0.44239801931E-01  0.65289131523E-01  0.51100000000E-03 0. -1.
         11    1    4    4    0    0  0.46807122865E-01  0.36748930198E-01  0.28112805204E-01  0.65817790597E-01  0.51100000000E-03 0.  1.
</event>
<event>
 8    1  0.1183092E+005  0.1043930E+01  0.7957747E-01            NaN
         13   -1    0    0    0    0  0.00000000000E+00  0.00000000000E+00  0.74505805969E-08  0.10566000000E+00  0.10566000000E+00 0. -1.
     999900   -1    0    0    0    0 -0.00000000000E+00 -0.00000000000E+00 -0.74505805969E-08  0.93827000000E+00  0.93827000000E+00 0.  1.
     999902    2    1    2    0    0 -0.16038165085E-01 -0.15033760233E-01  0.72052207898E-02  0.10207966498E+01  0.10205344915E+01 0.  0.
     999903    2    3    3    0    0 -0.72293382818E-02 -0.11395413270E+00  0.65862603045E-01  0.13327001693E+00  0.19626697142E-01 0.  0.
         14    1    1    2    0    0  0.16038165085E-01  0.15033760233E-01 -0.72052207898E-02  0.23133350226E-01  0.00000000000E+00 0.  1.
     999901    1    3    3    0    0 -0.88088268034E-02  0.98920372466E-01 -0.58657382255E-01  0.88752663285E+00  0.88000000000E+00 0.  1.
        -11    1    4    4    0    0  0.34709339359E-02 -0.83453813600E-01  0.47030092499E-01  0.95857587640E-01  0.51100000000E-03 0. -1.
         11    1    4    4    0    0 -0.10700272218E-01 -0.30500319100E-01  0.18832510546E-01  0.37412429287E-01  0.51100000000E-03 0.  1.
</event>
<event>
 8    1  0.1183092E+005  0.1043930E+01  0.7957747E-01            NaN
         13   -1    0    0    0    0  0.00000000000E+00  0.00000000000E+00  0.74505805969E-08  0.10566000000E+00  0.10566000000E+00 0.  1.
     999900   -1    0    0    0    0 -0.00000000000E+00 -0.00000000000E+00 -0.74505805969E-08  0.93827000000E+00  0.93827000000E+00 0.  1.
     999902    2    1    2    0    0  0.10514739811E-01  0.18787340299E-01 -0.11619217913E-01  0.10194651245E+01  0.10191715312E+01 0.  0.
     999903    2    3    3    0    0 -0.94969402846E-01 -0.79936855152E-01  0.18504931769E-01  0.12717546552E+00  0.20544542844E-01 0.  0.
         14    1    1    2    0    0 -0.10514739811E-01 -0.18787340299E-01  0.11619217913E-01  0.24464875510E-01  0.00000000000E+00 0. -1.
     999901    1    3    3    0    0  0.10548414266E+00  0.98724195452E-01 -0.30124149682E-01  0.89228965897E+00  0.88000000000E+00 0. -1.
        -11    1    4    4    0    0 -0.58617877612E-01 -0.38826929146E-01  0.40727694225E-02  0.70430352650E-01  0.51100000000E-03 0. -1.
         11    1    4    4    0    0 -0.36351525234E-01 -0.41109926006E-01  0.14432162347E-01  0.56745112865E-01  0.51100000000E-03 0.  1.
</event>
<event>
 8    1  0.1183092E+005  0.1043930E+01  0.7957747E-01            NaN
         13   -1    0    0    0    0  0.00000000000E+00  0.00000000000E+00  0.74505805969E-08  0.10566000000E+00  0.10566000000E+00 0.  1.
     999900   -1    0    0    0    0 -0.00000000000E+00 -0.00000000000E+00 -0.74505805969E-08  0.93827000000E+00  0.93827000000E+00 0.  1.
     999902    2    1    2    0    0  0.61651419774E-03 -0.16945570011E-01  0.15833727239E-01  0.10207300140E+01  0.10204663258E+01 0.  0.
     999903    2    3    3    0    0  0.11899013713E+00 -0.47944361437E-01  0.24349739827E-01  0.13222241011E+00  0.20797629121E-01 0.  0.
         14    1    1    2    0    0 -0.61651419774E-03  0.16945570011E-01 -0.15833727239E-01  0.23199986014E-01  0.00000000000E+00 0. -1.
     999901    1    3    3    0    0 -0.11837362293E+00  0.30998791426E-01 -0.85160125883E-02  0.88850760388E+00  0.88000000000E+00 0.  1.
        -11    1    4    4    0    0  0.97724813716E-01 -0.34600093024E-01  0.26548033852E-01  0.10701572256E+00  0.51100000000E-03 0.  1.
         11    1    4    4    0    0  0.21265323416E-01 -0.13344268413E-01 -0.21982940245E-02  0.25206687547E-01  0.51100000000E-03 0. -1.
</event>
<event>
 8    1  0.1183092E+005  0.1043930E+01  0.7957747E-01            NaN
         13   -1    0    0    0    0  0.00000000000E+00  0.00000000000E+00  0.74505805969E-08  0.10566000000E+00  0.10566000000E+00 0. -1.
     999900   -1    0    0    0    0 -0.00000000000E+00 -0.00000000000E+00 -0.74505805969E-08  0.93827000000E+00  0.93827000000E+00 0. -1.
     999902    2    1    2    0    0 -0.13766257268E-01 -0.15667362113E-01  0.13090065216E-01  0.10193063146E+01  0.10190088504E+01 0.  0.
     999903    2    3    3    0    0  0.88447324134E-01  0.74377212176E-01 -0.47898628279E-01  0.12673964353E+00  0.20341086861E-01 0.  0.
         14    1    1    2    0    0  0.13766257268E-01  0.15667362113E-01 -0.13090065216E-01  0.24623685389E-01  0.00000000000E+00 0. -1.
     999901    1    3    3    0    0 -0.10221358140E+00 -0.90044574290E-01  0.60988693495E-01  0.89256667108E+00  0.88000000000E+00 0.  1.
        -11    1    4    4    0    0  0.65710036210E-01  0.43190759671E-01 -0.29580128729E-01  0.84014854141E-01  0.51100000000E-03 0.  1.
         11    1    4    4    0    0  0.22737287925E-01  0.31186452505E-01 -0.18318499549E-01  0.42724789394E-01  0.51100000000E-03 0. -1.
</event>
<event>
 8    1  0.1183092E+005  0.1043930E+01  0.7957747E-01            NaN
         13   -1    0    0    0    0  0.00000000000E+00  0.00000000000E+00  0.74505805969E-08  0.10566000000E+00  0.10566000000E+00 0.  1.
     999900   -1    0    0    0    0 -0.00000000000E+00 -0.00000000000E+00 -0.74505805969E-08  0.93827000000E+00  0.93827000000E+00 0.  1.
     999902    2    1    2    0    0  0.21392389289E-01 -0.49388827832E-02 -0.86214545159E-02  0.10203427924E+01  0.10200701239E+01 0.  0.
     999903    2    3    3    0    0 -0.23712480044E-01  0.95587087897E-01  0.80733242451E-01  0.12898193291E+00  0.20477048113E-01 0.  0.
         14    1    1    2    0    0 -0.21392389289E-01  0.49388827832E-02  0.86214545159E-02  0.23587207563E-01  0.00000000000E+00 0.  1.
     999901    1    3    3    0    0  0.45104869333E-01 -0.10052597068E+00 -0.89354696966E-01  0.89136085952E+00  0.88000000000E+00 0.  1.
        -11    1    4    4    0    0 -0.14363235190E-01  0.52064002089E-01  0.31169582030E-01  0.62359977578E-01  0.51100000000E-03 0. -1.
         11    1    4    4    0    0 -0.93492448535E-02  0.43523085808E-01  0.49563660420E-01  0.66621955337E-01  0.51100000000E-03 0.  1.
</event>
<event>
 8    1  0.1183092E+005  0.1043930E+01  0.7957747E-01            NaN
         13   -1    0    0    0    0  0.00000000000E+00  0.00000000000E+00  0.74505805969E-08  0.10566000000E+00  0.10566000000E+00 0. -1.
     999900   -1    0    0    0    0 -0.00000000000E+00 -0.00000000000E+00 -0.74505805969E-08  0.93827000000E+00  0.93827000000E+00 0.  1.
     999902    2    1    2    0    0 -0.16704625625E-01  0.16751316408E-01  0.25500819052E-02  0.10201360084E+01  0.10198584812E+01 0.  0.
     999903    2    3    3    0    0 -0.12583471693E+00  0.23598276189E-01  0.29997733846E-01  0.13294401605E+00  0.19570200437E-01 0.  0.
         14    1    1    2    0    0  0.16704625625E-01 -0.16751316408E-01 -0.25500819052E-02  0.23793991602E-01  0.00000000000E+00 0. -1.
     999901    1    3    3    0    0  0.10913009130E+00 -0.68469597816E-02 -0.27447651940E-01  0.88719199235E+00  0.88000000000E+00 0. -1.
        -11    1    4    4    0    0 -0.11365935907E+00  0.18118329173E-01  0.21435875330E-01  0.11707468398E+00  0.51100000000E-03 0. -1.
         11    1    4    4    0    0 -0.12175357853E-01  0.54799470164E-02  0.85618585159E-02  0.15869332071E-01  0.51100000000E-03 0.  1.
</event>
<event>
 8    1  0.1183092E+005  0.1043930E+01  0.7957747E-01            NaN
         13   -1    0    0    0    0  0.00000000000E+00  0.00000000000E+00  0.74505805969E-08  0.10566000000E+00  0.10566000000E+00 0. -1.
     999900   -1    0    0    0    0 -0.00000000000E+00 -0.00000000000E+00 -0.74505805969E-08  0.93827000000E+00  0.93827000000E+00 0.  1.
     999902    2    1    2    0    0  0.58744897655E-02 -0.10299292219E-01  0.20053432511E-01  0.10206335366E+01  0.10203676254E+01 0.  0.
     999903    2    3    3    0    0  0.30455791203E-02 -0.42640873722E-01  0.12518443563E+00  0.13378151490E+00  0.19970757133E-01 0.  0.
         14    1    1    2    0    0 -0.58744897655E-02  0.10299292219E-01 -0.20053432511E-01  0.23296463373E-01  0.00000000000E+00 0.  1.
     999901    1    3    3    0    0  0.28289106452E-02  0.32341581503E-01 -0.10513100312E+00  0.88685202173E+00  0.88000000000E+00 0.  1.
        -11    1    4    4    0    0  0.90384064300E-02 -0.10086160738E-01  0.27882881311E-01  0.31002251861E-01  0.51100000000E-03 0.  1.
         11    1    4    4    0    0 -0.59928273097E-02 -0.32554712984E-01  0.97301554318E-01  0.10277926304E+00  0.51100000000E-03 0. -1.
</event>
<event>
 8    1  0.1183092E+005  0.1043930E+01  0.7957747E-01            NaN
         13   -1    0    0    0    0  0.00000000000E+00  0.00000000000E+00  0.74505805969E-08  0.10566000000E+00  0.10566000000E+00 0.  1.
     999900   -1    0    0    0    0 -0.00000000000E+00 -0.00000000000E+00 -0.74505805969E-08  0.93827000000E+00  0.93827000000E+00 0.  1.
     999902    2    1    2    0    0  0.15912056163E-01 -0.17011798642E-01  0.10914246736E-02  0.10206107798E+01  0.10203443427E+01 0.  0.
     999903    2    3    3    0    0  0.91053454517E-01 -0.52407717497E-01 -0.79215681352E-01  0.13305890405E+00  0.19805235204E-01 0.  0.
         14    1    1    2    0    0 -0.15912056163E-01  0.17011798642E-01 -0.10914246736E-02  0.23319220231E-01  0.00000000000E+00 0.  1.
     999901    1    3    3    0    0 -0.75141398354E-01  0.35395918855E-01  0.80307106026E-01  0.88755187572E+00  0.88000000000E+00 0. -1.
        -11    1    4    4    0    0  0.53522944913E-01 -0.19872941223E-01 -0.45767787188E-01  0.73175070140E-01  0.51100000000E-03 0.  1.
         11    1    4    4    0    0  0.37530509604E-01 -0.32534776275E-01 -0.33447894165E-01  0.59883833907E-01  0.51100000000E-03 0. -1.
</event>
<event>
 8    1  0.1183092E+005  0.1043930E+01  0.7957747E-01            NaN
         13   -1    0    0    0    0  0.00000000000E+00  0.00000000000E+00  0.74505805969E-08  0.10566000000E+00  0.10566000000E+00 0.  1.
     999900   -1    0    0    0    0 -0.00000000000E+00 -0.00000000000E+00 -0.74505805969E-08  0.93827000000E+00  0.93827000000E+00 0.  1.
     999902    2    1    2    0    0  0.11077361659E-01 -0.17748399459E-01  0.11762829077E-01  0.10199283798E+01  0.10196459298E+01 0.  0.
     999903    2    3    3    0    0  0.12584627778E+00  0.10784208817E-01 -0.28644528479E-01  0.13109838008E+00  0.20314808798E-01 0.  0.
         14    1    1    2    0    0 -0.11077361659E-01  0.17748399459E-01 -0.11762829077E-01  0.24001620207E-01  0.00000000000E+00 0.  1.
     999901    1    3    3    0    0 -0.11476891612E+00 -0.28532608275E-01  0.40407357556E-01  0.88882999971E+00  0.88000000000E+00 0. -1.
        -11    1    4    4    0    0  0.76477876710E-01 -0.30522156187E-02 -0.14400541269E-01  0.77883363796E-01  0.51100000000E-03 0. -1.
         11    1    4    4    0    0  0.49368401072E-01  0.13836424435E-01 -0.14243987210E-01  0.53215016285E-01  0.51100000000E-03 0.  1.
</event>
<event>
 8    1  0.1183092E+005  0.1043930E+01  0.7957747E-01            NaN
         13   -1    0    0    0    0  0.00000000000E+00  0.00000000000E+00  0.74505805969E-08  0.10566000000E+00  0.10566000000E+00 0. -1.
     999900   -1    0    0    0    0 -0.00000000000E+00 -0.00000000000E+00 -0.74505805969E-08  0.93827000000E+00  0.93827000000E+00 0. -1.
     999902    2    1    2    0    0  0.94916730545E-02 -0.10899790318E-01  0.18630737371E-01  0.10203503125E+01  0.10200778199E+01 0.  0.
     999903    2    3    3    0    0 -0.11111903674E+00  0.51245417351E-01  0.38645684613E-01  0.12972717771E+00  0.19029413365E-01 0.  0.
         14    1    1    2    0    0 -0.94916730545E-02  0.10899790318E-01 -0.18630737371E-01  0.23579687473E-01  0.00000000000E+00 0.  1.
     999901    1    3    3    0    0  0.12061070979E+00 -0.62145207669E-01 -0.20014947243E-01  0.89062313481E+00  0.88000000000E+00 0. -1.
        -11    1    4    4    0    0 -0.41624241266E-01  0.28808886003E-01  0.12350962881E-01  0.52108893471E-01  0.51100000000E-03 0. -1.
         11    1    4    4    0    0 -0.69494795472E-01  0.22436531348E-01  0.26294721732E-01  0.77618284242E-01  0.51100000000E-03 0.  1.
</event>
<event>
 8    1  0.1183092E+005  0.1043930E+01  0.7957747E-01            NaN
         13   -1    0    0    0    0  0.00000000000E+00  0.00000000000E+00  0.74505805969E-08  0.10566000000E+00  0.10566000000E+00 0. -1.
     999900   -1    0    0    0    0 -0.00000000000E+00 -0.00000000000E+00 -0.74505805969E-08  0.93827000000E+00  0.93827000000E+00 0. -1.
     999902    2    1    2    0    0  0.20426953086E-01 -0.98930464002E-02  0.51314188714E-02  0.10206606158E+01  0.10203953295E+01 0.  0.
     999903    2    3    3    0    0  0.84275865154E-01 -0.73595062744E-01  0.70159406550E-01  0.13366384604E+00  0.20616175759E-01 0.  0.
         14    1    1    2    0    0 -0.20426953086E-01  0.98930464002E-02 -0.51314188714E-02  0.23269384158E-01  0.00000000000E+00 0.  1.
     999901    1    3    3    0    0 -0.63848912069E-01  0.63702016344E-01 -0.65027987679E-01  0.88699676980E+00  0.88000000000E+00 0. -1.
        -11    1    4    4    0    0  0.48288322555E-01 -0.44566938765E-01  0.29262630200E-01  0.71934253130E-01  0.51100000000E-03 0. -1.
         11    1    4    4    0    0  0.35987542599E-01 -0.29028123979E-01  0.40896776350E-01  0.61729592910E-01  0.51100000000E-03 0.  1.
</event>
<event>
 8    1  0.1183092E+005  0.1043930E+01  0.7957747E-01            NaN
         13   -1    0    0    0    0  0.00000000000E+00  0.00000000000E+00  0.74505805969E-08  0.10566000000E+00  0.10566000000E+00 0. -1.
     999900   -1    0    0    0    0 -0.00000000000E+00 -0.00000000000E+00 -0.74505805969E-08  0.93827000000E+00  0.93827000000E+00 0. -1.
     999902    2    1    2    0    0  0.16148226129E-01  0.10058766241E-01  0.14644056378E-01  0.10199218270E+01  0.10196392209E+01 0.  0.
     999903    2    3    3    0    0 -0.11006004681E+00 -0.32132325583E-01 -0.51750665746E-01  0.12744388577E+00  0.20447796097E-01 0.  0.
         14    1    1    2    0    0 -0.16148226129E-01 -0.10058766241E-01 -0.14644056378E-01  0.24008173038E-01  0.00000000000E+00 0.  1.
     999901    1    3    3    0    0  0.12620827293E+00  0.42191091824E-01  0.66394722124E-01  0.89247794119E+00  0.88000000000E+00 0.  1.
        -11    1    4    4    0    0 -0.57172571493E-01 -0.73066963129E-02 -0.30960737266E-01  0.65428733100E-01  0.51100000000E-03 0. -1.
         11    1    4    4    0    0 -0.52887475313E-01 -0.24825629270E-01 -0.20789928480E-01  0.62015152671E-01  0.51100000000E-03 0.  1.
</event>
<event>
 8    1  0.1183092E+005  0.1043930E+01  0.7957747E-01            NaN
         13   -1    0    0    0    0  0.00000000000E+00  0.00000000000E+00  0.74505805969E-08  0.10566000000E+00  0.10566000000E+00 0.  1.
     999900   -1    0    0    0    0 -0.00000000000E+00 -0.00000000000E+00 -0.74505805969E-08  0.93827000000E+00  0.93827000000E+00 0. -1.
     999902    2    1    2    0    0 -0.94196991296E-02  0.19418841674E-01 -0.85325762107E-02  0.10207216610E+01  0.10204577807E+01 0.  0.
     999903    2    3    3    0    0 -0.54662003485E-01 -0.83393748605E-01  0.79715090171E-01  0.12920332384E+00  0.19913597331E-01 0.  0.
         14    1    1    2    0    0  0.94196991296E-02 -0.19418841674E-01  0.85325762107E-02  0.23208339028E-01  0.00000000000E+00 0.  1.
     999901    1    3    3    0    0  0.45242304356E-01  0.10281259028E+00 -0.88247666382E-01  0.89151833713E+00  0.88000000000E+00 0. -1.
        -11    1    4    4    0    0 -0.34061786168E-01 -0.52408059499E-01  0.61814266579E-01  0.87909468495E-01  0.51100000000E-03 0.  1.
         11    1    4    4    0    0 -0.20600217317E-01 -0.30985689106E-01  0.17900823592E-01  0.41293855344E-01  0.51100000000E-03 0. -1.
</event>
<event>
 8    1  0.1183092E+005  0.1043930E+01  0.7957747E-01            NaN
         13   -1    0    0    0    0  0.00000000000E+00  0.00000000000E+00  0.74505805969E-08  0.10566000000E+00  0.10566000000E+00 0.  1.
     999900   -1    0    0    0    0 -0.00000000000E+00 -0.00000000000E+00 -0.74505805969E-08  0.93827000000E+00  0.93827000000E+00 0. -1.
     999902    2    1    2    0    0  0.19399984793E-01 -0.89628250490E-02  0.10093806831E-01  0.10202957753E+01  0.10200220059E+01 0.  0.
     999903    2    3    3    0    0 -0.54752714202E-01 -0.30811260013E-01  0.11308930321E+00  0.13092293491E+00  0.20110468144E-01 0.  0.
         14    1    1    2    0    0 -0.19399984793E-01  0.89628250490E-02 -0.10093806831E-01  0.23634224742E-01  0.00000000000E+00 0.  1.
     999901    1    3    3    0    0  0.74152698994E-01  0.21848434964E-01 -0.10299549638E+00  0.88937284035E+00  0.88000000000E+00 0. -1.
        -11    1    4    4    0    0 -0.32566618411E-01 -0.20899778001E-01  0.49399104913E-01  0.62752832943E-01  0.51100000000E-03 0. -1.
         11    1    4    4    0    0 -0.22186095791E-01 -0.99114820127E-02  0.63690198294E-01  0.68170101965E-01  0.51100000000E-03 0.  1.
</event>
<event>
 8    1  0.1183092E+005  0.1043930E+01  0.7957747E-01            NaN
         13   -1    0    0    0    0  0.00000000000E+00  0.00000000000E+00  0.74505805969E-08  0.10566000000E+00  0.10566000000E+00 0.  1.
     999900   -1    0    0    0    0 -0.00000000000E+00 -0.00000000000E+00 -0.74505805969E-08  0.93827000000E+00  0.93827000000E+00 0. -1.
     999902    2    1    2    0    0  0.12173016714E-01  0.10076884446E-01 -0.19308120112E-01  0.10189794602E+01  0.10186739472E+01 0.  0.
     999903    2    3    3    0    0  0.97718809283E-01  0.67336190766E-02 -0.86647392223E-01  0.13226426484E+00  0.19792873968E-01 0.  0.
         14    1    1    2    0    0 -0.12173016714E-01 -0.10076884446E-01  0.19308120112E-01  0.24950539840E-01  0.00000000000E+00 0.  1.
     999901    1    3    3    0    0 -0.85545792570E-01  0.33432653692E-02  0.67339272111E-01  0.88671519532E+00  0.88000000000E+00 0.  1.
        -11    1    4    4    0    0  0.67524212044E-01 -0.19829038198E-02 -0.67289149771E-01  0.95349577438E-01  0.51100000000E-03 0.  1.
         11    1    4    4    0    0  0.30194597239E-01  0.87165228964E-02 -0.19358242452E-01  0.36914687398E-01  0.51100000000E-03 0. -1.
</event>
<event>
 8    1  0.1183092E+005  0.1043930E+01  0.7957747E-01            NaN
         13   -1    0    0    0    0  0.00000000000E+00  0.00000000000E+00  0.74505805969E-08  0.10566000000E+00  0.10566000000E+00 0. -1.
     999900   -1    0    0    0    0 -0.00000000000E+00 -0.00000000000E+00 -0.74505805969E-08  0.93827000000E+00  0.93827000000E+00 0. -1.
     999902    2    1    2    0    0  0.19064713584E-01 -0.63363493638E-02  0.12832417519E-01  0.10200913011E+01  0.10198127176E+01 0.  0.
     999903    2    3    3    0    0  0.47192479024E-01 -0.11913499143E+00 -0.23362820348E-01  0.13170805039E+00  0.19516990107E-01 0.  0.
         14    1    1    2    0    0 -0.19064713584E-01  0.63363493638E-02 -0.12832417519E-01  0.23838698930E-01  0.00000000000E+00 0.  1.
     999901    1    3    3    0    0 -0.28127765441E-01  0.11279864207E+00  0.36195237867E-01  0.88838325068E+00  0.88000000000E+00 0. -1.
        -11    1    4    4    0    0  0.17696192610E-01 -0.70468192672E-01 -0.14940846331E-01  0.74178240890E-01  0.51100000000E-03 0.  1.
         11    1    4    4    0    0  0.29496286415E-01 -0.48666798762E-01 -0.84219740171E-02  0.57529809502E-01  0.51100000000E-03 0. -1.
</event>
<event>
 8    1  0.1183092E+005  0.1043930E+01  0.7957747E-01            NaN
         13   -1    0    0    0    0  0.00000000000E+00  0.00000000000E+00  0.74505805969E-08  0.10566000000E+00  0.10566000000E+00 0.  1.
     999900   -1    0    0    0    0 -0.00000000000E+00 -0.00000000000E+00 -0.74505805969E-08  0.93827000000E+00  0.93827000000E+00 0.  1.
     999902    2    1    2    0    0  0.22914196123E-01  0.86486071916E-03  0.12675531030E-01  0.10177292852E+01  0.10173919700E+01 0.  0.
     999903    2    3    3    0    0 -0.29226546093E-01  0.58694226156E-01 -0.10617268223E+00  0.12633274591E+00  0.19700788209E-01 0.  0.
         14    1    1    2    0    0 -0.22914196123E-01 -0.86486071916E-03 -0.12675531030E-01  0.26200714779E-01  0.00000000000E+00 0.  1.
     999901    1    3    3    0    0  0.52140742215E-01 -0.57829365437E-01  0.11884821326E+00  0.89139653931E+00  0.88000000000E+00 0. -1.
        -11    1    4    4    0    0 -0.43345738095E-02  0.27776535524E-01 -0.52756310705E-01  0.59781384193E-01  0.51100000000E-03 0. -1.
         11    1    4    4    0    0 -0.24891972283E-01  0.30917690632E-01 -0.53416371525E-01  0.66551361714E-01  0.51100000000E-03 0.  1.
</event>
<event>
 8    1  0.1183092E+005  0.1043930E+01  0.7957747E-01            NaN
         13   -1    0    0    0    0  0.00000000000E+00  0.00000000000E+00  0.74505805969E-08  0.10566000000E+00  0.10566000000E+00 0.  1.
     999900   -1    0    0    0    0 -0.00000000000E+00 -0.00000000000E+00 -0.74505805969E-08  0.93827000000E+00  0.93827000000E+00 0.  1.
     999902    2    1    2    0    0 -0.28157152565E-02  0.24054147635E-01  0.57734295955E-02  0.10190329568E+01  0.10187287688E+01 0.  0.
     999903    2    3    3    0    0  0.10608982815E-01  0.57083330042E-01 -0.11467803739E+00  0.13011242868E+00  0.20177580428E-01 0.  0.
         14    1    1    2    0    0  0.28157152565E-02 -0.24054147635E-01 -0.57734295955E-02  0.24897043201E-01  0.00000000000E+00 0. -1.
     999901    1    3    3    0    0 -0.13424698072E-01 -0.33029182407E-01  0.12045146699E+00  0.88892052812E+00  0.88000000000E+00 0. -1.
        -11    1    4    4    0    0  0.36728611592E-02  0.47651258782E-01 -0.10309432112E+00  0.11363464498E+00  0.51100000000E-03 0.  1.
         11    1    4    4    0    0  0.69361216561E-02  0.94320712608E-02 -0.11583716278E-01  0.16477783701E-01  0.51100000000E-03 0. -1.
</event>
<event>
 7    1  0.1183092E+005  0.1043930E+01  0.7957747E-01            NaN
         13   -1    0    0    0    0  0.00000000000E+00  0.00000000000E+00  0.74505805969E-08  0.10566000000E+00  0.10566000000E+00 0.  1.
     999900   -1    0    0    0    0 -0.00000000000E+00 -0.00000000000E+00 -0.74505805969E-08  0.93827000000E+00  0.93827000000E+00 0.  1.
     999902    2    1    2    0    0 -0.22393969419E-01 -0.19331672577E-02  0.90522754271E-02  0.10196983948E+01  0.10194104402E+01 0.  0.
         14    1    1    2    0    0  0.22393969419E-01  0.19331672577E-02 -0.90522754271E-02  0.24231605237E-01  0.00000000000E+00 0. -1.
     999901    1    3    3    0    0  0.24030466458E-01  0.94495855452E-01  0.72792198337E-01  0.88837246364E+00  0.88000000000E+00 0. -1.
        -11    1    3    3    0    0 -0.42894155248E-01 -0.49337992072E-01 -0.49486719946E-01  0.81995991293E-01  0.51100000000E-03 0. -1.
         11    1    3    3    0    0 -0.35302806279E-02 -0.47091030637E-01 -0.14253202963E-01  0.49329939829E-01  0.51100000000E-03 0.  1.
</event>
<event>
 8    1  0.1183092E+005  0.1043930E+01  0.7957747E-01            NaN
         13   -1    0    0    0    0  0.00000000000E+00  0.00000000000E+00  0.74505805969E-08  0.10566000000E+00  0.10566000000E+00 0. -1.
     999900   -1    0    0    0    0 -0.00000000000E+00 -0.00000000000E+00 -0.74505805969E-08  0.93827000000E+00  0.93827000000E+00 0. -1.
     999902    2    1    2    0    0 -0.15379920613E-01  0.16837710526E-01  0.45384738038E-02  0.10206781571E+01  0.10204132752E+01 0.  0.
     999903    2    3    3    0    0 -0.36206418045E-01  0.11766755788E+00  0.47994905452E-01  0.13361059340E+00  0.19791938660E-01 0.  0.
         14    1    1    2    0    0  0.15379920613E-01 -0.16837710526E-01 -0.45384738038E-02  0.23251842901E-01  0.00000000000E+00 0.  1.
     999901    1    3    3    0    0  0.20826497433E-01 -0.10082984735E+00 -0.43456431648E-01  0.88706756370E+00  0.88000000000E+00 0. -1.
        -11    1    4    4    0    0 -0.34966354433E-01  0.84069408855E-01  0.35975626924E-01  0.97902085274E-01  0.51100000000E-03 0. -1.
         11    1    4    4    0    0 -0.12400636123E-02  0.33598149021E-01  0.12019278528E-01  0.35708508128E-01  0.51100000000E-03 0.  1.
</event>
<event>
 8    1  0.1183092E+005  0.1043930E+01  0.7957747E-01            NaN
         13   -1    0    0    0    0  0.00000000000E+00  0.00000000000E+00  0.74505805969E-08  0.10566000000E+00  0.10566000000E+00 0.  1.
     999900   -1    0    0    0    0 -0.00000000000E+00 -0.00000000000E+00 -0.74505805969E-08  0.93827000000E+00  0.93827000000E+00 0. -1.
     999902    2    1    2    0    0  0.88948181755E-02  0.17753373116E-01 -0.13015594335E-01  0.10201875119E+01  0.10199111989E+01 0.  0.
     999903    2    3    3    0    0  0.52008819671E-01 -0.10642149167E+00 -0.48878760863E-01  0.12970203703E+00  0.20075705019E-01 0.  0.
         14    1    1    2    0    0 -0.88948181755E-02 -0.17753373116E-01  0.13015594335E-01  0.23742488144E-01  0.00000000000E+00 0.  1.
     999901    1    3    3    0    0 -0.43114001496E-01  0.12417486479E+00  0.35863166528E-01  0.89048547483E+00  0.88000000000E+00 0.  1.
        -11    1    4    4    0    0  0.46573698625E-01 -0.10391975722E+00 -0.48193654363E-01  0.12365805589E+00  0.51100000000E-03 0. -1.
         11    1    4    4    0    0  0.54351210456E-02 -0.25017344467E-02 -0.68510650031E-03  0.60439811332E-02  0.51100000000E-03 0.  1.
</event>
<event>
 8    1  0.1183092E+005  0.1043930E+01  0.7957747E-01            NaN
         13   -1    0    0    0    0  0.00000000000E+00  0.00000000000E+00  0.74505805969E-08  0.10566000000E+00  0.10566000000E+00 0.  1.
     999900   -1    0    0    0    0 -0.00000000000E+00 -0.00000000000E+00 -0.74505805969E-08  0.93827000000E+00  0.93827000000E+00 0.  1.
     999902    2    1    2    0    0  0.22898261983E-01 -0.15070437830E-02  0.37180173228E-02  0.10206829521E+01  0.10204181807E+01 0.  0.
     999903    2    3    3    0    0  0.23595875414E-02 -0.11706830154E+00 -0.55610594573E-01  0.13090987675E+00  0.18283947127E-01 0.  0.
         14    1    1    2    0    0 -0.22898261983E-01  0.15070437830E-02 -0.37180173228E-02  0.23247047890E-01  0.00000000000E+00 0. -1.
     999901    1    3    3    0    0  0.20538674441E-01  0.11556125776E+00  0.59328611895E-01  0.88977307536E+00  0.88000000000E+00 0. -1.
        -11    1    4    4    0    0  0.81736898436E-02 -0.10102557325E+00 -0.49284283159E-01  0.11270393669E+00  0.51100000000E-03 0.  1.
         11    1    4    4    0    0 -0.58141023023E-02 -0.16042728291E-01 -0.63263114133E-02  0.18205940067E-01  0.51100000000E-03 0. -1.
</event>
<event>
 8    1  0.1183092E+005  0.1043930E+01  0.7957747E-01            NaN
         13   -1    0    0    0    0  0.00000000000E+00  0.00000000000E+00  0.74505805969E-08  0.10566000000E+00  0.10566000000E+00 0.  1.
     999900   -1    0    0    0    0 -0.00000000000E+00 -0.00000000000E+00 -0.74505805969E-08  0.93827000000E+00  0.93827000000E+00 0. -1.
     999902    2    1    2    0    0  0.95815276647E-03  0.57553156518E-03  0.26287526120E-01  0.10176187225E+01  0.10172785170E+01 0.  0.
     999903    2    3    3    0    0  0.10121587067E-01 -0.90345749117E-01  0.91520454963E-01  0.13048514587E+00  0.19636158171E-01 0.  0.
         14    1    1    2    0    0 -0.95815276647E-03 -0.57553156518E-03 -0.26287526120E-01  0.26311277484E-01  0.00000000000E+00 0. -1.
     999901    1    3    3    0    0 -0.91634343009E-02  0.90921280682E-01 -0.65232928842E-01  0.88713357665E+00  0.88000000000E+00 0. -1.
        -11    1    4    4    0    0 -0.27370306704E-02 -0.31451269548E-01  0.22084627917E-01  0.38531358713E-01  0.51100000000E-03 0.  1.
         11    1    4    4    0    0  0.12858617738E-01 -0.58894479569E-01  0.69435827045E-01  0.91953787156E-01  0.51100000000E-03 0. -1.
</event>
<event>
 8    1  0.1183092E+005  0.1043930E+01  0.7957747E-01            NaN
         13   -1    0    0    0    0  0.00000000000E+00  0.00000000000E+00  0.74505805969E-08  0.10566000000E+00  0.10566000000E+00 0.  1.
     999900   -1    0    0    0    0 -0.00000000000E+00 -0.00000000000E+00 -0.74505805969E-08  0.93827000000E+00  0.93827000000E+00 0. -1.
     999902    2    1    2    0    0 -0.16040333880E-01 -0.10266941798E-01 -0.12652031993E-01  0.10210656977E+01  0.10208096702E+01 0.  0.
     999903    2    3    3    0    0  0.76469253499E-01 -0.10428529336E+00 -0.78723083818E-02  0.13122283523E+00  0.20844426222E-01 0.  0.
         14    1    1    2    0    0  0.16040333880E-01  0.10266941798E-01  0.12652031993E-01  0.22864302273E-01  0.00000000000E+00 0.  1.
     999901    1    3    3    0    0 -0.92509587379E-01  0.94018351557E-01 -0.47797236115E-02  0.88984286250E+00  0.88000000000E+00 0.  1.
        -11    1    4    4    0    0  0.14166208710E-01 -0.35089154125E-01 -0.35306208281E-02  0.38008638635E-01  0.51100000000E-03 0. -1.
         11    1    4    4    0    0  0.62303044789E-01 -0.69196139231E-01 -0.43416875537E-02  0.93214196591E-01  0.51100000000E-03 0.  1.
</event>
<event>
 8    1  0.1183092E+005  0.1043930E+01  0.7957747E-01            NaN
         13   -1    0    0    0    0  0.00000000000E+00  0.00000000000E+00  0.74505805969E-08  0.10566000000E+00  0.10566000000E+00 0. -1.
     999900   -1    0    0    0    0 -0.00000000000E+00 -0.00000000000E+00 -0.74505805969E-08  0.93827000000E+00  0.93827000000E+00 0.  1.
     999902    2    1    2    0    0  0.17410332617E-01 -0.14445649892E-01 -0.72174123973E-02  0.10201836840E+01  0.10199072809E+01 0.  0.
     999903    2    3    3    0    0  0.10818027775E+00  0.78111457225E-02 -0.73626800524E-01  0.13274650045E+00  0.20898352419E-01 0.  0.
         14    1    1    2    0    0 -0.17410332617E-01  0.14445649892E-01  0.72174123973E-02  0.23746316016E-01  0.00000000000E+00 0. -1.
     999901    1    3    3    0    0 -0.90769945135E-01 -0.22256795614E-01  0.66409388126E-01  0.88743718354E+00  0.88000000000E+00 0. -1.
        -11    1    4    4    0    0  0.25633604293E-01 -0.53793397108E-02 -0.11587685848E-01  0.28645323337E-01  0.51100000000E-03 0.  1.
         11    1    4    4    0    0  0.82546673459E-01  0.13190485433E-01 -0.62039114676E-01  0.10410117711E+00  0.51100000000E-03 0. -1.
</event>
<event>
 8    1  0.1183092E+005  0.1043930E+01  0.7957747E-01            NaN
         13   -1    0    0    0    0  0.00000000000E+00  0.00000000000E+00  0.74505805969E-08  0.10566000000E+00  0.10566000000E+00 0. -1.
     999900   -1    0    0    0    0 -0.00000000000E+00 -0.00000000000E+00 -0.74505805969E-08  0.93827000000E+00  0.93827000000E+00 0. -1.
     999902    2    1    2    0    0 -0.12754256185E-01  0.92748259562E-02  0.20173130824E-01  0.10183243628E+01  0.10180023867E+01 0.  0.
     999903    2    3    3    0    0 -0.12014372143E+00  0.30708212257E-01  0.38466009633E-01  0.13134831090E+00  0.19880562896E-01 0.  0.
         14    1    1    2    0    0  0.12754256185E-01 -0.92748259562E-02 -0.20173130824E-01  0.25605637164E-01  0.00000000000E+00 0.  1.
     999901    1    3    3    0    0  0.10738946524E+00 -0.21433386301E-01 -0.18292878809E-01  0.88697605194E+00  0.88000000000E+00 0.  1.
        -11    1    4    4    0    0 -0.53824195005E-01  0.22461817988E-01  0.23365395585E-01  0.62831362129E-01  0.51100000000E-03 0.  1.
         11    1    4    4    0    0 -0.66319526421E-01  0.82463942698E-02  0.15100614048E-01  0.68516948770E-01  0.51100000000E-03 0. -1.
</event>
<event>
 8    1  0.1183092E+005  0.1043930E+01  0.7957747E-01            NaN
         13   -1    0    0    0    0  0.00000000000E+00  0.00000000000E+00  0.74505805969E-08  0.10566000000E+00  0.10566000000E+00 0. -1.
     999900   -1    0    0    0    0 -0.00000000000E+00 -0.00000000000E+00 -0.74505805969E-08  0.93827000000E+00  0.93827000000E+00 0. -1.
     999902    2    1    2    0    0 -0.58874853122E-02 -0.23448603608E-02  0.32156935813E-01  0.10111545614E+01  0.10106232323E+01 0.  0.
     999903    2    3    3    0    0 -0.67320007496E-01 -0.86673757443E-01 -0.47909106389E-01  0.12138161916E+00  0.19846696337E-01 0.  0.
         14    1    1    2    0    0  0.58874853122E-02  0.23448603608E-02 -0.32156935813E-01  0.32775438583E-01  0.00000000000E+00 0.  1.
     999901    1    3    3    0    0  0.61432522184E-01  0.84328897082E-01  0.80066042202E-01  0.88977294226E+00  0.88000000000E+00 0.  1.
        -11    1    4    4    0    0 -0.35302082825E-01 -0.30845227793E-01 -0.24488865046E-01  0.52892634286E-01  0.51100000000E-03 0. -1.
         11    1    4    4    0    0 -0.32017924671E-01 -0.55828529650E-01 -0.23420241343E-01  0.68488984871E-01  0.51100000000E-03 0.  1.
</event>
<event>
 8    1  0.1183092E+005  0.1043930E+01  0.7957747E-01            NaN
         13   -1    0    0    0    0  0.00000000000E+00  0.00000000000E+00  0.74505805969E-08  0.10566000000E+00  0.10566000000E+00 0. -1.
     999900   -1    0    0    0    0 -0.00000000000E+00 -0.00000000000E+00 -0.74505805969E-08  0.93827000000E+00  0.93827000000E+00 0.  1.
     999902    2    1    2    0    0 -0.22308595899E-01  0.59181703241E-02 -0.50382034681E-02  0.10203062474E+01  0.10200327234E+01 0.  0.
     999903    2    3    3    0    0  0.25672438296E-01 -0.12469251070E+00 -0.11251166830E-01  0.12935174211E+00  0.19949639599E-01 0.  0.
         14    1    1    2    0    0  0.22308595899E-01 -0.59181703241E-02  0.50382034681E-02  0.23623752563E-01  0.00000000000E+00 0.  1.
     999901    1    3    3    0    0 -0.47981034195E-01  0.13061068102E+00  0.62129633618E-02  0.89095450532E+00  0.88000000000E+00 0.  1.
        -11    1    4    4    0    0  0.93927000328E-03 -0.48585532253E-01 -0.44921507016E-03  0.48599373325E-01  0.51100000000E-03 0.  1.
         11    1    4    4    0    0  0.24733168293E-01 -0.76106978448E-01 -0.10801951760E-01  0.80752368789E-01  0.51100000000E-03 0. -1.
</event>
<event>
 8    1  0.1183092E+005  0.1043930E+01  0.7957747E-01            NaN
         13   -1    0    0    0    0  0.00000000000E+00  0.00000000000E+00  0.74505805969E-08  0.10566000000E+00  0.10566000000E+00 0. -1.
     999900   -1    0    0    0    0 -0.00000000000E+00 -0.00000000000E+00 -0.74505805969E-08  0.93827000000E+00  0.93827000000E+00 0. -1.
     999902    2    1    2    0    0  0.13865311320E-01  0.19817874691E-01  0.10990798564E-02  0.10197183707E+01  0.10194308964E+01 0.  0.
     999903    2    3    3    0    0  0.47910333914E-01 -0.60365673337E-01  0.10236856723E+00  0.12963749013E+00  0.19675890774E-01 0.  0.
         14    1    1    2    0    0 -0.13865311320E-01 -0.19817874691E-01 -0.10990798564E-02  0.24211629268E-01  0.00000000000E+00 0. -1.
     999901    1    3    3    0    0 -0.34045022594E-01  0.80183548029E-01 -0.10126948737E+00  0.89008088060E+00  0.88000000000E+00 0. -1.
        -11    1    4    4    0    0  0.41611333550E-01 -0.58591338945E-01  0.86460102484E-01  0.11242801484E+00  0.51100000000E-03 0.  1.
         11    1    4    4    0    0  0.62990003643E-02 -0.17743343925E-02  0.15908464745E-01  0.17209475288E-01  0.51100000000E-03 0. -1.
</event>
<event>
 8    1  0.1183092E+005  0.1043930E+01  0.7957747E-01            NaN
         13   -1    0    0    0    0  0.00000000000E+00  0.00000000000E+00  0.74505805969E-08  0.10566000000E+00  0.10566000000E+00 0. -1.
     999900   -1    0    0    0    0 -0.00000000000E+00 -0.00000000000E+00 -0.74505805969E-08  0.93827000000E+00  0.93827000000E+00 0. -1.
     999902    2    1    2    0    0 -0.18902603287E-01 -0.14228318567E-01 -0.40091592920E-02  0.10199336082E+01  0.10196512827E+01 0.  0.
     999903    2    3    3    0    0  0.68286636375E-01 -0.74019657618E-01 -0.80185697203E-01  0.13033828861E+00  0.20404632347E-01 0.  0.
         14    1    1    2    0    0  0.18902603287E-01  0.14228318567E-01  0.40091592920E-02  0.23996391781E-01  0.00000000000E+00 0. -1.
     999901    1    3    3    0    0 -0.87189239662E-01  0.59791339051E-01  0.76176537911E-01  0.88959531961E+00  0.88000000000E+00 0.  1.
        -11    1    4    4    0    0  0.26007005701E-01 -0.36173437511E-01 -0.46243961818E-01  0.64215629347E-01  0.51100000000E-03 0.  1.
         11    1    4    4    0    0  0.42279630674E-01 -0.37846220107E-01 -0.33941735385E-01  0.66122659265E-01  0.51100000000E-03 0. -1.
</event>
<event>
 8    1  0.1183092E+005  0.1043930E+01  0.7957747E-01            NaN
         13   -1    0    0    0    0  0.00000000000E+00  0.00000000000E+00  0.74505805969E-08  0.10566000000E+00  0.10566000000E+00 0. -1.
     999900   -1    0    0    0    0 -0.00000000000E+00 -0.00000000000E+00 -0.74505805969E-08  0.93827000000E+00  0.93827000000E+00 0. -1.
     999902    2    1    2    0    0  0.20995453124E-01 -0.85246038300E-02  0.63871285560E-02  0.10203869897E+01  0.10201153540E+01 0.  0.
     999903    2    3    3    0    0  0.15463635225E-01 -0.21851053751E-01  0.12752557242E+00  0.13197114234E+00  0.20904980887E-01 0.  0.
         14    1    1    2    0    0 -0.20995453124E-01  0.85246038300E-02 -0.63871285560E-02  0.23543010290E-01  0.00000000000E+00 0.  1.
     999901    1    3    3    0    0  0.55318178982E-02  0.13326449921E-01 -0.12113844386E+00  0.88841584737E+00  0.88000000000E+00 0. -1.
        -11    1    4    4    0    0  0.19932303944E-01 -0.13544741301E-01  0.10021785715E+00  0.10307587870E+00  0.51100000000E-03 0. -1.
         11    1    4    4    0    0 -0.44686687184E-02 -0.83063124500E-02  0.27307715269E-01  0.28895263640E-01  0.51100000000E-03 0.  1.
</event>
<event>
 8    1  0.1183092E+005  0.1043930E+01  0.7957747E-01            NaN
         13   -1    0    0    0    0  0.00000000000E+00  0.00000000000E+00  0.74505805969E-08  0.10566000000E+00  0.10566000000E+00 0. -1.
     999900   -1    0    0    0    0 -0.00000000000E+00 -0.00000000000E+00 -0.74505805969E-08  0.93827000000E+00  0.93827000000E+00 0.  1.
     999902    2    1    2    0    0  0.99210208566E-02 -0.20484259239E-01  0.55137215795E-02  0.10205113609E+01  0.10202426207E+01 0.  0.
     999903    2    3    3    0    0  0.87425089562E-01 -0.26912341648E-01  0.94009830101E-01  0.13266015595E+00  0.19835533876E-01 0.  0.
         14    1    1    2    0    0 -0.99210208566E-02  0.20484259239E-01 -0.55137215795E-02  0.23418639095E-01  0.00000000000E+00 0.  1.
     999901    1    3    3    0    0 -0.77504068705E-01  0.64280824092E-02 -0.88496108522E-01  0.88785120495E+00  0.88000000000E+00 0.  1.
        -11    1    4    4    0    0  0.64984159626E-01 -0.19408064854E-01  0.56333196699E-01  0.88166343664E-01  0.51100000000E-03 0. -1.
         11    1    4    4    0    0  0.22440929936E-01 -0.75042767947E-02  0.37676633402E-01  0.44493812290E-01  0.51100000000E-03 0.  1.
</event>
<event>
 8    1  0.1183092E+005  0.1043930E+01  0.7957747E-01            NaN
         13   -1    0    0    0    0  0.00000000000E+00  0.00000000000E+00  0.74505805969E-08  0.10566000000E+00  0.10566000000E+00 0.  1.
     999900   -1    0    0    0    0 -0.00000000000E+00 -0.00000000000E+00 -0.74505805969E-08  0.93827000000E+00  0.93827000000E+00 0. -1.
     999902    2    1    2    0    0  0.75732968435E-02 -0.14472182156E-01 -0.14895310273E-01  0.10218241377E+01  0.10215849936E+01 0.  0.
     999903    2    3    3    0    0  0.18855099221E-01  0.12642757790E+00 -0.16820890546E-01  0.13054206710E+00  0.20465622460E-01 0.  0.
         14    1    1    2    0    0 -0.75732968435E-02  0.14472182156E-01  0.14895310273E-01  0.22105862335E-01  0.00000000000E+00 0.  1.
     999901    1    3    3    0    0 -0.11281802378E-01 -0.14089976006E+00  0.19255802732E-02  0.89128207056E+00  0.88000000000E+00 0.  1.
        -11    1    4    4    0    0  0.23700798266E-02  0.75172060876E-01 -0.47442277013E-02  0.75360631846E-01  0.51100000000E-03 0.  1.
         11    1    4    4    0    0  0.16485019395E-01  0.51255517029E-01 -0.12076662845E-01  0.55181435255E-01  0.51100000000E-03 0. -1.
</event>
<event>
 8    1  0.1183092E+005  0.1043930E+01  0.7957747E-01            NaN
         13   -1    0    0    0    0  0.00000000000E+00  0.00000000000E+00  0.74505805969E-08  0.10566000000E+00  0.10566000000E+00 0.  1.
     999900   -1    0    0    0    0 -0.00000000000E+00 -0.00000000000E+00 -0.74505805969E-08  0.93827000000E+00  0.93827000000E+00 0. -1.
     999902    2    1    2    0    0 -0.18673571927E-01  0.13529639037E-01  0.41614402227E-02  0.10204977358E+01  0.10202286791E+01 0.  0.
     999903    2    3    3    0    0  0.97278763465E-01 -0.80042381305E-01 -0.94056419092E-02  0.12786974341E+00  0.19805669738E-01 0.  0.
         14    1    1    2    0    0  0.18673571927E-01 -0.13529639037E-01 -0.41614402227E-02  0.23432264204E-01  0.00000000000E+00 0. -1.
     999901    1    3    3    0    0 -0.11595233539E+00  0.93572020342E-01  0.13567082132E-01  0.89262799239E+00  0.88000000000E+00 0. -1.
        -11    1    4    4    0    0  0.84925436406E-01 -0.61889180587E-01 -0.35773649168E-02  0.10514589428E+00  0.51100000000E-03 0.  1.
         11    1    4    4    0    0  0.12353327058E-01 -0.18153200718E-01 -0.58282769924E-02  0.22723849133E-01  0.51100000000E-03 0. -1.
</event>
<event>
 8    1  0.1183092E+005  0.1043930E+01  0.7957747E-01            NaN
         13   -1    0    0    0    0  0.00000000000E+00  0.00000000000E+00  0.74505805969E-08  0.10566000000E+00  0.10566000000E+00 0. -1.
     999900   -1    0    0    0    0 -0.00000000000E+00 -0.00000000000E+00 -0.74505805969E-08  0.93827000000E+00  0.93827000000E+00 0.  1.
     999902    2    1    2    0    0 -0.21138220443E-01  0.13300957335E-04 -0.10996661956E-01  0.10201024715E+01  0.10198241521E+01 0.  0.
     999903    2    3    3    0    0  0.68925402374E-01 -0.51563619916E-01 -0.95740554660E-01  0.12996025686E+00  0.17717126349E-01 0.  0.
         14    1    1    2    0    0  0.21138220443E-01 -0.13300957335E-04  0.10996661956E-01  0.23827528504E-01  0.00000000000E+00 0. -1.
     999901    1    3    3    0    0 -0.90063622817E-01  0.51576920873E-01  0.84743892704E-01  0.89014221463E+00  0.88000000000E+00 0. -1.
        -11    1    4    4    0    0  0.10186318395E-01 -0.67277245028E-02 -0.24185949580E-01  0.27096948860E-01  0.51100000000E-03 0. -1.
         11    1    4    4    0    0  0.58739083979E-01 -0.44835895413E-01 -0.71554605080E-01  0.10286330800E+00  0.51100000000E-03 0.  1.
</event>
<event>
 8    1  0.1183092E+005  0.1043930E+01  0.7957747E-01            NaN
         13   -1    0    0    0    0  0.00000000000E+00  0.00000000000E+00  0.74505805969E-08  0.10566000000E+00  0.10566000000E+00 0. -1.
     999900   -1    0    0    0    0 -0.00000000000E+00 -0.00000000000E+00 -0.74505805969E-08  0.93827000000E+00  0.93827000000E+00 0. -1.
     999902    2    1    2    0    0  0.13841300877E-01  0.71427468409E-02  0.17837364908E-01  0.10202493744E+01  0.10199745163E+01 0.  0.
     999903    2    3    3    0    0 -0.33357855870E-01 -0.48841638510E-01  0.11624908722E+00  0.13174114208E+00  0.18537152807E-01 0.  0.
         14    1    1    2    0    0 -0.13841300877E-01 -0.71427468409E-02 -0.17837364908E-01  0.23680625610E-01  0.00000000000E+00 0.  1.
     999901    1    3    3    0    0  0.47199156747E-01  0.55984385351E-01 -0.98411722316E-01  0.88850823231E+00  0.88000000000E+00 0. -1.
        -11    1    4    4    0    0 -0.85530835857E-02 -0.25954791752E-01  0.41089168307E-01  0.49349643635E-01  0.51100000000E-03 0.  1.
         11    1    4    4    0    0 -0.24804772284E-01 -0.22886846758E-01  0.75159918918E-01  0.82391498441E-01  0.51100000000E-03 0. -1.
</event>
<event>
 8    1  0.1183092E+005  0.1043930E+01  0.7957747E-01            NaN
         13   -1    0    0    0    0  0.00000000000E+00  0.00000000000E+00  0.74505805969E-08  0.10566000000E+00  0.10566000000E+00 0.  1.
     999900   -1    0    0    0    0 -0.00000000000E+00 -0.00000000000E+00 -0.74505805969E-08  0.93827000000E+00  0.93827000000E+00 0.  1.
     999902    2    1    2    0    0  0.16833061356E-01 -0.13505048413E-01 -0.13010407673E-01  0.10187306152E+01  0.10184189007E+01 0.  0.
     999903    2    3    3    0    0  0.88161141989E-02  0.12360744603E+00 -0.24898046389E-01  0.12799753310E+00  0.20172535294E-01 0.  0.
         14    1    1    2    0    0 -0.16833061356E-01  0.13505048413E-01  0.13010407673E-01  0.25199384815E-01  0.00000000000E+00 0.  1.
     999901    1    3    3    0    0  0.80169471568E-02 -0.13711249445E+00  0.11887638716E-01  0.89073308209E+00  0.88000000000E+00 0.  1.
        -11    1    4    4    0    0 -0.72390839798E-03  0.99557458404E-01 -0.17549261485E-01  0.10109623765E+00  0.51100000000E-03 0.  1.
         11    1    4    4    0    0  0.95400225969E-02  0.24049987629E-01 -0.73487849042E-02  0.26901295446E-01  0.51100000000E-03 0. -1.
</event>
<event>
 8    1  0.1183092E+005  0.1043930E+01  0.7957747E-01            NaN
         13   -1    0    0    0    0  0.00000000000E+00  0.00000000000E+00  0.74505805969E-08  0.10566000000E+00  0.10566000000E+00 0.  1.
     999900   -1    0    0    0    0 -0.00000000000E+00 -0.00000000000E+00 -0.74505805969E-08  0.93827000000E+00  0.93827000000E+00 0. -1.
     999902    2    1    2    0    0  0.40975942085E-02 -0.20904464545E-01 -0.12841308328E-01  0.10190565982E+01  0.10187529947E+01 0.  0.
     999903    2    3    3    0    0 -0.44902006975E-01 -0.12105661015E+00 -0.19747705568E-01  0.13199453078E+00  0.19018180507E-01 0.  0.
         14    1    1    2    0    0 -0.40975942085E-02  0.20904464545E-01  0.12841308328E-01  0.24873401773E-01  0.00000000000E+00 0.  1.
     999901    1    3    3    0    0  0.48999601183E-01  0.10015214560E+00  0.69063972395E-02  0.88706206745E+00  0.88000000000E+00 0.  1.
        -11    1    4    4    0    0 -0.39677378314E-01 -0.94211672394E-01 -0.90621268481E-02  0.10262805089E+00  0.51100000000E-03 0.  1.
         11    1    4    4    0    0 -0.52246286607E-02 -0.26844937751E-01 -0.10685578719E-01  0.29366479889E-01  0.51100000000E-03 0. -1.
</event>
<event>
 8    1  0.1183092E+005  0.1043930E+01  0.7957747E-01            NaN
         13   -1    0    0    0    0  0.00000000000E+00  0.00000000000E+00  0.74505805969E-08  0.10566000000E+00  0.10566000000E+00 0.  1.
     999900   -1    0    0    0    0 -0.00000000000E+00 -0.00000000000E+00 -0.74505805969E-08  0.93827000000E+00  0.93827000000E+00 0.  1.
     999902    2    1    2    0    0 -0.42231060714E-03 -0.23940947148E-01  0.19342229036E-02  0.10199073333E+01  0.10196243818E+01 0.  0.
     999903    2    3    3    0    0  0.51871361246E-01 -0.11972380541E+00  0.16585565377E-01  0.13304564968E+00  0.20040863756E-01 0.  0.
         14    1    1    2    0    0  0.42231060714E-03  0.23940947148E-01 -0.19342229036E-02  0.24022666689E-01  0.00000000000E+00 0. -1.
     999901    1    3    3    0    0 -0.52293671853E-01  0.95782858266E-01 -0.14651342473E-01  0.88686168363E+00  0.88000000000E+00 0. -1.
        -11    1    4    4    0    0  0.19782409392E-01 -0.34811378718E-01 -0.30930780999E-02  0.40162221836E-01  0.51100000000E-03 0.  1.
         11    1    4    4    0    0  0.32088951854E-01 -0.84912426695E-01  0.19678643477E-01  0.92883427846E-01  0.51100000000E-03 0. -1.
</event>
<event>
 8    1  0.1183092E+005  0.1043930E+01  0.7957747E-01            NaN
         13   -1    0    0    0    0  0.00000000000E+00  0.00000000000E+00  0.74505805969E-08  0.10566000000E+00  0.10566000000E+00 0.  1.
     999900   -1    0    0    0    0 -0.00000000000E+00 -0.00000000000E+00 -0.74505805969E-08  0.93827000000E+00  0.93827000000E+00 0. -1.
     999902    2    1    2    0    0  0.99805956939E-02 -0.11599481086E-01  0.18498586027E-01  0.10199225441E+01  0.10196399551E+01 0.  0.
     999903    2    3    3    0    0 -0.25228634873E-01  0.50817857984E-01  0.11694272435E+00  0.13153813269E+00  0.20192594335E-01 0.  0.
         14    1    1    2    0    0 -0.99805956939E-02  0.11599481086E-01 -0.18498586027E-01  0.24007455860E-01  0.00000000000E+00 0. -1.
     999901    1    3    3    0    0  0.35209230567E-01 -0.62417339070E-01 -0.98444138324E-01  0.88838441145E+00  0.88000000000E+00 0. -1.
        -11    1    4    4    0    0 -0.12947834885E-01  0.41588525507E-01  0.73286786614E-01  0.85255299515E-01  0.51100000000E-03 0.  1.
         11    1    4    4    0    0 -0.12280799988E-01  0.92293324769E-02  0.43655937736E-01  0.46282833177E-01  0.51100000000E-03 0. -1.
</event>
<event>
 8    1  0.1183092E+005  0.1043930E+01  0.7957747E-01            NaN
         13   -1    0    0    0    0  0.00000000000E+00  0.00000000000E+00  0.74505805969E-08  0.10566000000E+00  0.10566000000E+00 0.  1.
     999900   -1    0    0    0    0 -0.00000000000E+00 -0.00000000000E+00 -0.74505805969E-08  0.93827000000E+00  0.93827000000E+00 0.  1.
     999902    2    1    2    0    0 -0.19735782552E-01 -0.10740148221E-01  0.64231681427E-02  0.10205610251E+01  0.10202934367E+01 0.  0.
     999903    2    3    3    0    0 -0.71305187775E-01 -0.11000792956E+00  0.14717030161E-01  0.13344080549E+00  0.20091869643E-01 0.  0.
         14    1    1    2    0    0  0.19735782552E-01  0.10740148221E-01 -0.64231681427E-02  0.23368974854E-01  0.00000000000E+00 0.  1.
     999901    1    3    3    0    0  0.51569405223E-01  0.99267781334E-01 -0.82938620187E-02  0.88712021965E+00  0.88000000000E+00 0. -1.
        -11    1    4    4    0    0 -0.56915630569E-01 -0.99671735517E-01  0.14702392282E-01  0.11571631399E+00  0.51100000000E-03 0.  1.
         11    1    4    4    0    0 -0.14389557206E-01 -0.10336194038E-01  0.14637879218E-04  0.17724491503E-01  0.51100000000E-03 0. -1.
</event>
<event>
 8    1  0.1183092E+005  0.1043930E+01  0.7957747E-01            NaN
         13   -1    0    0    0    0  0.00000000000E+00  0.00000000000E+00  0.74505805969E-08  0.10566000000E+00  0.10566000000E+00 0.  1.
     999900   -1    0    0    0    0 -0.00000000000E+00 -0.00000000000E+00 -0.74505805969E-08  0.93827000000E+00  0.93827000000E+00 0. -1.
     999902    2    1    2    0    0 -0.78156062808E-02 -0.12820451882E-01  0.17944919949E-01  0.10205319693E+01  0.10202637074E+01 0.  0.
     999903    2    3    3    0    0 -0.34175918164E-01 -0.52484849624E-02  0.12696340706E+00  0.13338078081E+00  0.21798761038E-01 0.  0.
         14    1    1    2    0    0  0.78156062808E-02  0.12820451882E-01 -0.17944919949E-01  0.23398030686E-01  0.00000000000E+00 0. -1.
     999901    1    3    3    0    0  0.26360311883E-01 -0.75719669198E-02 -0.10901848711E+00  0.88715118850E+00  0.88000000000E+00 0. -1.
        -11    1    4    4    0    0 -0.25459792693E-01  0.64406488629E-02  0.79726313111E-01  0.83941819881E-01  0.51100000000E-03 0.  1.
         11    1    4    4    0    0 -0.87161254708E-02 -0.11689133825E-01  0.47237093944E-01  0.49438960933E-01  0.51100000000E-03 0. -1.
</event>
<event>
 8    1  0.1185232E+005  0.1043930E+01  0.7957747E-01            NaN
         13   -1    0    0    0    0  0.00000000000E+00  0.00000000000E+00  0.74505805969E-08  0.10566000000E+00  0.10566000000E+00 0.  1.
     999900   -1    0    0    0    0 -0.00000000000E+00 -0.00000000000E+00 -0.74505805969E-08  0.93827000000E+00  0.93827000000E+00 0.  1.
     999902    2    1    2    0    0 -0.15085595706E-01 -0.19153573357E-01 -0.49506871718E-02  0.10190514174E+01  0.10187476858E+01 0.  0.
     999903    2    3    3    0    0 -0.96036612326E-01 -0.62761064099E-01  0.61661941768E-01  0.13175669594E+00  0.19890947418E-01 0.  0.
         14    1    1    2    0    0  0.15085595706E-01  0.19153573357E-01  0.49506871718E-02  0.24878582629E-01  0.00000000000E+00 0.  1.
     999901    1    3    3    0    0  0.80951016620E-01  0.43607490742E-01 -0.66612628940E-01  0.88729472143E+00  0.88000000000E+00 0.  1.
        -11    1    4    4    0    0 -0.34363271849E-01 -0.11998095799E-01  0.22501169130E-01  0.42794304390E-01  0.51100000000E-03 0. -1.
         11    1    4    4    0    0 -0.61673340477E-01 -0.50762968300E-01  0.39160772638E-01  0.88962391553E-01  0.51100000000E-03 0.  1.
</event>
<event>
 8    1  0.1183092E+005  0.1043930E+01  0.7957747E-01            NaN
         13   -1    0    0    0    0  0.00000000000E+00  0.00000000000E+00  0.74505805969E-08  0.10566000000E+00  0.10566000000E+00 0.  1.
     999900   -1    0    0    0    0 -0.00000000000E+00 -0.00000000000E+00 -0.74505805969E-08  0.93827000000E+00  0.93827000000E+00 0.  1.
     999902    2    1    2    0    0  0.18117308816E-01 -0.38090433626E-02 -0.12801577701E-01  0.10214216442E+01  0.10211736136E+01 0.  0.
     999903    2    3    3    0    0  0.67277927919E-01 -0.10043568859E+00 -0.54371310684E-01  0.13379474185E+00  0.18197428234E-01 0.  0.
         14    1    1    2    0    0 -0.18117308816E-01  0.38090433626E-02  0.12801577701E-01  0.22508355820E-01  0.00000000000E+00 0.  1.
     999901    1    3    3    0    0 -0.49160619103E-01  0.96626645225E-01  0.41569732983E-01  0.88762690233E+00  0.88000000000E+00 0. -1.
        -11    1    4    4    0    0  0.35305396057E-01 -0.39178530551E-01 -0.18159792048E-01  0.55780528996E-01  0.51100000000E-03 0. -1.
         11    1    4    4    0    0  0.31972531862E-01 -0.61257158037E-01 -0.36211518637E-01  0.78014212855E-01  0.51100000000E-03 0.  1.
</event>
<event>
 8    1  0.1183092E+005  0.1043930E+01  0.7957747E-01            NaN
         13   -1    0    0    0    0  0.00000000000E+00  0.00000000000E+00  0.74505805969E-08  0.10566000000E+00  0.10566000000E+00 0.  1.
     999900   -1    0    0    0    0 -0.00000000000E+00 -0.00000000000E+00 -0.74505805969E-08  0.93827000000E+00  0.93827000000E+00 0. -1.
     999902    2    1    2    0    0  0.61708837414E-02 -0.40818866121E-02  0.20609913983E-01  0.10220322796E+01  0.10217976661E+01 0.  0.
     999903    2    3    3    0    0 -0.97952261463E-01  0.78513527173E-01  0.34898203704E-01  0.13193802225E+00  0.20754219271E-01 0.  0.
         14    1    1    2    0    0 -0.61708837414E-02  0.40818866121E-02 -0.20609913983E-01  0.21897720403E-01  0.00000000000E+00 0. -1.
     999901    1    3    3    0    0  0.10412314520E+00 -0.82595413786E-01 -0.14288289721E-01  0.89009425735E+00  0.88000000000E+00 0. -1.
        -11    1    4    4    0    0 -0.31943201348E-01  0.22493852650E-01  0.13719563944E-02  0.39095842550E-01  0.51100000000E-03 0. -1.
         11    1    4    4    0    0 -0.66009060115E-01  0.56019674524E-01  0.33526247309E-01  0.92842179696E-01  0.51100000000E-03 0.  1.
</event>
<event>
 8    1  0.1183092E+005  0.1043930E+01  0.7957747E-01            NaN
         13   -1    0    0    0    0  0.00000000000E+00  0.00000000000E+00  0.74505805969E-08  0.10566000000E+00  0.10566000000E+00 0. -1.
     999900   -1    0    0    0    0 -0.00000000000E+00 -0.00000000000E+00 -0.74505805969E-08  0.93827000000E+00  0.93827000000E+00 0.  1.
     999902    2    1    2    0    0 -0.48416309146E-02 -0.23097026779E-01  0.45878129179E-03  0.10203265147E+01  0.10200534654E+01 0.  0.
     999903    2    3    3    0    0  0.10753779828E+00  0.17590866538E-01 -0.67850258424E-01  0.12962411457E+00  0.18026005253E-01 0.  0.
         14    1    1    2    0    0  0.48416309146E-02  0.23097026779E-01 -0.45878129179E-03  0.23603485255E-01  0.00000000000E+00 0.  1.
     999901    1    3    3    0    0 -0.11237942920E+00 -0.40687893316E-01  0.68309039716E-01  0.89070240017E+00  0.88000000000E+00 0. -1.
        -11    1    4    4    0    0  0.18782951887E-01 -0.22460217989E-02 -0.16940016619E-01  0.25398212134E-01  0.51100000000E-03 0.  1.
         11    1    4    4    0    0  0.88754846393E-01  0.19836888337E-01 -0.50910241805E-01  0.10422590244E+00  0.51100000000E-03 0. -1.
</event>
<event>
 8    1  0.1183092E+005  0.1043930E+01  0.7957747E-01            NaN
         13   -1    0    0    0    0  0.00000000000E+00  0.00000000000E+00  0.74505805969E-08  0.10566000000E+00  0.10566000000E+00 0.  1.
     999900   -1    0    0    0    0 -0.00000000000E+00 -0.00000000000E+00 -0.74505805969E-08  0.93827000000E+00  0.93827000000E+00 0.  1.
     999902    2    1    2    0    0 -0.24127307490E-02 -0.23318960870E-01  0.11447574152E-02  0.10204586201E+01  0.10201886539E+01 0.  0.
     999903    2    3    3    0    0 -0.72886809703E-01 -0.31056415522E-01  0.10319694819E+00  0.13172856340E+00  0.20635317443E-01 0.  0.
         14    1    1    2    0    0  0.24127307490E-02  0.23318960870E-01 -0.11447574152E-02  0.23471379918E-01  0.00000000000E+00 0. -1.
     999901    1    3    3    0    0  0.70474078954E-01  0.77374546527E-02 -0.10205219077E+00  0.88873005668E+00  0.88000000000E+00 0.  1.
        -11    1    4    4    0    0 -0.63159711083E-01 -0.27319462700E-01  0.98806399341E-01  0.12040958358E+00  0.51100000000E-03 0. -1.
         11    1    4    4    0    0 -0.97270986201E-02 -0.37369528224E-02  0.43905488486E-02  0.11318979820E-01  0.51100000000E-03 0.  1.
</event>
<event>
 8    1  0.1183092E+005  0.1043930E+01  0.7957747E-01            NaN
         13   -1    0    0    0    0  0.00000000000E+00  0.00000000000E+00  0.74505805969E-08  0.10566000000E+00  0.10566000000E+00 0.  1.
     999900   -1    0    0    0    0 -0.00000000000E+00 -0.00000000000E+00 -0.74505805969E-08  0.93827000000E+00  0.93827000000E+00 0.  1.
     999902    2    1    2    0    0 -0.24557730210E-02  0.22176736050E-01 -0.63065125888E-02  0.10207435698E+01  0.10204801932E+01 0.  0.
     999903    2    3    3    0    0  0.87805195879E-01 -0.24120847163E-01 -0.91732226790E-01  0.13080645893E+00  0.20098770454E-01 0.  0.
         14    1    1    2    0    0  0.24557730210E-02 -0.22176736050E-01  0.63065125888E-02  0.23186430169E-01  0.00000000000E+00 0.  1.
     999901    1    3    3    0    0 -0.90260968900E-01  0.46297583213E-01  0.85425714201E-01  0.88993711090E+00  0.88000000000E+00 0.  1.
        -11    1    4    4    0    0  0.42564035902E-01 -0.19688159276E-01 -0.55577909701E-01  0.72721976978E-01  0.51100000000E-03 0.  1.
         11    1    4    4    0    0  0.45241159977E-01 -0.44326878869E-02 -0.36154317089E-01  0.58084481948E-01  0.51100000000E-03 0. -1.
</event>
<event>
 8    1  0.1183092E+005  0.1043930E+01  0.7957747E-01            NaN
         13   -1    0    0    0    0  0.00000000000E+00  0.00000000000E+00  0.74505805969E-08  0.10566000000E+00  0.10566000000E+00 0.  1.
     999900   -1    0    0    0    0 -0.00000000000E+00 -0.00000000000E+00 -0.74505805969E-08  0.93827000000E+00  0.93827000000E+00 0.  1.
     999902    2    1    2    0    0 -0.26658954067E-02 -0.96623100018E-02  0.21753144118E-01  0.10199786637E+01  0.10196974099E+01 0.  0.
     999903    2    3    3    0    0 -0.10507911567E+00 -0.36929905389E-01 -0.62909389350E-01  0.12958564145E+00  0.20722179895E-01 0.  0.
         14    1    1    2    0    0  0.26658954067E-02  0.96623100018E-02 -0.21753144118E-01  0.23951336328E-01  0.00000000000E+00 0. -1.
     999901    1    3    3    0    0  0.10241322027E+00  0.27267595387E-01  0.84662533467E-01  0.89039302222E+00  0.88000000000E+00 0. -1.
        -11    1    4    4    0    0 -0.53828934319E-01 -0.10659953455E-01 -0.38491475755E-01  0.67030169359E-01  0.51100000000E-03 0. -1.
         11    1    4    4    0    0 -0.51250181355E-01 -0.26269951934E-01 -0.24417913595E-01  0.62555472094E-01  0.51100000000E-03 0.  1.
</event>
<event>
 8    1  0.1183092E+005  0.1043930E+01  0.7957747E-01            NaN
         13   -1    0    0    0    0  0.00000000000E+00  0.00000000000E+00  0.74505805969E-08  0.10566000000E+00  0.10566000000E+00 0. -1.
     999900   -1    0    0    0    0 -0.00000000000E+00 -0.00000000000E+00 -0.74505805969E-08  0.93827000000E+00  0.93827000000E+00 0. -1.
     999902    2    1    2    0    0 -0.15420726031E-01  0.17824505591E-01 -0.82258822707E-03  0.10203463522E+01  0.10200737670E+01 0.  0.
     999903    2    3    3    0    0  0.11397428544E+00  0.11020931688E-01 -0.52199577161E-01  0.12937556000E+00  0.30027337408E-01 0.  0.
         14    1    1    2    0    0  0.15420726031E-01 -0.17824505591E-01  0.82258822707E-03  0.23583647773E-01  0.00000000000E+00 0. -1.
     999901    1    3    3    0    0 -0.12939501147E+00  0.68035739032E-02  0.51376988934E-01  0.89097079223E+00  0.88000000000E+00 0. -1.
        -11    1    4    4    0    0  0.55910503404E-01  0.16830003859E-01 -0.36807745484E-01  0.69023942726E-01  0.51100000000E-03 0. -1.
         11    1    4    4    0    0  0.58063782038E-01 -0.58090721714E-02 -0.15391831677E-01  0.60351617272E-01  0.51100000000E-03 0.  1.
</event>
<event>
 8    1  0.1183092E+005  0.1043930E+01  0.7957747E-01            NaN
         13   -1    0    0    0    0  0.00000000000E+00  0.00000000000E+00  0.74505805969E-08  0.10566000000E+00  0.10566000000E+00 0.  1.
     999900   -1    0    0    0    0 -0.00000000000E+00 -0.00000000000E+00 -0.74505805969E-08  0.93827000000E+00  0.93827000000E+00 0. -1.
     999902    2    1    2    0    0  0.48788263044E-02  0.22740245476E-01 -0.32780633221E-02  0.10204423988E+01  0.10201720550E+01 0.  0.
     999903    2    3    3    0    0  0.42441255323E-01 -0.11916851497E+00 -0.80782809942E-02  0.12826972805E+00  0.19633374530E-01 0.  0.
         14    1    1    2    0    0 -0.48788263044E-02 -0.22740245476E-01  0.32780633221E-02  0.23487601188E-01  0.00000000000E+00 0. -1.
     999901    1    3    3    0    0 -0.37562429019E-01  0.14190876045E+00  0.48002176721E-02  0.89217267076E+00  0.88000000000E+00 0. -1.
        -11    1    4    4    0    0  0.22823322455E-01 -0.47746634741E-01 -0.11356245452E-01  0.54128279196E-01  0.51100000000E-03 0. -1.
         11    1    4    4    0    0  0.19617932869E-01 -0.71421880233E-01  0.32779644576E-02  0.74141448853E-01  0.51100000000E-03 0.  1.
</event>
<event>
 8    1  0.1183092E+005  0.1043930E+01  0.7957747E-01            NaN
         13   -1    0    0    0    0  0.00000000000E+00  0.00000000000E+00  0.74505805969E-08  0.10566000000E+00  0.10566000000E+00 0. -1.
     999900   -1    0    0    0    0 -0.00000000000E+00 -0.00000000000E+00 -0.74505805969E-08  0.93827000000E+00  0.93827000000E+00 0. -1.
     999902    2    1    2    0    0  0.23941543956E-01 -0.54151269299E-02 -0.24442291144E-02  0.10192623008E+01  0.10189637592E+01 0.  0.
     999903    2    3    3    0    0 -0.10847602726E+00 -0.61379368276E-01  0.16468532787E-01  0.12739678291E+00  0.20597387781E-01 0.  0.
         14    1    1    2    0    0 -0.23941543956E-01  0.54151269299E-02  0.24442291144E-02  0.24667699176E-01  0.00000000000E+00 0.  1.
     999901    1    3    3    0    0  0.13241757122E+00  0.55964241346E-01 -0.18912761902E-01  0.89186551791E+00  0.88000000000E+00 0.  1.
        -11    1    4    4    0    0 -0.82591122752E-01 -0.50415680901E-01  0.45845142046E-02  0.96872665544E-01  0.51100000000E-03 0. -1.
         11    1    4    4    0    0 -0.25884904512E-01 -0.10963687375E-01  0.11884018583E-01  0.30524117368E-01  0.51100000000E-03 0.  1.
</event>
<event>
 8    1  0.1183092E+005  0.1043930E+01  0.7957747E-01            NaN
         13   -1    0    0    0    0  0.00000000000E+00  0.00000000000E+00  0.74505805969E-08  0.10566000000E+00  0.10566000000E+00 0.  1.
     999900   -1    0    0    0    0 -0.00000000000E+00 -0.00000000000E+00 -0.74505805969E-08  0.93827000000E+00  0.93827000000E+00 0. -1.
     999902    2    1    2    0    0  0.25809239746E-02 -0.38650380365E-02 -0.22630731950E-01  0.10208269760E+01  0.10205655125E+01 0.  0.
     999903    2    3    3    0    0  0.64204225221E-01  0.55245837275E-01  0.95076602460E-01  0.12889281736E+00  0.19987820295E-01 0.  0.
         14    1    1    2    0    0 -0.25809239746E-02  0.38650380365E-02  0.22630731950E-01  0.23103023961E-01  0.00000000000E+00 0.  1.
     999901    1    3    3    0    0 -0.61623301247E-01 -0.59110875311E-01 -0.11770733441E+00  0.89193415867E+00  0.88000000000E+00 0. -1.
        -11    1    4    4    0    0  0.18832186095E-01  0.22723164164E-01  0.45471156370E-01  0.54211443491E-01  0.51100000000E-03 0.  1.
         11    1    4    4    0    0  0.45372039126E-01  0.32522673111E-01  0.49605446090E-01  0.74681373873E-01  0.51100000000E-03 0. -1.
</event>
<event>
 8    1  0.1183092E+005  0.1043930E+01  0.7957747E-01            NaN
         13   -1    0    0    0    0  0.00000000000E+00  0.00000000000E+00  0.74505805969E-08  0.10566000000E+00  0.10566000000E+00 0.  1.
     999900   -1    0    0    0    0 -0.00000000000E+00 -0.00000000000E+00 -0.74505805969E-08  0.93827000000E+00  0.93827000000E+00 0. -1.
     999902    2    1    2    0    0 -0.16519343441E-01 -0.80485810434E-02 -0.15277078148E-01  0.10200331910E+01  0.10197532315E+01 0.  0.
     999903    2    3    3    0    0  0.37147217530E-01  0.65751614482E-02 -0.12439341974E+00  0.13155115424E+00  0.20219663426E-01 0.  0.
         14    1    1    2    0    0  0.16519343441E-01  0.80485810434E-02  0.15277078148E-01  0.23896809019E-01  0.00000000000E+00 0.  1.
     999901    1    3    3    0    0 -0.53666560971E-01 -0.14623742492E-01  0.10911634159E+00  0.88848203674E+00  0.88000000000E+00 0.  1.
        -11    1    4    4    0    0  0.29444377139E-01  0.11080249791E-02 -0.64475635117E-01  0.70891238593E-01  0.51100000000E-03 0.  1.
         11    1    4    4    0    0  0.77028403910E-02  0.54671364691E-02 -0.59917784621E-01  0.60659915646E-01  0.51100000000E-03 0. -1.
</event>
<event>
 8    1  0.1183092E+005  0.1043930E+01  0.7957747E-01            NaN
         13   -1    0    0    0    0  0.00000000000E+00  0.00000000000E+00  0.74505805969E-08  0.10566000000E+00  0.10566000000E+00 0. -1.
     999900   -1    0    0    0    0 -0.00000000000E+00 -0.00000000000E+00 -0.74505805969E-08  0.93827000000E+00  0.93827000000E+00 0. -1.
     999902    2    1    2    0    0  0.17151460799E-01  0.10891258002E-01  0.11226319240E-01  0.10207174527E+01  0.10204534756E+01 0.  0.
     999903    2    3    3    0    0  0.42669346577E-01  0.19252808081E-01 -0.12029250296E+00  0.13053866245E+00  0.19460533660E-01 0.  0.
         14    1    1    2    0    0 -0.17151460799E-01 -0.10891258002E-01 -0.11226319240E-01  0.23212547298E-01  0.00000000000E+00 0.  1.
     999901    1    3    3    0    0 -0.25517885778E-01 -0.83615500788E-02  0.13151882220E+00  0.89017879025E+00  0.88000000000E+00 0.  1.
        -11    1    4    4    0    0  0.44541525045E-02  0.91136874966E-02 -0.36474329253E-01  0.37862073236E-01  0.51100000000E-03 0. -1.
         11    1    4    4    0    0  0.38215194072E-01  0.10139120584E-01 -0.83818173708E-01  0.92676589217E-01  0.51100000000E-03 0.  1.
</event>
<event>
 8    1  0.1183092E+005  0.1043930E+01  0.7957747E-01            NaN
         13   -1    0    0    0    0  0.00000000000E+00  0.00000000000E+00  0.74505805969E-08  0.10566000000E+00  0.10566000000E+00 0. -1.
     999900   -1    0    0    0    0 -0.00000000000E+00 -0.00000000000E+00 -0.74505805969E-08  0.93827000000E+00  0.93827000000E+00 0. -1.
     999902    2    1    2    0    0  0.23147612266E-01  0.15788574460E-03 -0.41310253436E-02  0.10204161264E+01  0.10201451704E+01 0.  0.
     999903    2    3    3    0    0  0.71434111529E-02 -0.12920522052E+00 -0.20616145321E-02  0.13081215261E+00  0.19040789954E-01 0.  0.
         14    1    1    2    0    0 -0.23147612266E-01 -0.15788574460E-03  0.41310253436E-02  0.23513873605E-01  0.00000000000E+00 0.  1.
     999901    1    3    3    0    0  0.16004201113E-01  0.12936310627E+00 -0.20694108116E-02  0.88960397379E+00  0.88000000000E+00 0.  1.
        -11    1    4    4    0    0  0.27030192738E-02 -0.17348897515E-01  0.60367595188E-02  0.18574018000E-01  0.51100000000E-03 0. -1.
         11    1    4    4    0    0  0.44403918791E-02 -0.11185632301E+00 -0.80983740508E-02  0.11223813461E+00  0.51100000000E-03 0.  1.
</event>
<event>
 8    1  0.1183092E+005  0.1043930E+01  0.7957747E-01            NaN
         13   -1    0    0    0    0  0.00000000000E+00  0.00000000000E+00  0.74505805969E-08  0.10566000000E+00  0.10566000000E+00 0.  1.
     999900   -1    0    0    0    0 -0.00000000000E+00 -0.00000000000E+00 -0.74505805969E-08  0.93827000000E+00  0.93827000000E+00 0. -1.
     999902    2    1    2    0    0 -0.85503830939E-03  0.23197106619E-01  0.44838761935E-02  0.10202880459E+01  0.10200140953E+01 0.  0.
     999903    2    3    3    0    0  0.23962843970E-01  0.14838446752E-01  0.12689581996E+00  0.13142895787E+00  0.19406814501E-01 0.  0.
         14    1    1    2    0    0  0.85503830939E-03 -0.23197106619E-01 -0.44838761935E-02  0.23641954059E-01  0.00000000000E+00 0. -1.
     999901    1    3    3    0    0 -0.24817882279E-01  0.83586598673E-02 -0.12241194377E+00  0.88885908807E+00  0.88000000000E+00 0. -1.
        -11    1    4    4    0    0  0.64414094977E-02  0.14347448678E-01  0.75550219131E-01  0.77171482891E-01  0.51100000000E-03 0.  1.
         11    1    4    4    0    0  0.17521434472E-01  0.49099807408E-03  0.51345600830E-01  0.54257474975E-01  0.51100000000E-03 0. -1.
</event>
<event>
 8    1  0.1183092E+005  0.1043930E+01  0.7957747E-01            NaN
         13   -1    0    0    0    0  0.00000000000E+00  0.00000000000E+00  0.74505805969E-08  0.10566000000E+00  0.10566000000E+00 0. -1.
     999900   -1    0    0    0    0 -0.00000000000E+00 -0.00000000000E+00 -0.74505805969E-08  0.93827000000E+00  0.93827000000E+00 0. -1.
     999902    2    1    2    0    0  0.27761284329E-03  0.24097849738E-01 -0.31473550457E-02  0.10196259000E+01  0.10193361991E+01 0.  0.
     999903    2    3    3    0    0  0.68440489772E-01  0.24041270330E-01  0.10636220823E+00  0.13022243398E+00  0.19567310868E-01 0.  0.
         14    1    1    2    0    0 -0.27761284329E-03 -0.24097849738E-01  0.31473550457E-02  0.24304099956E-01  0.00000000000E+00 0. -1.
     999901    1    3    3    0    0 -0.68162876929E-01  0.56579408468E-04 -0.10950956327E+00  0.88940346606E+00  0.88000000000E+00 0. -1.
        -11    1    4    4    0    0  0.49874345900E-01  0.84391204138E-02  0.66389489739E-01  0.83465529419E-01  0.51100000000E-03 0.  1.
         11    1    4    4    0    0  0.18566143872E-01  0.15602149916E-01  0.39972718487E-01  0.46756904565E-01  0.51100000000E-03 0. -1.
</event>
<event>
 8    1  0.1183092E+005  0.1043930E+01  0.7957747E-01            NaN
         13   -1    0    0    0    0  0.00000000000E+00  0.00000000000E+00  0.74505805969E-08  0.10566000000E+00  0.10566000000E+00 0.  1.
     999900   -1    0    0    0    0 -0.00000000000E+00 -0.00000000000E+00 -0.74505805969E-08  0.93827000000E+00  0.93827000000E+00 0.  1.
     999902    2    1    2    0    0  0.63527248679E-02 -0.14079896630E-01  0.16305598505E-01  0.10214695204E+01  0.10212225555E+01 0.  0.
     999903    2    3    3    0    0 -0.19216641216E-01  0.90850999173E-01 -0.87202652422E-01  0.12884516300E+00  0.19328478676E-01 0.  0.
         14    1    1    2    0    0 -0.63527248679E-02  0.14079896630E-01 -0.16305598505E-01  0.22460479624E-01  0.00000000000E+00 0. -1.
     999901    1    3    3    0    0  0.25569366084E-01 -0.10493089580E+00  0.10350825093E+00  0.89262435738E+00  0.88000000000E+00 0. -1.
        -11    1    4    4    0    0 -0.66888414314E-02  0.60473104281E-01 -0.46778566318E-01  0.76747849017E-01  0.51100000000E-03 0.  1.
         11    1    4    4    0    0 -0.12527799784E-01  0.30377894892E-01 -0.40424086104E-01  0.52097313979E-01  0.51100000000E-03 0. -1.
</event>
<event>
 8    1  0.1183092E+005  0.1043930E+01  0.7957747E-01            NaN
         13   -1    0    0    0    0  0.00000000000E+00  0.00000000000E+00  0.74505805969E-08  0.10566000000E+00  0.10566000000E+00 0.  1.
     999900   -1    0    0    0    0 -0.00000000000E+00 -0.00000000000E+00 -0.74505805969E-08  0.93827000000E+00  0.93827000000E+00 0.  1.
     999902    2    1    2    0    0  0.23724681503E-01  0.15135034983E-02  0.26905490360E-03  0.10201555684E+01  0.10198785027E+01 0.  0.
     999903    2    3    3    0    0  0.43686543013E-01  0.46307525936E-01 -0.11292549932E+00  0.13155105154E+00  0.22374310370E-01 0.  0.
         14    1    1    2    0    0 -0.23724681503E-01 -0.15135034983E-02 -0.26905490360E-03  0.23774431555E-01  0.00000000000E+00 0. -1.
     999901    1    3    3    0    0 -0.19961861511E-01 -0.44794022437E-01  0.11319455423E+00  0.88860451691E+00  0.88000000000E+00 0. -1.
        -11    1    4    4    0    0  0.23590535597E-01  0.22221549050E-01 -0.78748267130E-01  0.85157861111E-01  0.51100000000E-03 0. -1.
         11    1    4    4    0    0  0.20096007416E-01  0.24085976886E-01 -0.34177232193E-01  0.46393190427E-01  0.51100000000E-03 0.  1.
</event>
<event>
 8    1  0.1183092E+005  0.1043930E+01  0.7957747E-01            NaN
         13   -1    0    0    0    0  0.00000000000E+00  0.00000000000E+00  0.74505805969E-08  0.10566000000E+00  0.10566000000E+00 0. -1.
     999900   -1    0    0    0    0 -0.00000000000E+00 -0.00000000000E+00 -0.74505805969E-08  0.93827000000E+00  0.93827000000E+00 0.  1.
     999902    2    1    2    0    0 -0.17561667064E-01 -0.16200551448E-01  0.25455627753E-04  0.10200371001E+01  0.10197572333E+01 0.  0.
     999903    2    3    3    0    0 -0.10771923924E+00  0.67278365717E-01  0.22539022670E-01  0.13121542050E+00  0.24076254685E-01 0.  0.
         14    1    1    2    0    0  0.17561667064E-01  0.16200551448E-01 -0.25455627753E-04  0.23892899893E-01  0.00000000000E+00 0.  1.
     999901    1    3    3    0    0  0.90157572173E-01 -0.83478917165E-01 -0.22513567043E-01  0.88882167960E+00  0.88000000000E+00 0.  1.
        -11    1    4    4    0    0 -0.92555725819E-01  0.46893945355E-01  0.16089585244E-01  0.10499876365E+00  0.51100000000E-03 0. -1.
         11    1    4    4    0    0 -0.15163513418E-01  0.20384420362E-01  0.64494374269E-02  0.26216656858E-01  0.51100000000E-03 0.  1.
</event>
<event>
 8    1  0.1183092E+005  0.1043930E+01  0.7957747E-01            NaN
         13   -1    0    0    0    0  0.00000000000E+00  0.00000000000E+00  0.74505805969E-08  0.10566000000E+00  0.10566000000E+00 0.  1.
     999900   -1    0    0    0    0 -0.00000000000E+00 -0.00000000000E+00 -0.74505805969E-08  0.93827000000E+00  0.93827000000E+00 0.  1.
     999902    2    1    2    0    0  0.78437852243E-02  0.55662160619E-02 -0.21018301762E-01  0.10208155730E+01  0.10205538483E+01 0.  0.
     999903    2    3    3    0    0 -0.63677984409E-01  0.93544796095E-01 -0.66263911334E-01  0.13238844638E+00  0.18173613151E-01 0.  0.
         14    1    1    2    0    0 -0.78437852243E-02 -0.55662160619E-02  0.21018301762E-01  0.23114427029E-01  0.00000000000E+00 0.  1.
     999901    1    3    3    0    0  0.71521769633E-01 -0.87978580033E-01  0.45245609572E-01  0.88842712659E+00  0.88000000000E+00 0. -1.
        -11    1    4    4    0    0 -0.26768539417E-01  0.50680090552E-01 -0.25908816653E-01  0.62901146112E-01  0.51100000000E-03 0. -1.
         11    1    4    4    0    0 -0.36909444992E-01  0.42864705543E-01 -0.40355094681E-01  0.69487300269E-01  0.51100000000E-03 0.  1.
</event>
<event>
 8    1  0.1183092E+005  0.1043930E+01  0.7957747E-01            NaN
         13   -1    0    0    0    0  0.00000000000E+00  0.00000000000E+00  0.74505805969E-08  0.10566000000E+00  0.10566000000E+00 0.  1.
     999900   -1    0    0    0    0 -0.00000000000E+00 -0.00000000000E+00 -0.74505805969E-08  0.93827000000E+00  0.93827000000E+00 0. -1.
     999902    2    1    2    0    0 -0.27127840174E-02 -0.71793653593E-02  0.22559002620E-01  0.10201012131E+01  0.10198228640E+01 0.  0.
     999903    2    3    3    0    0 -0.51627473736E-01  0.48017428186E-01 -0.10488569113E+00  0.12786722877E+00  0.19440949992E-01 0.  0.
         14    1    1    2    0    0  0.27127840174E-02  0.71793653593E-02 -0.22559002620E-01  0.23828786862E-01  0.00000000000E+00 0. -1.
     999901    1    3    3    0    0  0.48914689719E-01 -0.55196793545E-01  0.12744469375E+00  0.89223398436E+00  0.88000000000E+00 0.  1.
        -11    1    4    4    0    0 -0.66257236774E-02  0.17499322170E-01 -0.24994922382E-01  0.31227131737E-01  0.51100000000E-03 0. -1.
         11    1    4    4    0    0 -0.45001750059E-01  0.30518106016E-01 -0.79890768749E-01  0.96640097038E-01  0.51100000000E-03 0.  1.
</event>
<event>
 8    1  0.1183092E+005  0.1043930E+01  0.7957747E-01            NaN
         13   -1    0    0    0    0  0.00000000000E+00  0.00000000000E+00  0.74505805969E-08  0.10566000000E+00  0.10566000000E+00 0. -1.
     999900   -1    0    0    0    0 -0.00000000000E+00 -0.00000000000E+00 -0.74505805969E-08  0.93827000000E+00  0.93827000000E+00 0. -1.
     999902    2    1    2    0    0 -0.64388230674E-02 -0.17843513663E-01  0.14105891348E-01  0.10202905078E+01  0.10200166149E+01 0.  0.
     999903    2    3    3    0    0 -0.89441121176E-01  0.39395144983E-01  0.85826847049E-01  0.13163447700E+00  0.20240954887E-01 0.  0.
         14    1    1    2    0    0  0.64388230674E-02  0.17843513663E-01 -0.14105891348E-01  0.23639492233E-01  0.00000000000E+00 0.  1.
     999901    1    3    3    0    0  0.83002298109E-01 -0.57238658646E-01 -0.71720955702E-01  0.88865603077E+00  0.88000000000E+00 0. -1.
        -11    1    4    4    0    0 -0.30353537230E-01  0.23730225573E-01  0.36649699178E-01  0.53178213575E-01  0.51100000000E-03 0.  1.
         11    1    4    4    0    0 -0.59087583946E-01  0.15664919410E-01  0.49177147871E-01  0.78456263423E-01  0.51100000000E-03 0. -1.
</event>
<event>
 8    1  0.1183092E+005  0.1043930E+01  0.7957747E-01            NaN
         13   -1    0    0    0    0  0.00000000000E+00  0.00000000000E+00  0.74505805969E-08  0.10566000000E+00  0.10566000000E+00 0.  1.
     999900   -1    0    0    0    0 -0.00000000000E+00 -0.00000000000E+00 -0.74505805969E-08  0.93827000000E+00  0.93827000000E+00 0.  1.
     999902    2    1    2    0    0 -0.80221553425E-02 -0.19439153366E-01  0.10561287941E-01  0.10203975445E+01  0.10201261551E+01 0.  0.
     999903    2    3    3    0    0 -0.10052119333E+00 -0.79895714837E-01 -0.25629501296E-01  0.13274849160E+00  0.21850746578E-01 0.  0.
         14    1    1    2    0    0  0.80221553425E-02  0.19439153366E-01 -0.10561287941E-01  0.23532455522E-01  0.00000000000E+00 0. -1.
     999901    1    3    3    0    0  0.92499037992E-01  0.60456561471E-01  0.36190789236E-01  0.88764905288E+00  0.88000000000E+00 0. -1.
        -11    1    4    4    0    0 -0.45047518575E-01 -0.24649203041E-01 -0.39241855997E-02  0.51502645504E-01  0.51100000000E-03 0.  1.
         11    1    4    4    0    0 -0.55473674760E-01 -0.55246511796E-01 -0.21705315696E-01  0.81245846094E-01  0.51100000000E-03 0. -1.
</event>
<event>
 8    1  0.1183092E+005  0.1043930E+01  0.7957747E-01            NaN
         13   -1    0    0    0    0  0.00000000000E+00  0.00000000000E+00  0.74505805969E-08  0.10566000000E+00  0.10566000000E+00 0. -1.
     999900   -1    0    0    0    0 -0.00000000000E+00 -0.00000000000E+00 -0.74505805969E-08  0.93827000000E+00  0.93827000000E+00 0. -1.
     999902    2    1    2    0    0  0.10490686163E-01 -0.96019728959E-02  0.18764189570E-01  0.10203854212E+01  0.10201137489E+01 0.  0.
     999903    2    3    3    0    0 -0.67360346372E-01  0.30694491525E-01  0.10701587175E+00  0.13163745485E+00  0.19911168733E-01 0.  0.
         14    1    1    2    0    0 -0.10490686163E-01  0.96019728959E-02 -0.18764189570E-01  0.23544578779E-01  0.00000000000E+00 0.  1.
     999901    1    3    3    0    0  0.77851032535E-01 -0.40296464420E-01 -0.88251682183E-01  0.88874796637E+00  0.88000000000E+00 0. -1.
        -11    1    4    4    0    0 -0.11647748177E-01 -0.23269317608E-02  0.16376422666E-01  0.20236921439E-01  0.51100000000E-03 0. -1.
         11    1    4    4    0    0 -0.55712598195E-01  0.33021423285E-01  0.90639449087E-01  0.11140053342E+00  0.51100000000E-03 0.  1.
</event>
<event>
 8    1  0.1183092E+005  0.1043930E+01  0.7957747E-01            NaN
         13   -1    0    0    0    0  0.00000000000E+00  0.00000000000E+00  0.74505805969E-08  0.10566000000E+00  0.10566000000E+00 0.  1.
     999900   -1    0    0    0    0 -0.00000000000E+00 -0.00000000000E+00 -0.74505805969E-08  0.93827000000E+00  0.93827000000E+00 0.  1.
     999902    2    1    2    0    0  0.11911718167E-01 -0.13949875369E-01 -0.15852666836E-01  0.10196855141E+01  0.10193972496E+01 0.  0.
     999903    2    3    3    0    0  0.22787986783E-01 -0.40269434483E-01  0.11895396946E+00  0.12896454676E+00  0.18463146398E-01 0.  0.
         14    1    1    2    0    0 -0.11911718167E-01  0.13949875369E-01  0.15852666836E-01  0.24244485936E-01  0.00000000000E+00 0.  1.
     999901    1    3    3    0    0 -0.10876268616E-01  0.26319559114E-01 -0.13480663629E+00  0.89072096731E+00  0.88000000000E+00 0.  1.
        -11    1    4    4    0    0  0.12211206646E-01 -0.30456514810E-01  0.99270118314E-01  0.10455395915E+00  0.51100000000E-03 0.  1.
         11    1    4    4    0    0  0.10576780138E-01 -0.98129196727E-02  0.19683851145E-01  0.24410587611E-01  0.51100000000E-03 0. -1.
</event>
<event>
 8    1  0.1183092E+005  0.1043930E+01  0.7957747E-01            NaN
         13   -1    0    0    0    0  0.00000000000E+00  0.00000000000E+00  0.74505805969E-08  0.10566000000E+00  0.10566000000E+00 0.  1.
     999900   -1    0    0    0    0 -0.00000000000E+00 -0.00000000000E+00 -0.74505805969E-08  0.93827000000E+00  0.93827000000E+00 0.  1.
     999902    2    1    2    0    0  0.47189340756E-02 -0.22561431361E-01 -0.93285443563E-02  0.10190641949E+01  0.10187607791E+01 0.  0.
     999903    2    3    3    0    0  0.78540955808E-01 -0.82025440657E-01  0.62812418096E-01  0.13103830689E+00  0.18132384067E-01 0.  0.
         14    1    1    2    0    0 -0.47189340756E-02  0.22561431361E-01  0.93285443563E-02  0.24865805108E-01  0.00000000000E+00 0. -1.
     999901    1    3    3    0    0 -0.73822021733E-01  0.59464009296E-01 -0.72140962452E-01  0.88802588800E+00  0.88000000000E+00 0.  1.
        -11    1    4    4    0    0  0.51304779817E-01 -0.54706603002E-01  0.50970590864E-01  0.90682165271E-01  0.51100000000E-03 0. -1.
         11    1    4    4    0    0  0.27236175991E-01 -0.27318837654E-01  0.11841827232E-01  0.40356141622E-01  0.51100000000E-03 0.  1.
</event>
<event>
 8    1  0.1183092E+005  0.1043930E+01  0.7957747E-01            NaN
         13   -1    0    0    0    0  0.00000000000E+00  0.00000000000E+00  0.74505805969E-08  0.10566000000E+00  0.10566000000E+00 0.  1.
     999900   -1    0    0    0    0 -0.00000000000E+00 -0.00000000000E+00 -0.74505805969E-08  0.93827000000E+00  0.93827000000E+00 0. -1.
     999902    2    1    2    0    0  0.15070319229E-01  0.11646200649E-01 -0.12385518811E-01  0.10212110742E+01  0.10209583285E+01 0.  0.
     999903    2    3    3    0    0  0.90053117728E-01  0.49024327614E-01  0.81044486070E-01  0.13230798039E+00  0.20597190176E-01 0.  0.
         14    1    1    2    0    0 -0.15070319229E-01 -0.11646200649E-01  0.12385518811E-01  0.22718925754E-01  0.00000000000E+00 0. -1.
     999901    1    3    3    0    0 -0.74982798500E-01 -0.37378126965E-01 -0.93430004881E-01  0.88890309385E+00  0.88000000000E+00 0. -1.
        -11    1    4    4    0    0  0.48244047235E-01  0.29938012697E-01  0.56922197621E-01  0.80400064682E-01  0.51100000000E-03 0. -1.
         11    1    4    4    0    0  0.41809070493E-01  0.19086314917E-01  0.24122288449E-01  0.51907915713E-01  0.51100000000E-03 0.  1.
</event>
<event>
 8    1  0.1183092E+005  0.1043930E+01  0.7957747E-01            NaN
         13   -1    0    0    0    0  0.00000000000E+00  0.00000000000E+00  0.74505805969E-08  0.10566000000E+00  0.10566000000E+00 0. -1.
     999900   -1    0    0    0    0 -0.00000000000E+00 -0.00000000000E+00 -0.74505805969E-08  0.93827000000E+00  0.93827000000E+00 0. -1.
     999902    2    1    2    0    0  0.49804584574E-02  0.19378331461E-01  0.65662745589E-02  0.10228719693E+01  0.10226551838E+01 0.  0.
     999903    2    3    3    0    0 -0.62360812469E-01  0.11778697155E+00  0.39498398534E-02  0.13482582579E+00  0.19994010811E-01 0.  0.
         14    1    1    2    0    0 -0.49804584574E-02 -0.19378331461E-01 -0.65662745589E-02  0.21058030730E-01  0.00000000000E+00 0.  1.
     999901    1    3    3    0    0  0.67341270926E-01 -0.98408640085E-01  0.26164347054E-02  0.88804614348E+00  0.88000000000E+00 0.  1.
        -11    1    4    4    0    0 -0.48210105370E-01  0.72539277363E-01  0.65268071440E-02  0.87344269146E-01  0.51100000000E-03 0.  1.
         11    1    4    4    0    0 -0.14150707099E-01  0.45247694183E-01 -0.25769672905E-02  0.47481556648E-01  0.51100000000E-03 0. -1.
</event>
<event>
 8    1  0.1183092E+005  0.1043930E+01  0.7957747E-01            NaN
         13   -1    0    0    0    0  0.00000000000E+00  0.00000000000E+00  0.74505805969E-08  0.10566000000E+00  0.10566000000E+00 0. -1.
     999900   -1    0    0    0    0 -0.00000000000E+00 -0.00000000000E+00 -0.74505805969E-08  0.93827000000E+00  0.93827000000E+00 0. -1.
     999902    2    1    2    0    0 -0.20180395485E-01 -0.11394400972E-01  0.59549101926E-02  0.10200021566E+01  0.10197214609E+01 0.  0.
     999903    2    3    3    0    0  0.76438829227E-01  0.56873865952E-01 -0.82714769303E-01  0.12766917898E+00  0.19497562871E-01 0.  0.
         14    1    1    2    0    0  0.20180395485E-01  0.11394400972E-01 -0.59549101926E-02  0.23927843422E-01  0.00000000000E+00 0. -1.
     999901    1    3    3    0    0 -0.96619224712E-01 -0.68268266923E-01  0.88669679495E-01  0.89233297760E+00  0.88000000000E+00 0.  1.
        -11    1    4    4    0    0  0.21824013386E-01  0.14234456635E-01 -0.12086419510E-01  0.28727164384E-01  0.51100000000E-03 0. -1.
         11    1    4    4    0    0  0.54614815841E-01  0.42639409316E-01 -0.70628349793E-01  0.98942014593E-01  0.51100000000E-03 0.  1.
</event>
<event>
 8    1  0.1183092E+005  0.1043930E+01  0.7957747E-01            NaN
         13   -1    0    0    0    0  0.00000000000E+00  0.00000000000E+00  0.74505805969E-08  0.10566000000E+00  0.10566000000E+00 0.  1.
     999900   -1    0    0    0    0 -0.00000000000E+00 -0.00000000000E+00 -0.74505805969E-08  0.93827000000E+00  0.93827000000E+00 0.  1.
     999902    2    1    2    0    0  0.22178243099E-01 -0.26523554979E-02 -0.95187232340E-02  0.10196500587E+01  0.10193609403E+01 0.  0.
     999903    2    3    3    0    0 -0.80923058124E-01  0.38596072030E-02 -0.98583625881E-01  0.12914186625E+00  0.19885985575E-01 0.  0.
         14    1    1    2    0    0 -0.22178243099E-01  0.26523554979E-02  0.95187232340E-02  0.24279941282E-01  0.00000000000E+00 0. -1.
     999901    1    3    3    0    0  0.10310130122E+00 -0.65119627009E-02  0.89064902647E-01  0.89050819247E+00  0.88000000000E+00 0.  1.
        -11    1    4    4    0    0 -0.63592994377E-01 -0.25329894070E-02 -0.85097561434E-01  0.10626542736E+00  0.51100000000E-03 0.  1.
         11    1    4    4    0    0 -0.17330063747E-01  0.63925966100E-02 -0.13486064447E-01  0.22876438887E-01  0.51100000000E-03 0. -1.
</event>
<event>
 8    1  0.1183092E+005  0.1043930E+01  0.7957747E-01            NaN
         13   -1    0    0    0    0  0.00000000000E+00  0.00000000000E+00  0.74505805969E-08  0.10566000000E+00  0.10566000000E+00 0. -1.
     999900   -1    0    0    0    0 -0.00000000000E+00 -0.00000000000E+00 -0.74505805969E-08  0.93827000000E+00  0.93827000000E+00 0. -1.
     999902    2    1    2    0    0  0.23239078805E-01 -0.28862540263E-02  0.19401178321E-02  0.10204321426E+01  0.10201615599E+01 0.  0.
     999903    2    3    3    0    0  0.65692316907E-01 -0.76782535356E-02 -0.11245300926E+00  0.13200036230E+00  0.20099260662E-01 0.  0.
         14    1    1    2    0    0 -0.23239078805E-01  0.28862540263E-02 -0.19401178321E-02  0.23497857417E-01  0.00000000000E+00 0.  1.
     999901    1    3    3    0    0 -0.42453238103E-01  0.47919995094E-02  0.11439312709E+00  0.88843178028E+00  0.88000000000E+00 0.  1.
        -11    1    4    4    0    0  0.50005322496E-01 -0.61355271108E-03 -0.95707290090E-01  0.10798636591E+00  0.51100000000E-03 0. -1.
         11    1    4    4    0    0  0.15686994411E-01 -0.70647008246E-02 -0.16745719168E-01  0.24013996395E-01  0.51100000000E-03 0.  1.
</event>
<event>
 8    1  0.1183092E+005  0.1043930E+01  0.7957747E-01            NaN
         13   -1    0    0    0    0  0.00000000000E+00  0.00000000000E+00  0.74505805969E-08  0.10566000000E+00  0.10566000000E+00 0. -1.
     999900   -1    0    0    0    0 -0.00000000000E+00 -0.00000000000E+00 -0.74505805969E-08  0.93827000000E+00  0.93827000000E+00 0.  1.
     999902    2    1    2    0    0  0.21136046027E-02 -0.19380864535E-01 -0.13620981883E-01  0.10201473092E+01  0.10198700486E+01 0.  0.
     999903    2    3    3    0    0  0.82335565958E-01 -0.74922439193E-01  0.66343919620E-01  0.13115078779E+00  0.20161749694E-01 0.  0.
         14    1    1    2    0    0 -0.21136046027E-02  0.19380864535E-01  0.13620981883E-01  0.23782690806E-01  0.00000000000E+00 0.  1.
     999901    1    3    3    0    0 -0.80221961355E-01  0.55541574658E-01 -0.79964901503E-01  0.88899652141E+00  0.88000000000E+00 0.  1.
        -11    1    4    4    0    0  0.34047554500E-01 -0.22610647732E-01  0.15719344778E-01  0.43793107672E-01  0.51100000000E-03 0.  1.
         11    1    4    4    0    0  0.48288011458E-01 -0.52311791461E-01  0.50624574842E-01  0.87357680116E-01  0.51100000000E-03 0. -1.
</event>
<event>
 8    1  0.1183092E+005  0.1043930E+01  0.7957747E-01            NaN
         13   -1    0    0    0    0  0.00000000000E+00  0.00000000000E+00  0.74505805969E-08  0.10566000000E+00  0.10566000000E+00 0. -1.
     999900   -1    0    0    0    0 -0.00000000000E+00 -0.00000000000E+00 -0.74505805969E-08  0.93827000000E+00  0.93827000000E+00 0.  1.
     999902    2    1    2    0    0 -0.15365034216E-01 -0.23824457428E-01  0.16281805247E-01  0.10112377038E+01  0.10107091112E+01 0.  0.
     999903    2    3    3    0    0 -0.52751592544E-01  0.10149674185E+00  0.35185706481E-01  0.12137225599E+00  0.20220570299E-01 0.  0.
         14    1    1    2    0    0  0.15365034216E-01  0.23824457428E-01 -0.16281805247E-01  0.32692296192E-01  0.00000000000E+00 0.  1.
     999901    1    3    3    0    0  0.37386558327E-01 -0.12532119927E+00 -0.18903901233E-01  0.88986544781E+00  0.88000000000E+00 0.  1.
        -11    1    4    4    0    0 -0.28278104126E-01  0.67110296608E-01  0.14060388291E-01  0.74171414465E-01  0.51100000000E-03 0. -1.
         11    1    4    4    0    0 -0.24473488418E-01  0.34386445238E-01  0.21125318190E-01  0.47200841529E-01  0.51100000000E-03 0.  1.
</event>
<event>
 8    1  0.1183092E+005  0.1043930E+01  0.7957747E-01            NaN
         13   -1    0    0    0    0  0.00000000000E+00  0.00000000000E+00  0.74505805969E-08  0.10566000000E+00  0.10566000000E+00 0.  1.
     999900   -1    0    0    0    0 -0.00000000000E+00 -0.00000000000E+00 -0.74505805969E-08  0.93827000000E+00  0.93827000000E+00 0. -1.
     999902    2    1    2    0    0 -0.22335944224E-01 -0.18142768230E-02 -0.75252188538E-02  0.10202907334E+01  0.10200168459E+01 0.  0.
     999903    2    3    3    0    0 -0.10988460543E+00 -0.18385752017E-01 -0.70800160262E-01  0.13353084481E+00  0.20128622307E-01 0.  0.
         14    1    1    2    0    0  0.22335944224E-01  0.18142768230E-02  0.75252188538E-02  0.23639266561E-01  0.00000000000E+00 0.  1.
     999901    1    3    3    0    0  0.87548661203E-01  0.16571475194E-01  0.63274941409E-01  0.88675988863E+00  0.88000000000E+00 0.  1.
        -11    1    4    4    0    0 -0.25022040521E-01 -0.14203345927E-03 -0.25046264909E-01  0.35407614891E-01  0.51100000000E-03 0. -1.
         11    1    4    4    0    0 -0.84862564905E-01 -0.18243718557E-01 -0.45753895353E-01  0.98123229921E-01  0.51100000000E-03 0.  1.
</event>
<event>
 8    1  0.1183092E+005  0.1043930E+01  0.7957747E-01            NaN
         13   -1    0    0    0    0  0.00000000000E+00  0.00000000000E+00  0.74505805969E-08  0.10566000000E+00  0.10566000000E+00 0. -1.
     999900   -1    0    0    0    0 -0.00000000000E+00 -0.00000000000E+00 -0.74505805969E-08  0.93827000000E+00  0.93827000000E+00 0.  1.
     999902    2    1    2    0    0 -0.17537129973E-02 -0.21236837298E-01 -0.15540496931E-01  0.10175560391E+01  0.10172141893E+01 0.  0.
     999903    2    3    3    0    0  0.33543488184E-01  0.11348980197E+00  0.35570377163E-01  0.12513826633E+00  0.19728994307E-01 0.  0.
         14    1    1    2    0    0  0.17537129973E-02  0.21236837298E-01  0.15540496931E-01  0.26373960881E-01  0.00000000000E+00 0.  1.
     999901    1    3    3    0    0 -0.35297201181E-01 -0.13472663927E+00 -0.51110874095E-01  0.89241777279E+00  0.88000000000E+00 0.  1.
        -11    1    4    4    0    0  0.30100468887E-01  0.95553223606E-01  0.22515384607E-01  0.10268232776E+00  0.51100000000E-03 0.  1.
         11    1    4    4    0    0  0.34430192961E-02  0.17936578369E-01  0.13054992556E-01  0.22455938571E-01  0.51100000000E-03 0. -1.
</event>
<event>
 8    1  0.1183092E+005  0.1043930E+01  0.7957747E-01            NaN
         13   -1    0    0    0    0  0.00000000000E+00  0.00000000000E+00  0.74505805969E-08  0.10566000000E+00  0.10566000000E+00 0. -1.
     999900   -1    0    0    0    0 -0.00000000000E+00 -0.00000000000E+00 -0.74505805969E-08  0.93827000000E+00  0.93827000000E+00 0.  1.
     999902    2    1    2    0    0 -0.18446977463E-01  0.99240245116E-02  0.11147174461E-01  0.10202016048E+01  0.10199256236E+01 0.  0.
     999903    2    3    3    0    0 -0.63797367885E-02  0.11454338950E+00 -0.60242637846E-01  0.13105182264E+00  0.19609071456E-01 0.  0.
         14    1    1    2    0    0  0.18446977463E-01 -0.99240245116E-02 -0.11147174461E-01  0.23728395194E-01  0.00000000000E+00 0.  1.
     999901    1    3    3    0    0 -0.12067240674E-01 -0.10461936498E+00  0.71389812307E-01  0.88914978217E+00  0.88000000000E+00 0.  1.
        -11    1    4    4    0    0  0.66816651942E-03  0.65853306450E-01 -0.24622561262E-01  0.70310995307E-01  0.51100000000E-03 0.  1.
         11    1    4    4    0    0 -0.70479033079E-02  0.48690083046E-01 -0.35620076584E-01  0.60740827332E-01  0.51100000000E-03 0. -1.
</event>
<event>
 8    1  0.1183092E+005  0.1043930E+01  0.7957747E-01            NaN
         13   -1    0    0    0    0  0.00000000000E+00  0.00000000000E+00  0.74505805969E-08  0.10566000000E+00  0.10566000000E+00 0. -1.
     999900   -1    0    0    0    0 -0.00000000000E+00 -0.00000000000E+00 -0.74505805969E-08  0.93827000000E+00  0.93827000000E+00 0.  1.
     999902    2    1    2    0    0  0.11760421690E-02  0.36240271259E-03  0.26530093125E-01  0.10173713808E+01  0.10170246636E+01 0.  0.
     999903    2    3    3    0    0  0.45564511165E-01  0.16087388483E-02  0.12130669519E+00  0.13116909364E+00  0.20280633859E-01 0.  0.
         14    1    1    2    0    0 -0.11760421690E-02 -0.36240271259E-03 -0.26530093125E-01  0.26558619169E-01  0.00000000000E+00 0.  1.
     999901    1    3    3    0    0 -0.44388468996E-01 -0.12463361357E-02 -0.94776602061E-01  0.88620228720E+00  0.88000000000E+00 0.  1.
        -11    1    4    4    0    0  0.26780592053E-01  0.10352730530E-01  0.61527688096E-01  0.67899165412E-01  0.51100000000E-03 0.  1.
         11    1    4    4    0    0  0.18783919112E-01 -0.87439916821E-02  0.59779007090E-01  0.63269928223E-01  0.51100000000E-03 0. -1.
</event>
<event>
 8    1  0.1183092E+005  0.1043930E+01  0.7957747E-01            NaN
         13   -1    0    0    0    0  0.00000000000E+00  0.00000000000E+00  0.74505805969E-08  0.10566000000E+00  0.10566000000E+00 0.  1.
     999900   -1    0    0    0    0 -0.00000000000E+00 -0.00000000000E+00 -0.74505805969E-08  0.93827000000E+00  0.93827000000E+00 0.  1.
     999902    2    1    2    0    0  0.20855665110E-01 -0.44456933054E-02  0.79932282989E-02  0.10211568875E+01  0.10209029210E+01 0.  0.
     999903    2    3    3    0    0  0.10777731969E+00 -0.10771847931E-01  0.76567540305E-01  0.13419700644E+00  0.20353500004E-01 0.  0.
         14    1    1    2    0    0 -0.20855665110E-01  0.44456933054E-02 -0.79932282989E-02  0.22773112541E-01  0.00000000000E+00 0.  1.
     999901    1    3    3    0    0 -0.86921654579E-01  0.63261546257E-02 -0.68574312006E-01  0.88695988102E+00  0.88000000000E+00 0.  1.
        -11    1    4    4    0    0  0.65238899530E-01 -0.95769255699E-02  0.57791376946E-01  0.87680875256E-01  0.51100000000E-03 0.  1.
         11    1    4    4    0    0  0.42538420158E-01 -0.11949223612E-02  0.18776163359E-01  0.46516131186E-01  0.51100000000E-03 0. -1.
</event>
<event>
 8    1  0.1183092E+005  0.1043930E+01  0.7957747E-01            NaN
         13   -1    0    0    0    0  0.00000000000E+00  0.00000000000E+00  0.74505805969E-08  0.10566000000E+00  0.10566000000E+00 0. -1.
     999900   -1    0    0    0    0 -0.00000000000E+00 -0.00000000000E+00 -0.74505805969E-08  0.93827000000E+00  0.93827000000E+00 0.  1.
     999902    2    1    2    0    0 -0.18684115389E-01  0.90805166525E-02 -0.10147173202E-01  0.10208103747E+01  0.10205485309E+01 0.  0.
     999903    2    3    3    0    0 -0.95685875191E-01  0.80545109313E-01  0.40974752990E-01  0.13308862191E+00  0.19757265862E-01 0.  0.
         14    1    1    2    0    0  0.18684115389E-01 -0.90805166525E-02  0.10147173202E-01  0.23119625312E-01  0.00000000000E+00 0.  1.
     999901    1    3    3    0    0  0.77001759801E-01 -0.71464592661E-01 -0.51121926192E-01  0.88772175278E+00  0.88000000000E+00 0. -1.
        -11    1    4    4    0    0 -0.63028426100E-01  0.41289735573E-01  0.28146983931E-01  0.80435928451E-01  0.51100000000E-03 0. -1.
         11    1    4    4    0    0 -0.32657449091E-01  0.39255373740E-01  0.12827769058E-01  0.52652693460E-01  0.51100000000E-03 0.  1.
</event>
<event>
 8    1  0.1183092E+005  0.1043930E+01  0.7957747E-01            NaN
         13   -1    0    0    0    0  0.00000000000E+00  0.00000000000E+00  0.74505805969E-08  0.10566000000E+00  0.10566000000E+00 0.  1.
     999900   -1    0    0    0    0 -0.00000000000E+00 -0.00000000000E+00 -0.74505805969E-08  0.93827000000E+00  0.93827000000E+00 0.  1.
     999902    2    1    2    0    0 -0.20591880545E-01 -0.10447409360E-01 -0.90051419586E-02  0.10191455999E+01  0.10188441919E+01 0.  0.
     999903    2    3    3    0    0  0.95445928383E-01 -0.74439801190E-01  0.37356943537E-01  0.12801752701E+00  0.18486123069E-01 0.  0.
         14    1    1    2    0    0  0.20591880545E-01  0.10447409360E-01  0.90051419586E-02  0.24784400101E-01  0.00000000000E+00 0.  1.
     999901    1    3    3    0    0 -0.11603780893E+00  0.63992391830E-01 -0.46362085496E-01  0.89112807289E+00  0.88000000000E+00 0.  1.
        -11    1    4    4    0    0  0.18410957127E-01 -0.23015481010E-01  0.13183724115E-01  0.32291599697E-01  0.51100000000E-03 0. -1.
         11    1    4    4    0    0  0.77034971256E-01 -0.51424320180E-01  0.24173219423E-01  0.95725927317E-01  0.51100000000E-03 0.  1.
</event>
<event>
 8    1  0.1183092E+005  0.1043930E+01  0.7957747E-01            NaN
         13   -1    0    0    0    0  0.00000000000E+00  0.00000000000E+00  0.74505805969E-08  0.10566000000E+00  0.10566000000E+00 0. -1.
     999900   -1    0    0    0    0 -0.00000000000E+00 -0.00000000000E+00 -0.74505805969E-08  0.93827000000E+00  0.93827000000E+00 0.  1.
     999902    2    1    2    0    0  0.90135266277E-02  0.25971501183E-01 -0.19617319787E-02  0.10163689600E+01  0.10159952027E+01 0.  0.
     999903    2    3    3    0    0 -0.85290789383E-01 -0.17861591197E-01  0.88163141930E-01  0.12567421039E+00  0.20681208104E-01 0.  0.
         14    1    1    2    0    0 -0.90135266277E-02 -0.25971501183E-01  0.19617319787E-02  0.27561040044E-01  0.00000000000E+00 0. -1.
     999901    1    3    3    0    0  0.94304316011E-01  0.43833092380E-01 -0.90124873908E-01  0.89069474957E+00  0.88000000000E+00 0.  1.
        -11    1    4    4    0    0 -0.20726839045E-01 -0.84096391269E-02  0.34833279455E-01  0.41399787024E-01  0.51100000000E-03 0.  1.
         11    1    4    4    0    0 -0.64563950338E-01 -0.94519520703E-02  0.53329862475E-01  0.84274423367E-01  0.51100000000E-03 0. -1.
</event>
<event>
 8    1  0.1183092E+005  0.1043930E+01  0.7957747E-01            NaN
         13   -1    0    0    0    0  0.00000000000E+00  0.00000000000E+00  0.74505805969E-08  0.10566000000E+00  0.10566000000E+00 0. -1.
     999900   -1    0    0    0    0 -0.00000000000E+00 -0.00000000000E+00 -0.74505805969E-08  0.93827000000E+00  0.93827000000E+00 0. -1.
     999902    2    1    2    0    0  0.30881154119E-02 -0.15504585841E-01  0.16776168272E-01  0.10208785692E+01  0.10206182855E+01 0.  0.
     999903    2    3    3    0    0  0.78695556015E-01 -0.78758239696E-01  0.73008655139E-01  0.13359079044E+00  0.10971996576E-01 0.  0.
         14    1    1    2    0    0 -0.30881154119E-02  0.15504585841E-01 -0.16776168272E-01  0.23051430775E-01  0.00000000000E+00 0.  1.
     999901    1    3    3    0    0 -0.75607440603E-01  0.63253653855E-01 -0.56232486867E-01  0.88728777878E+00  0.88000000000E+00 0.  1.
        -11    1    4    4    0    0  0.24021006932E-01 -0.31365690315E-01  0.26547581451E-01  0.47600950672E-01  0.51100000000E-03 0. -1.
         11    1    4    4    0    0  0.54674549082E-01 -0.47392549381E-01  0.46461073687E-01  0.85989839768E-01  0.51100000000E-03 0.  1.
</event>
<event>
 8    1  0.1183092E+005  0.1043930E+01  0.7957747E-01            NaN
         13   -1    0    0    0    0  0.00000000000E+00  0.00000000000E+00  0.74505805969E-08  0.10566000000E+00  0.10566000000E+00 0. -1.
     999900   -1    0    0    0    0 -0.00000000000E+00 -0.00000000000E+00 -0.74505805969E-08  0.93827000000E+00  0.93827000000E+00 0.  1.
     999902    2    1    2    0    0  0.17707525442E-01  0.31651633511E-02  0.14846585353E-01  0.10206062822E+01  0.10203397412E+01 0.  0.
     999903    2    3    3    0    0  0.72419258973E-01 -0.12445564670E-01  0.10973808198E+00  0.13367817644E+00  0.20687364965E-01 0.  0.
         14    1    1    2    0    0 -0.17707525442E-01 -0.31651633511E-02 -0.14846585353E-01  0.23323717820E-01  0.00000000000E+00 0.  1.
     999901    1    3    3    0    0 -0.54711733531E-01  0.15610728021E-01 -0.94891496630E-01  0.88692810574E+00  0.88000000000E+00 0.  1.
        -11    1    4    4    0    0  0.10981154670E-01 -0.42192934477E-02  0.32957043999E-01  0.34997372262E-01  0.51100000000E-03 0. -1.
         11    1    4    4    0    0  0.61438104303E-01 -0.82262712220E-02  0.76781037984E-01  0.98680804180E-01  0.51100000000E-03 0.  1.
</event>
<event>
 8    1  0.1183092E+005  0.1043930E+01  0.7957747E-01            NaN
         13   -1    0    0    0    0  0.00000000000E+00  0.00000000000E+00  0.74505805969E-08  0.10566000000E+00  0.10566000000E+00 0. -1.
     999900   -1    0    0    0    0 -0.00000000000E+00 -0.00000000000E+00 -0.74505805969E-08  0.93827000000E+00  0.93827000000E+00 0.  1.
     999902    2    1    2    0    0 -0.48714656938E-02  0.18991322588E-01  0.12729068312E-01  0.10205541430E+01  0.10202863951E+01 0.  0.
     999903    2    3    3    0    0  0.73604008369E-01  0.10821304896E+00 -0.12678248801E-02  0.13245796040E+00  0.20393378343E-01 0.  0.
         14    1    1    2    0    0  0.48714656938E-02 -0.18991322588E-01 -0.12729068312E-01  0.23375857027E-01  0.00000000000E+00 0.  1.
     999901    1    3    3    0    0 -0.78475474063E-01 -0.89221726369E-01  0.13996893192E-01  0.88809618258E+00  0.88000000000E+00 0. -1.
        -11    1    4    4    0    0  0.18127315665E-01  0.15314358685E-01 -0.47128503453E-02  0.24199199047E-01  0.51100000000E-03 0.  1.
         11    1    4    4    0    0  0.55476692704E-01  0.92898690273E-01  0.34450254652E-02  0.10825876135E+00  0.51100000000E-03 0. -1.
</event>
<event>
 8    1  0.1183092E+005  0.1043930E+01  0.7957747E-01            NaN
         13   -1    0    0    0    0  0.00000000000E+00  0.00000000000E+00  0.74505805969E-08  0.10566000000E+00  0.10566000000E+00 0. -1.
     999900   -1    0    0    0    0 -0.00000000000E+00 -0.00000000000E+00 -0.74505805969E-08  0.93827000000E+00  0.93827000000E+00 0.  1.
     999902    2    1    2    0    0  0.19989845973E-01 -0.12192884530E-01  0.29731156675E-02  0.10203270385E+01  0.10200540014E+01 0.  0.
     999903    2    3    3    0    0  0.11910889498E+00  0.52527292783E-01  0.57049692185E-02  0.13239643859E+00  0.23456873765E-01 0.  0.
         14    1    1    2    0    0 -0.19989845973E-01  0.12192884530E-01 -0.29731156675E-02  0.23602961508E-01  0.00000000000E+00 0. -1.
     999901    1    3    3    0    0 -0.99119049002E-01 -0.64720177314E-01 -0.27318535510E-02  0.88793059991E+00  0.88000000000E+00 0.  1.
        -11    1    4    4    0    0  0.72139798707E-01  0.19124967004E-01  0.36171882399E-02  0.74721215810E-01  0.51100000000E-03 0. -1.
         11    1    4    4    0    0  0.46969096269E-01  0.33402325779E-01  0.20877809787E-02  0.57675222775E-01  0.51100000000E-03 0.  1.
</event>
<event>
 8    1  0.1183092E+005  0.1043930E+01  0.7957747E-01            NaN
         13   -1    0    0    0    0  0.00000000000E+00  0.00000000000E+00  0.74505805969E-08  0.10566000000E+00  0.10566000000E+00 0. -1.
     999900   -1    0    0    0    0 -0.00000000000E+00 -0.00000000000E+00 -0.74505805969E-08  0.93827000000E+00  0.93827000000E+00 0.  1.
     999902    2    1    2    0    0 -0.96286112729E-02  0.32331493483E-02 -0.23077499055E-01  0.10187162265E+01  0.10184041515E+01 0.  0.
     999903    2    3    3    0    0  0.62165053625E-01  0.40760324099E-01 -0.10592353078E+00  0.13112055049E+00  0.21140162616E-01 0.  0.
         14    1    1    2    0    0  0.96286112729E-02 -0.32331493483E-02  0.23077499055E-01  0.25213773466E-01  0.00000000000E+00 0. -1.
     999901    1    3    3    0    0 -0.71793664898E-01 -0.37527174750E-01  0.82846031720E-01  0.88759567605E+00  0.88000000000E+00 0. -1.
        -11    1    4    4    0    0  0.33362564151E-01  0.27105103742E-01 -0.76431569750E-01  0.87691466581E-01  0.51100000000E-03 0. -1.
         11    1    4    4    0    0  0.28802489474E-01  0.13655220357E-01 -0.29491961025E-01  0.43429083907E-01  0.51100000000E-03 0.  1.
</event>
<event>
 8    1  0.1183092E+005  0.1043930E+01  0.7957747E-01            NaN
         13   -1    0    0    0    0  0.00000000000E+00  0.00000000000E+00  0.74505805969E-08  0.10566000000E+00  0.10566000000E+00 0. -1.
     999900   -1    0    0    0    0 -0.00000000000E+00 -0.00000000000E+00 -0.74505805969E-08  0.93827000000E+00  0.93827000000E+00 0.  1.
     999902    2    1    2    0    0 -0.17188189429E-01  0.14577347443E-01 -0.68173015557E-03  0.10213823245E+01  0.10211334169E+01 0.  0.
     999903    2    3    3    0    0 -0.37712977842E-01 -0.11567167271E+00 -0.42849617986E-01  0.13056011724E+00  0.20190341433E-01 0.  0.
         14    1    1    2    0    0  0.17188189429E-01 -0.14577347443E-01  0.68173015557E-03  0.22547675497E-01  0.00000000000E+00 0. -1.
     999901    1    3    3    0    0  0.20524788413E-01  0.13024902015E+00  0.42167887831E-01  0.89082220726E+00  0.88000000000E+00 0. -1.
        -11    1    4    4    0    0 -0.28443914884E-01 -0.56364475105E-01 -0.18620322318E-01  0.65825434841E-01  0.51100000000E-03 0.  1.
         11    1    4    4    0    0 -0.92690629587E-02 -0.59307197603E-01 -0.24229295668E-01  0.64734682398E-01  0.51100000000E-03 0. -1.
</event>
<event>
 8    1  0.1183092E+005  0.1043930E+01  0.7957747E-01            NaN
         13   -1    0    0    0    0  0.00000000000E+00  0.00000000000E+00  0.74505805969E-08  0.10566000000E+00  0.10566000000E+00 0.  1.
     999900   -1    0    0    0    0 -0.00000000000E+00 -0.00000000000E+00 -0.74505805969E-08  0.93827000000E+00  0.93827000000E+00 0.  1.
     999902    2    1    2    0    0 -0.21760478707E-01  0.33496341899E-03  0.17847598646E-01  0.10157845312E+01  0.10153945275E+01 0.  0.
     999903    2    3    3    0    0  0.41657554881E-01  0.10096735350E+00 -0.57003252003E-01  0.12463281871E+00  0.18820478444E-01 0.  0.
         14    1    1    2    0    0  0.21760478707E-01 -0.33496341899E-03 -0.17847598646E-01  0.28145468756E-01  0.00000000000E+00 0. -1.
     999901    1    3    3    0    0 -0.63418033588E-01 -0.10063239008E+00  0.74850850649E-01  0.89115171254E+00  0.88000000000E+00 0. -1.
        -11    1    4    4    0    0  0.17013875976E-01  0.65139468374E-01 -0.35737934942E-01  0.76223903276E-01  0.51100000000E-03 0.  1.
         11    1    4    4    0    0  0.24643678905E-01  0.35827885123E-01 -0.21265317061E-01  0.48408915430E-01  0.51100000000E-03 0. -1.
</event>
<event>
 8    1  0.1183092E+005  0.1043930E+01  0.7957747E-01            NaN
         13   -1    0    0    0    0  0.00000000000E+00  0.00000000000E+00  0.74505805969E-08  0.10566000000E+00  0.10566000000E+00 0. -1.
     999900   -1    0    0    0    0 -0.00000000000E+00 -0.00000000000E+00 -0.74505805969E-08  0.93827000000E+00  0.93827000000E+00 0. -1.
     999902    2    1    2    0    0  0.83145565298E-02 -0.16633548725E-01 -0.13908390552E-01  0.10207082404E+01  0.10204440513E+01 0.  0.
     999903    2    3    3    0    0  0.84177627780E-02 -0.12230849707E+00 -0.49271475515E-01  0.13368075874E+00  0.20313536664E-01 0.  0.
         14    1    1    2    0    0 -0.83145565298E-02  0.16633548725E-01  0.13908390552E-01  0.23221759650E-01  0.00000000000E+00 0.  1.
     999901    1    3    3    0    0 -0.10320624822E-03  0.10567494834E+00  0.35363084963E-01  0.88702748161E+00  0.88000000000E+00 0. -1.
        -11    1    4    4    0    0 -0.14690226362E-02 -0.17815893523E-01 -0.14772505925E-01  0.23195950979E-01  0.51100000000E-03 0.  1.
         11    1    4    4    0    0  0.98867854142E-02 -0.10449260355E+00 -0.34498969590E-01  0.11048480776E+00  0.51100000000E-03 0. -1.
</event>
<event>
 8    1  0.1183092E+005  0.1043930E+01  0.7957747E-01            NaN
         13   -1    0    0    0    0  0.00000000000E+00  0.00000000000E+00  0.74505805969E-08  0.10566000000E+00  0.10566000000E+00 0.  1.
     999900   -1    0    0    0    0 -0.00000000000E+00 -0.00000000000E+00 -0.74505805969E-08  0.93827000000E+00  0.93827000000E+00 0. -1.
     999902    2    1    2    0    0  0.18222942722E-01  0.13059044597E-01 -0.12581680957E-01  0.10182217721E+01  0.10178971776E+01 0.  0.
     999903    2    3    3    0    0 -0.40072654306E-02 -0.85220417496E-01 -0.93354561951E-01  0.12879651208E+00  0.24390357759E-01 0.  0.
         14    1    1    2    0    0 -0.18222942722E-01 -0.13059044597E-01  0.12581680957E-01  0.25708227922E-01  0.00000000000E+00 0.  1.
     999901    1    3    3    0    0  0.22230208153E-01  0.98279462092E-01  0.80772880995E-01  0.88942526000E+00  0.88000000000E+00 0.  1.
        -11    1    4    4    0    0 -0.38066450523E-02 -0.49891281750E-01 -0.36808556929E-01  0.62118930492E-01  0.51100000000E-03 0. -1.
         11    1    4    4    0    0 -0.20062037835E-03 -0.35329135746E-01 -0.56546005022E-01  0.66677581585E-01  0.51100000000E-03 0.  1.
</event>
<event>
 8    1  0.1183092E+005  0.1043930E+01  0.7957747E-01            NaN
         13   -1    0    0    0    0  0.00000000000E+00  0.00000000000E+00  0.74505805969E-08  0.10566000000E+00  0.10566000000E+00 0. -1.
     999900   -1    0    0    0    0 -0.00000000000E+00 -0.00000000000E+00 -0.74505805969E-08  0.93827000000E+00  0.93827000000E+00 0.  1.
     999902    2    1    2    0    0  0.25760470963E-02 -0.75277332399E-02  0.21372001334E-01  0.10211250613E+01  0.10208703765E+01 0.  0.
     999903    2    3    3    0    0  0.52474522364E-01  0.75653610299E-01 -0.88167711665E-01  0.12904437975E+00  0.20046503811E-01 0.  0.
         14    1    1    2    0    0 -0.25760470963E-02  0.75277332399E-02 -0.21372001334E-01  0.22804938662E-01  0.00000000000E+00 0.  1.
     999901    1    3    3    0    0 -0.49898475267E-01 -0.83181343539E-01  0.10953971300E+00  0.89208068159E+00  0.88000000000E+00 0. -1.
        -11    1    4    4    0    0  0.41700887676E-01  0.46788218749E-01 -0.66451572445E-01  0.91346450660E-01  0.51100000000E-03 0.  1.
         11    1    4    4    0    0  0.10773634687E-01  0.28865391550E-01 -0.21716139220E-01  0.37697929085E-01  0.51100000000E-03 0. -1.
</event>
<event>
 8    1  0.1183092E+005  0.1043930E+01  0.7957747E-01            NaN
         13   -1    0    0    0    0  0.00000000000E+00  0.00000000000E+00  0.74505805969E-08  0.10566000000E+00  0.10566000000E+00 0.  1.
     999900   -1    0    0    0    0 -0.00000000000E+00 -0.00000000000E+00 -0.74505805969E-08  0.93827000000E+00  0.93827000000E+00 0.  1.
     999902    2    1    2    0    0  0.19206725796E-01  0.14313594828E-01  0.22214032551E-02  0.10198735675E+01  0.10195898105E+01 0.  0.
     999903    2    3    3    0    0  0.95168589432E-01 -0.12866609493E-01 -0.87837551920E-01  0.13160582427E+00  0.19546032862E-01 0.  0.
         14    1    1    2    0    0 -0.19206725796E-01 -0.14313594828E-01 -0.22214032551E-02  0.24056432510E-01  0.00000000000E+00 0. -1.
     999901    1    3    3    0    0 -0.75961863636E-01  0.27180204321E-01  0.90058955176E-01  0.88826774322E+00  0.88000000000E+00 0. -1.
        -11    1    4    4    0    0  0.46702201278E-01 -0.15068253639E-01 -0.50170674812E-01  0.70181946425E-01  0.51100000000E-03 0. -1.
         11    1    4    4    0    0  0.48466388154E-01  0.22016441464E-02 -0.37666877109E-01  0.61423877847E-01  0.51100000000E-03 0.  1.
</event>
<event>
 8    1  0.1183092E+005  0.1043930E+01  0.7957747E-01            NaN
         13   -1    0    0    0    0  0.00000000000E+00  0.00000000000E+00  0.74505805969E-08  0.10566000000E+00  0.10566000000E+00 0. -1.
     999900   -1    0    0    0    0 -0.00000000000E+00 -0.00000000000E+00 -0.74505805969E-08  0.93827000000E+00  0.93827000000E+00 0. -1.
     999902    2    1    2    0    0  0.18932296649E-01 -0.17210894961E-01 -0.39094381209E-02  0.10180469849E+01  0.10177179045E+01 0.  0.
     999903    2    3    3    0    0 -0.83007563184E-01  0.34987077281E-01 -0.86862237286E-01  0.12675717225E+00  0.20198547676E-01 0.  0.
         14    1    1    2    0    0 -0.18932296649E-01  0.17210894961E-01  0.39094381209E-02  0.25883015052E-01  0.00000000000E+00 0.  1.
     999901    1    3    3    0    0  0.10193985983E+00 -0.52197972242E-01  0.82952799165E-01  0.89128981270E+00  0.88000000000E+00 0.  1.
        -11    1    4    4    0    0 -0.28006931869E-01  0.18880419890E-01 -0.42450347312E-01  0.54250821154E-01  0.51100000000E-03 0. -1.
         11    1    4    4    0    0 -0.55000631314E-01  0.16106657392E-01 -0.44411889974E-01  0.72506351097E-01  0.51100000000E-03 0.  1.
</event>
<event>
 8    1  0.1183092E+005  0.1043930E+01  0.7957747E-01            NaN
         13   -1    0    0    0    0  0.00000000000E+00  0.00000000000E+00  0.74505805969E-08  0.10566000000E+00  0.10566000000E+00 0.  1.
     999900   -1    0    0    0    0 -0.00000000000E+00 -0.00000000000E+00 -0.74505805969E-08  0.93827000000E+00  0.93827000000E+00 0.  1.
     999902    2    1    2    0    0  0.21780822315E-01  0.91732892231E-02  0.33027361502E-02  0.10200666071E+01  0.10197874393E+01 0.  0.
     999903    2    3    3    0    0 -0.10762762396E+00  0.62981176950E-01  0.23991717367E-01  0.12873621452E+00  0.21144179751E-01 0.  0.
         14    1    1    2    0    0 -0.21780822315E-01 -0.91732892231E-02 -0.33027361502E-02  0.23863392927E-01  0.00000000000E+00 0.  1.
     999901    1    3    3    0    0  0.12940844627E+00 -0.53807887727E-01 -0.20688981217E-01  0.89133039256E+00  0.88000000000E+00 0. -1.
        -11    1    4    4    0    0 -0.84858804358E-01  0.51679412438E-01  0.10384544425E-01  0.99899340493E-01  0.51100000000E-03 0. -1.
         11    1    4    4    0    0 -0.22768819600E-01  0.11301764512E-01  0.13607172942E-01  0.28836874025E-01  0.51100000000E-03 0.  1.
</event>
<event>
 8    1  0.1183092E+005  0.1043930E+01  0.7957747E-01            NaN
         13   -1    0    0    0    0  0.00000000000E+00  0.00000000000E+00  0.74505805969E-08  0.10566000000E+00  0.10566000000E+00 0.  1.
     999900   -1    0    0    0    0 -0.00000000000E+00 -0.00000000000E+00 -0.74505805969E-08  0.93827000000E+00  0.93827000000E+00 0.  1.
     999902    2    1    2    0    0 -0.23130285611E-01  0.38439230976E-03 -0.12114841448E-01  0.10178162631E+01  0.10174812127E+01 0.  0.
     999903    2    3    3    0    0  0.45417813261E-01  0.11427430970E+00 -0.28017055733E-01  0.12769119576E+00  0.19967234246E-01 0.  0.
         14    1    1    2    0    0  0.23130285611E-01 -0.38439230976E-03  0.12114841448E-01  0.26113736868E-01  0.00000000000E+00 0.  1.
     999901    1    3    3    0    0 -0.68548098872E-01 -0.11388991739E+00  0.15902214284E-01  0.89012506737E+00  0.88000000000E+00 0.  1.
        -11    1    4    4    0    0  0.45676207870E-01  0.97724226231E-01 -0.22158101595E-01  0.11012530565E+00  0.51100000000E-03 0.  1.
         11    1    4    4    0    0 -0.25839460907E-03  0.16550083472E-01 -0.58589541380E-02  0.17565890108E-01  0.51100000000E-03 0. -1.
</event>
<event>
 8    1  0.1183092E+005  0.1043930E+01  0.7957747E-01            NaN
         13   -1    0    0    0    0  0.00000000000E+00  0.00000000000E+00  0.74505805969E-08  0.10566000000E+00  0.10566000000E+00 0.  1.
     999900   -1    0    0    0    0 -0.00000000000E+00 -0.00000000000E+00 -0.74505805969E-08  0.93827000000E+00  0.93827000000E+00 0. -1.
     999902    2    1    2    0    0  0.17024997635E-01 -0.15186816920E-01  0.44937760802E-02  0.10206773878E+01  0.10204124881E+01 0.  0.
     999903    2    3    3    0    0  0.10949347756E+00 -0.74214192945E-01 -0.49380464508E-02  0.13381572426E+00  0.19639136797E-01 0.  0.
         14    1    1    2    0    0 -0.17024997635E-01  0.15186816920E-01 -0.44937760802E-02  0.23252612242E-01  0.00000000000E+00 0.  1.
     999901    1    3    3    0    0 -0.92468479928E-01  0.59027376025E-01  0.94318225310E-02  0.88686166349E+00  0.88000000000E+00 0.  1.
        -11    1    4    4    0    0  0.53734838500E-01 -0.29791396661E-01 -0.10388322622E-01  0.62314834121E-01  0.51100000000E-03 0. -1.
         11    1    4    4    0    0  0.55758639063E-01 -0.44422796284E-01  0.54502761708E-02  0.71500890143E-01  0.51100000000E-03 0.  1.
</event>
<event>
 8    1  0.1183092E+005  0.1043930E+01  0.7957747E-01            NaN
         13   -1    0    0    0    0  0.00000000000E+00  0.00000000000E+00  0.74505805969E-08  0.10566000000E+00  0.10566000000E+00 0. -1.
     999900   -1    0    0    0    0 -0.00000000000E+00 -0.00000000000E+00 -0.74505805969E-08  0.93827000000E+00  0.93827000000E+00 0. -1.
     999902    2    1    2    0    0  0.82068944311E-02 -0.83632795773E-02 -0.19298997771E-01  0.10213523811E+01  0.10211028045E+01 0.  0.
     999903    2    3    3    0    0  0.35300746919E-01 -0.10965561753E+00 -0.65910646325E-01  0.13390274287E+00  0.17754832031E-01 0.  0.
         14    1    1    2    0    0 -0.82068944311E-02  0.83632795773E-02  0.19298997771E-01  0.22577618928E-01  0.00000000000E+00 0. -1.
     999901    1    3    3    0    0 -0.27093852487E-01  0.10129233795E+00  0.46611648553E-01  0.88744963821E+00  0.88000000000E+00 0.  1.
        -11    1    4    4    0    0  0.21788282731E-01 -0.79625573359E-01 -0.38668410687E-01  0.91161769965E-01  0.51100000000E-03 0.  1.
         11    1    4    4    0    0  0.13512464187E-01 -0.30030044166E-01 -0.27242235637E-01  0.42740972902E-01  0.51100000000E-03 0. -1.
</event>
<event>
 8    1  0.1183092E+005  0.1043930E+01  0.7957747E-01            NaN
         13   -1    0    0    0    0  0.00000000000E+00  0.00000000000E+00  0.74505805969E-08  0.10566000000E+00  0.10566000000E+00 0. -1.
     999900   -1    0    0    0    0 -0.00000000000E+00 -0.00000000000E+00 -0.74505805969E-08  0.93827000000E+00  0.93827000000E+00 0. -1.
     999902    2    1    2    0    0  0.51314593910E-02 -0.10128035054E-01  0.28448999102E-01  0.10132990594E+01  0.10128359834E+01 0.  0.
     999903    2    3    3    0    0  0.48369656485E-01  0.68569238012E-01 -0.85420388687E-01  0.12143077323E+00  0.20184791642E-01 0.  0.
         14    1    1    2    0    0 -0.51314593910E-02  0.10128035054E-01 -0.28448999102E-01  0.30630940558E-01  0.00000000000E+00 0. -1.
     999901    1    3    3    0    0 -0.43238197094E-01 -0.78697273066E-01  0.11386938779E+00  0.89186828621E+00  0.88000000000E+00 0.  1.
        -11    1    4    4    0    0  0.11580125480E-01  0.29382362375E-01 -0.23101569171E-01  0.39132673612E-01  0.51100000000E-03 0.  1.
         11    1    4    4    0    0  0.36789531005E-01  0.39186875637E-01 -0.62318819516E-01  0.82298099617E-01  0.51100000000E-03 0. -1.
</event>
<event>
 8    1  0.1183092E+005  0.1043930E+01  0.7957747E-01            NaN
         13   -1    0    0    0    0  0.00000000000E+00  0.00000000000E+00  0.74505805969E-08  0.10566000000E+00  0.10566000000E+00 0. -1.
     999900   -1    0    0    0    0 -0.00000000000E+00 -0.00000000000E+00 -0.74505805969E-08  0.93827000000E+00  0.93827000000E+00 0. -1.
     999902    2    1    2    0    0 -0.10664383756E-01 -0.41691563002E-02 -0.18629404349E-01  0.10220630009E+01  0.10218290523E+01 0.  0.
     999903    2    3    3    0    0 -0.54792870154E-02  0.12391465983E+00  0.37380376933E-01  0.13101336993E+00  0.19553644487E-01 0.  0.
         14    1    1    2    0    0  0.10664383756E-01  0.41691563002E-02  0.18629404349E-01  0.21866999144E-01  0.00000000000E+00 0. -1.
     999901    1    3    3    0    0 -0.51850967410E-02 -0.12808381613E+00 -0.56009781283E-01  0.89104963093E+00  0.88000000000E+00 0. -1.
        -11    1    4    4    0    0 -0.10384397477E-01  0.34961209309E-01  0.10441854152E-01  0.37939627126E-01  0.51100000000E-03 0.  1.
         11    1    4    4    0    0  0.49051104614E-02  0.88953450520E-01  0.26938522781E-01  0.93073742799E-01  0.51100000000E-03 0. -1.
</event>
<event>
 8    1  0.1183092E+005  0.1043930E+01  0.7957747E-01            NaN
         13   -1    0    0    0    0  0.00000000000E+00  0.00000000000E+00  0.74505805969E-08  0.10566000000E+00  0.10566000000E+00 0. -1.
     999900   -1    0    0    0    0 -0.00000000000E+00 -0.00000000000E+00 -0.74505805969E-08  0.93827000000E+00  0.93827000000E+00 0.  1.
     999902    2    1    2    0    0  0.22503693536E-01 -0.25788633990E-02 -0.73907286094E-02  0.10201037618E+01  0.10198254729E+01 0.  0.
     999903    2    3    3    0    0  0.73258143210E-01  0.23638781649E-01  0.10440413598E+00  0.13119349024E+00  0.19645883191E-01 0.  0.
         14    1    1    2    0    0 -0.22503693536E-01  0.25788633990E-02  0.73907286094E-02  0.23826238238E-01  0.00000000000E+00 0. -1.
     999901    1    3    3    0    0 -0.50754449673E-01 -0.26217645048E-01 -0.11179486459E+00  0.88891027152E+00  0.88000000000E+00 0.  1.
        -11    1    4    4    0    0  0.47282844401E-01  0.22881489759E-01  0.78834443608E-01  0.94733101756E-01  0.51100000000E-03 0. -1.
         11    1    4    4    0    0  0.25975298808E-01  0.75729189035E-03  0.25569692373E-01  0.36460388481E-01  0.51100000000E-03 0.  1.
</event>
<event>
 8    1  0.1183092E+005  0.1043930E+01  0.7957747E-01            NaN
         13   -1    0    0    0    0  0.00000000000E+00  0.00000000000E+00  0.74505805969E-08  0.10566000000E+00  0.10566000000E+00 0.  1.
     999900   -1    0    0    0    0 -0.00000000000E+00 -0.00000000000E+00 -0.74505805969E-08  0.93827000000E+00  0.93827000000E+00 0.  1.
     999902    2    1    2    0    0 -0.17507971625E-01  0.10299732220E-01 -0.12574583573E-01  0.10200399664E+01  0.10197601675E+01 0.  0.
     999903    2    3    3    0    0  0.17444860843E-01 -0.42047042784E-01 -0.12140757089E+00  0.13110436440E+00  0.19397915299E-01 0.  0.
         14    1    1    2    0    0  0.17507971625E-01 -0.10299732220E-01  0.12574583573E-01  0.23890033618E-01  0.00000000000E+00 0.  1.
     999901    1    3    3    0    0 -0.34952832468E-01  0.52346775004E-01  0.10883298732E+00  0.88893560199E+00  0.88000000000E+00 0. -1.
        -11    1    4    4    0    0  0.69292393046E-02 -0.34468781975E-01 -0.10077119229E+00  0.10672959105E+00  0.51100000000E-03 0.  1.
         11    1    4    4    0    0  0.10515621538E-01 -0.75782608091E-02 -0.20636378597E-01  0.24374773349E-01  0.51100000000E-03 0. -1.
</event>
<event>
 8    1  0.1183092E+005  0.1043930E+01  0.7957747E-01            NaN
         13   -1    0    0    0    0  0.00000000000E+00  0.00000000000E+00  0.74505805969E-08  0.10566000000E+00  0.10566000000E+00 0.  1.
     999900   -1    0    0    0    0 -0.00000000000E+00 -0.00000000000E+00 -0.74505805969E-08  0.93827000000E+00  0.93827000000E+00 0. -1.
     999902    2    1    2    0    0 -0.68554360362E-02  0.12885574392E-01 -0.18769759178E-01  0.10201531438E+01  0.10198760209E+01 0.  0.
     999903    2    3    3    0    0  0.10369464126E+00 -0.73581165403E-01 -0.93632989651E-02  0.12898183695E+00  0.19541657190E-01 0.  0.
         14    1    1    2    0    0  0.68554360362E-02 -0.12885574392E-01  0.18769759178E-01  0.23776856189E-01  0.00000000000E+00 0.  1.
     999901    1    3    3    0    0 -0.11055007730E+00  0.86466739795E-01 -0.94064602127E-02  0.89117130686E+00  0.88000000000E+00 0. -1.
        -11    1    4    4    0    0  0.43395033614E-01 -0.20126385624E-01 -0.71383273358E-02  0.48367521942E-01  0.51100000000E-03 0.  1.
         11    1    4    4    0    0  0.60299607651E-01 -0.53454779779E-01 -0.22249716293E-02  0.80614315006E-01  0.51100000000E-03 0. -1.
</event>
<event>
 8    1  0.1183092E+005  0.1043930E+01  0.7957747E-01            NaN
         13   -1    0    0    0    0  0.00000000000E+00  0.00000000000E+00  0.74505805969E-08  0.10566000000E+00  0.10566000000E+00 0.  1.
     999900   -1    0    0    0    0 -0.00000000000E+00 -0.00000000000E+00 -0.74505805969E-08  0.93827000000E+00  0.93827000000E+00 0. -1.
     999902    2    1    2    0    0  0.52751753134E-02 -0.22482330319E-01  0.79075703382E-02  0.10195207329E+01  0.10192284889E+01 0.  0.
     999903    2    3    3    0    0  0.86064547674E-01  0.34640511649E-01 -0.87490423740E-01  0.12885204084E+00  0.18471674775E-01 0.  0.
         14    1    1    2    0    0 -0.52751753134E-02  0.22482330319E-01 -0.79075703382E-02  0.24409267089E-01  0.00000000000E+00 0. -1.
     999901    1    3    3    0    0 -0.80789372360E-01 -0.57122841968E-01  0.95397994078E-01  0.89066869207E+00  0.88000000000E+00 0.  1.
        -11    1    4    4    0    0  0.46127641889E-01  0.11824714048E-01 -0.53717383347E-01  0.71787196652E-01  0.51100000000E-03 0. -1.
         11    1    4    4    0    0  0.39936905785E-01  0.22815797601E-01 -0.33773040393E-01  0.57064844188E-01  0.51100000000E-03 0.  1.
</event>
<event>
 8    1  0.1183092E+005  0.1043930E+01  0.7957747E-01            NaN
         13   -1    0    0    0    0  0.00000000000E+00  0.00000000000E+00  0.74505805969E-08  0.10566000000E+00  0.10566000000E+00 0.  1.
     999900   -1    0    0    0    0 -0.00000000000E+00 -0.00000000000E+00 -0.74505805969E-08  0.93827000000E+00  0.93827000000E+00 0.  1.
     999902    2    1    2    0    0 -0.37840712138E-02 -0.23873183171E-01 -0.30937425038E-02  0.10195615919E+01  0.10192703373E+01 0.  0.
     999903    2    3    3    0    0  0.11705811734E+00 -0.52551844536E-01  0.90804420639E-02  0.13075705158E+00  0.23465994799E-01 0.  0.
         14    1    1    2    0    0  0.37840712138E-02  0.23873183171E-01  0.30937425038E-02  0.24368408079E-01  0.00000000000E+00 0.  1.
     999901    1    3    3    0    0 -0.12084218855E+00  0.28678661365E-01 -0.12174184568E-01  0.88880454034E+00  0.88000000000E+00 0. -1.
        -11    1    4    4    0    0  0.71146497829E-01 -0.21871906847E-01  0.12291909081E-01  0.75442405928E-01  0.51100000000E-03 0.  1.
         11    1    4    4    0    0  0.45911619510E-01 -0.30679937690E-01 -0.32114670166E-02  0.55314645656E-01  0.51100000000E-03 0. -1.
</event>
<event>
 8    1  0.1183092E+005  0.1043930E+01  0.7957747E-01            NaN
         13   -1    0    0    0    0  0.00000000000E+00  0.00000000000E+00  0.74505805969E-08  0.10566000000E+00  0.10566000000E+00 0.  1.
     999900   -1    0    0    0    0 -0.00000000000E+00 -0.00000000000E+00 -0.74505805969E-08  0.93827000000E+00  0.93827000000E+00 0.  1.
     999902    2    1    2    0    0  0.25700945253E-01  0.14660815248E-02  0.55696673724E-03  0.10181812487E+01  0.10178556170E+01 0.  0.
     999903    2    3    3    0    0 -0.16839013168E-01  0.97701784046E-01  0.78693701256E-01  0.12847550645E+00  0.22001503801E-01 0.  0.
         14    1    1    2    0    0 -0.25700945253E-01 -0.14660815248E-02 -0.55696673724E-03  0.25748751307E-01  0.00000000000E+00 0.  1.
     999901    1    3    3    0    0  0.42539958420E-01 -0.96235702521E-01 -0.78136734519E-01  0.88970574224E+00  0.88000000000E+00 0.  1.
        -11    1    4    4    0    0 -0.99253542452E-02  0.60566318838E-01  0.34768857237E-01  0.70540245173E-01  0.51100000000E-03 0. -1.
         11    1    4    4    0    0 -0.69136589225E-02  0.37135465208E-01  0.43924844020E-01  0.57935261276E-01  0.51100000000E-03 0.  1.
</event>
<event>
 8    1  0.1183092E+005  0.1043930E+01  0.7957747E-01            NaN
         13   -1    0    0    0    0  0.00000000000E+00  0.00000000000E+00  0.74505805969E-08  0.10566000000E+00  0.10566000000E+00 0. -1.
     999900   -1    0    0    0    0 -0.00000000000E+00 -0.00000000000E+00 -0.74505805969E-08  0.93827000000E+00  0.93827000000E+00 0. -1.
     999902    2    1    2    0    0 -0.81875789302E-02 -0.58245147000E-02  0.21272793499E-01  0.10204035646E+01  0.10201323157E+01 0.  0.
     999903    2    3    3    0    0 -0.43820505186E-01 -0.10798134732E+00  0.60627769590E-01  0.13290452907E+00  0.20191071280E-01 0.  0.
         14    1    1    2    0    0  0.81875789302E-02  0.58245147000E-02 -0.21272793499E-01  0.23526435418E-01  0.00000000000E+00 0.  1.
     999901    1    3    3    0    0  0.35632926255E-01  0.10215683262E+00 -0.39354976091E-01  0.88749903551E+00  0.88000000000E+00 0. -1.
        -11    1    4    4    0    0 -0.14057869550E-01 -0.15158624498E-01  0.84556230731E-02  0.22342029351E-01  0.51100000000E-03 0.  1.
         11    1    4    4    0    0 -0.29762635635E-01 -0.92822722821E-01  0.52172146517E-01  0.11056249972E+00  0.51100000000E-03 0. -1.
</event>
<event>
 8    1  0.1183092E+005  0.1043930E+01  0.7957747E-01            NaN
         13   -1    0    0    0    0  0.00000000000E+00  0.00000000000E+00  0.74505805969E-08  0.10566000000E+00  0.10566000000E+00 0. -1.
     999900   -1    0    0    0    0 -0.00000000000E+00 -0.00000000000E+00 -0.74505805969E-08  0.93827000000E+00  0.93827000000E+00 0. -1.
     999902    2    1    2    0    0  0.13453986709E-01 -0.13609941690E-01 -0.13379054434E-01  0.10205796388E+01  0.10203124814E+01 0.  0.
     999903    2    3    3    0    0  0.12237026378E+00 -0.19656843936E-01 -0.44743836476E-01  0.13328990596E+00  0.20082707866E-01 0.  0.
         14    1    1    2    0    0 -0.13453986709E-01  0.13609941690E-01  0.13379054434E-01  0.23350361212E-01  0.00000000000E+00 0. -1.
     999901    1    3    3    0    0 -0.10891627707E+00  0.60469022464E-02  0.31364782042E-01  0.88728973283E+00  0.88000000000E+00 0. -1.
        -11    1    4    4    0    0  0.59465769231E-01 -0.86040741839E-02 -0.11111684409E-01  0.61105960873E-01  0.51100000000E-03 0.  1.
         11    1    4    4    0    0  0.62904494551E-01 -0.11052769752E-01 -0.33632152067E-01  0.72183945082E-01  0.51100000000E-03 0. -1.
</event>
<event>
 8    1  0.1183092E+005  0.1043930E+01  0.7957747E-01            NaN
         13   -1    0    0    0    0  0.00000000000E+00  0.00000000000E+00  0.74505805969E-08  0.10566000000E+00  0.10566000000E+00 0.  1.
     999900   -1    0    0    0    0 -0.00000000000E+00 -0.00000000000E+00 -0.74505805969E-08  0.93827000000E+00  0.93827000000E+00 0.  1.
     999902    2    1    2    0    0  0.20170416550E-01  0.16230383635E-03 -0.11232422245E-01  0.10208423549E+01  0.10205812433E+01 0.  0.
     999903    2    3    3    0    0 -0.87519008023E-01 -0.23092092326E-01 -0.91376734673E-01  0.13035884023E+00  0.21234361129E-01 0.  0.
         14    1    1    2    0    0 -0.20170416550E-01 -0.16230383635E-03  0.11232422245E-01  0.23087645091E-01  0.00000000000E+00 0.  1.
     999901    1    3    3    0    0  0.10768942457E+00  0.23254396162E-01  0.80144312428E-01  0.89048351468E+00  0.88000000000E+00 0. -1.
        -11    1    4    4    0    0 -0.51562829421E-01 -0.63892981240E-02 -0.62668394047E-01  0.81407230894E-01  0.51100000000E-03 0. -1.
         11    1    4    4    0    0 -0.35956178602E-01 -0.16702794202E-01 -0.28708340626E-01  0.48951609333E-01  0.51100000000E-03 0.  1.
</event>
<event>
 8    1  0.1183092E+005  0.1043930E+01  0.7957747E-01            NaN
         13   -1    0    0    0    0  0.00000000000E+00  0.00000000000E+00  0.74505805969E-08  0.10566000000E+00  0.10566000000E+00 0.  1.
     999900   -1    0    0    0    0 -0.00000000000E+00 -0.00000000000E+00 -0.74505805969E-08  0.93827000000E+00  0.93827000000E+00 0.  1.
     999902    2    1    2    0    0 -0.11669029145E-01 -0.51742508778E-02 -0.20596987009E-01  0.10196983061E+01  0.10194103494E+01 0.  0.
     999903    2    3    3    0    0 -0.12189850078E+00 -0.39848519284E-01  0.19473816507E-01  0.13123980368E+00  0.19937591607E-01 0.  0.
         14    1    1    2    0    0  0.11669029145E-01  0.51742508778E-02  0.20596987009E-01  0.24231693857E-01  0.00000000000E+00 0.  1.
     999901    1    3    3    0    0  0.11022947163E+00  0.34674268407E-01 -0.40070803516E-01  0.88845850246E+00  0.88000000000E+00 0.  1.
        -11    1    4    4    0    0 -0.26952522922E-01 -0.88551989323E-02 -0.39604529049E-02  0.28649595952E-01  0.51100000000E-03 0. -1.
         11    1    4    4    0    0 -0.94945977857E-01 -0.30993320352E-01  0.23434269412E-01  0.10259020773E+00  0.51100000000E-03 0.  1.
</event>
<event>
 8    1  0.1183092E+005  0.1043930E+01  0.7957747E-01            NaN
         13   -1    0    0    0    0  0.00000000000E+00  0.00000000000E+00  0.74505805969E-08  0.10566000000E+00  0.10566000000E+00 0. -1.
     999900   -1    0    0    0    0 -0.00000000000E+00 -0.00000000000E+00 -0.74505805969E-08  0.93827000000E+00  0.93827000000E+00 0. -1.
     999902    2    1    2    0    0 -0.22246154335E-01  0.66159545248E-02  0.11697539158E-02  0.10206914424E+01  0.10204268665E+01 0.  0.
     999903    2    3    3    0    0  0.95611543473E-01  0.47674963626E-02  0.84433979708E-01  0.12893655169E+00  0.18200032050E-01 0.  0.
         14    1    1    2    0    0  0.22246154335E-01 -0.66159545248E-02 -0.11697539158E-02  0.23238557640E-01  0.00000000000E+00 0. -1.
     999901    1    3    3    0    0 -0.11785769781E+00  0.18484581622E-02 -0.83264225792E-01  0.89175489067E+00  0.88000000000E+00 0. -1.
        -11    1    4    4    0    0  0.87245552179E-01 -0.53867187083E-03  0.78576002666E-01  0.11741603748E+00  0.51100000000E-03 0.  1.
         11    1    4    4    0    0  0.83659912941E-02  0.53061682335E-02  0.58579770423E-02  0.11520514211E-01  0.51100000000E-03 0. -1.
</event>
<event>
 8    1  0.1183092E+005  0.1043930E+01  0.7957747E-01            NaN
         13   -1    0    0    0    0  0.00000000000E+00  0.00000000000E+00  0.74505805969E-08  0.10566000000E+00  0.10566000000E+00 0. -1.
     999900   -1    0    0    0    0 -0.00000000000E+00 -0.00000000000E+00 -0.74505805969E-08  0.93827000000E+00  0.93827000000E+00 0.  1.
     999902    2    1    2    0    0  0.11107963382E-01 -0.65255400362E-02 -0.19963300031E-01  0.10201707308E+01  0.10198940225E+01 0.  0.
     999903    2    3    3    0    0  0.12218754500E+00 -0.55205519156E-02 -0.47616128569E-01  0.13275630545E+00  0.19916533045E-01 0.  0.
         14    1    1    2    0    0 -0.11107963382E-01  0.65255400362E-02  0.19963300031E-01  0.23759269168E-01  0.00000000000E+00 0. -1.
     999901    1    3    3    0    0 -0.11107958162E+00 -0.10049881206E-02  0.27652828538E-01  0.88741442538E+00  0.88000000000E+00 0. -1.
        -11    1    4    4    0    0  0.58458472907E-01 -0.12570733278E-01 -0.23644472775E-01  0.64301933125E-01  0.51100000000E-03 0.  1.
         11    1    4    4    0    0  0.63729072097E-01  0.70501813620E-02 -0.23971655794E-01  0.68454372323E-01  0.51100000000E-03 0. -1.
</event>
<event>
 7    1  0.1183092E+005  0.1043930E+01  0.7957747E-01            NaN
         13   -1    0    0    0    0  0.00000000000E+00  0.00000000000E+00  0.74505805969E-08  0.10566000000E+00  0.10566000000E+00 0.  1.
     999900   -1    0    0    0    0 -0.00000000000E+00 -0.00000000000E+00 -0.74505805969E-08  0.93827000000E+00  0.93827000000E+00 0.  1.
     999903    2    1    2    0    0 -0.27895224289E-01 -0.23356326725E-01 -0.98777114772E-01  0.10726988350E+00  0.20645773578E-01 0.  0.
         14    1    1    2    0    0 -0.33510183631E-01 -0.15328752721E-01  0.35884642091E-01  0.51435499463E-01  0.00000000000E+00 0.  1.
     999901    1    1    2    0    0  0.61405407920E-01  0.38685079446E-01  0.62892472680E-01  0.88522461704E+00  0.88000000000E+00 0. -1.
        -11    1    3    3    0    0  0.33691346197E-02 -0.27349684868E-02 -0.97603492031E-02  0.10693767263E-01  0.51100000000E-03 0. -1.
         11    1    3    3    0    0 -0.31264358909E-01 -0.20621358239E-01 -0.89016765569E-01  0.96576116234E-01  0.51100000000E-03 0.  1.
</event>
<event>
 8    1  0.1183092E+005  0.1043930E+01  0.7957747E-01            NaN
         13   -1    0    0    0    0  0.00000000000E+00  0.00000000000E+00  0.74505805969E-08  0.10566000000E+00  0.10566000000E+00 0.  1.
     999900   -1    0    0    0    0 -0.00000000000E+00 -0.00000000000E+00 -0.74505805969E-08  0.93827000000E+00  0.93827000000E+00 0.  1.
     999902    2    1    2    0    0  0.57071967166E-02  0.71678743660E-02  0.21455113754E-01  0.10206003531E+01  0.10203336750E+01 0.  0.
     999903    2    3    3    0    0 -0.12136184410E+00 -0.82323827657E-02 -0.38816799634E-01  0.12929994776E+00  0.20378008441E-01 0.  0.
         14    1    1    2    0    0 -0.57071967166E-02 -0.71678743660E-02 -0.21455113754E-01  0.23329646879E-01  0.00000000000E+00 0.  1.
     999901    1    3    3    0    0  0.12706904081E+00  0.15400257132E-01  0.60271913388E-01  0.89130040536E+00  0.88000000000E+00 0. -1.
        -11    1    4    4    0    0 -0.60653436354E-01 -0.11211816626E-01 -0.27210235304E-01  0.67418114776E-01  0.51100000000E-03 0. -1.
         11    1    4    4    0    0 -0.60708407744E-01  0.29794338606E-02 -0.11606564330E-01  0.61881832984E-01  0.51100000000E-03 0.  1.
</event>
<event>
 8    1  0.1183092E+005  0.1043930E+01  0.7957747E-01            NaN
         13   -1    0    0    0    0  0.00000000000E+00  0.00000000000E+00  0.74505805969E-08  0.10566000000E+00  0.10566000000E+00 0. -1.
     999900   -1    0    0    0    0 -0.00000000000E+00 -0.00000000000E+00 -0.74505805969E-08  0.93827000000E+00  0.93827000000E+00 0.  1.
     999902    2    1    2    0    0 -0.11152927107E-01  0.11800983935E-01 -0.18215455883E-01  0.10195280772E+01  0.10192360111E+01 0.  0.
     999903    2    3    3    0    0 -0.72147184786E-01  0.65276913637E-01  0.83557422321E-01  0.12995644247E+00  0.20989101625E-01 0.  0.
         14    1    1    2    0    0  0.11152927107E-01 -0.11800983935E-01  0.18215455883E-01  0.24401922832E-01  0.00000000000E+00 0. -1.
     999901    1    3    3    0    0  0.60994257679E-01 -0.53475929703E-01 -0.10177287820E+00  0.88957163470E+00  0.88000000000E+00 0.  1.
        -11    1    4    4    0    0 -0.44918576301E-01  0.45100682621E-01  0.41701919871E-01  0.76099023067E-01  0.51100000000E-03 0. -1.
         11    1    4    4    0    0 -0.27228608485E-01  0.20176231017E-01  0.41855502450E-01  0.53857419400E-01  0.51100000000E-03 0.  1.
</event>
<event>
 8    1  0.1183092E+005  0.1043930E+01  0.7957747E-01            NaN
         13   -1    0    0    0    0  0.00000000000E+00  0.00000000000E+00  0.74505805969E-08  0.10566000000E+00  0.10566000000E+00 0. -1.
     999900   -1    0    0    0    0 -0.00000000000E+00 -0.00000000000E+00 -0.74505805969E-08  0.93827000000E+00  0.93827000000E+00 0.  1.
     999902    2    1    2    0    0  0.12507270546E-01  0.93487181993E-02  0.17831850921E-01  0.10202275686E+01  0.10199521981E+01 0.  0.
     999903    2    3    3    0    0  0.96466929631E-01  0.30157198850E-01  0.84399053644E-01  0.13348442103E+00  0.21898978239E-01 0.  0.
         14    1    1    2    0    0 -0.12507270546E-01 -0.93487181993E-02 -0.17831850921E-01  0.23702431431E-01  0.00000000000E+00 0.  1.
     999901    1    3    3    0    0 -0.83959659085E-01 -0.20808480651E-01 -0.66567202723E-01  0.88674314753E+00  0.88000000000E+00 0. -1.
        -11    1    4    4    0    0  0.93701978147E-01  0.24502932906E-01  0.76827571740E-01  0.12362520508E+00  0.51100000000E-03 0.  1.
         11    1    4    4    0    0  0.27649514837E-02  0.56542659448E-02  0.75714819042E-02  0.98592159580E-02  0.51100000000E-03 0. -1.
</event>
<event>
 8    1  0.1183092E+005  0.1043930E+01  0.7957747E-01            NaN
         13   -1    0    0    0    0  0.00000000000E+00  0.00000000000E+00  0.74505805969E-08  0.10566000000E+00  0.10566000000E+00 0.  1.
     999900   -1    0    0    0    0 -0.00000000000E+00 -0.00000000000E+00 -0.74505805969E-08  0.93827000000E+00  0.93827000000E+00 0. -1.
     999902    2    1    2    0    0  0.32401467745E-01 -0.73064030535E-02 -0.56840825318E-02  0.10102321153E+01  0.10096699359E+01 0.  0.
     999903    2    3    3    0    0  0.68619041504E-01 -0.78274070523E-01 -0.65495647837E-01  0.12461055629E+00  0.20067582826E-01 0.  0.
         14    1    1    2    0    0 -0.32401467745E-01  0.73064030535E-02  0.56840825318E-02  0.33697884679E-01  0.00000000000E+00 0.  1.
     999901    1    3    3    0    0 -0.36217573759E-01  0.70967667469E-01  0.59811565306E-01  0.88562155903E+00  0.88000000000E+00 0.  1.
        -11    1    4    4    0    0  0.39708089514E-01 -0.32938115544E-01 -0.38934693267E-01  0.64636083492E-01  0.51100000000E-03 0.  1.
         11    1    4    4    0    0  0.28910951990E-01 -0.45335954979E-01 -0.26560954570E-01  0.59974472799E-01  0.51100000000E-03 0. -1.
</event>
<event>
 8    1  0.1183092E+005  0.1043930E+01  0.7957747E-01            NaN
         13   -1    0    0    0    0  0.00000000000E+00  0.00000000000E+00  0.74505805969E-08  0.10566000000E+00  0.10566000000E+00 0. -1.
     999900   -1    0    0    0    0 -0.00000000000E+00 -0.00000000000E+00 -0.74505805969E-08  0.93827000000E+00  0.93827000000E+00 0. -1.
     999902    2    1    2    0    0 -0.21263057547E-02 -0.30487739256E-01 -0.82619519949E-02  0.10122711423E+01  0.10117759546E+01 0.  0.
     999903    2    3    3    0    0 -0.16257091912E-01  0.44002718307E-01  0.10986881551E+00  0.12114635550E+00  0.20118413806E-01 0.  0.
         14    1    1    2    0    0  0.21263057547E-02  0.30487739256E-01  0.82619519949E-02  0.31658857716E-01  0.00000000000E+00 0. -1.
     999901    1    3    3    0    0  0.14130786157E-01 -0.74490457563E-01 -0.11813076750E+00  0.89112478678E+00  0.88000000000E+00 0. -1.
        -11    1    4    4    0    0 -0.13698472514E-01  0.24071500822E-01  0.41594924201E-01  0.49974835080E-01  0.51100000000E-03 0.  1.
         11    1    4    4    0    0 -0.25586193981E-02  0.19931217485E-01  0.68273891309E-01  0.71171520422E-01  0.51100000000E-03 0. -1.
</event>
<event>
 8    1  0.1183092E+005  0.1043930E+01  0.7957747E-01            NaN
         13   -1    0    0    0    0  0.00000000000E+00  0.00000000000E+00  0.74505805969E-08  0.10566000000E+00  0.10566000000E+00 0. -1.
     999900   -1    0    0    0    0 -0.00000000000E+00 -0.00000000000E+00 -0.74505805969E-08  0.93827000000E+00  0.93827000000E+00 0.  1.
     999902    2    1    2    0    0  0.22609743951E-01 -0.10492213164E-02 -0.84192981214E-02  0.10197807564E+01  0.10194947793E+01 0.  0.
     999903    2    3    3    0    0  0.11018867807E+00 -0.37365769379E-01  0.59401476684E-01  0.13209352606E+00  0.19555528592E-01 0.  0.
         14    1    1    2    0    0 -0.22609743951E-01  0.10492213164E-02  0.84192981214E-02  0.24149243627E-01  0.00000000000E+00 0.  1.
     999901    1    3    3    0    0 -0.87578934120E-01  0.36316548062E-01 -0.67820774806E-01  0.88768723031E+00  0.88000000000E+00 0.  1.
        -11    1    4    4    0    0  0.96431527812E-01 -0.27347153888E-01  0.45347368181E-01  0.11001614111E+00  0.51100000000E-03 0.  1.
         11    1    4    4    0    0  0.13757150259E-01 -0.10018615490E-01  0.14054108503E-01  0.22077384954E-01  0.51100000000E-03 0. -1.
</event>
<event>
 8    1  0.1183092E+005  0.1043930E+01  0.7957747E-01            NaN
         13   -1    0    0    0    0  0.00000000000E+00  0.00000000000E+00  0.74505805969E-08  0.10566000000E+00  0.10566000000E+00 0.  1.
     999900   -1    0    0    0    0 -0.00000000000E+00 -0.00000000000E+00 -0.74505805969E-08  0.93827000000E+00  0.93827000000E+00 0.  1.
     999902    2    1    2    0    0 -0.22601716820E-01  0.15626226113E-02  0.58005672346E-02  0.10205435515E+01  0.10202755582E+01 0.  0.
     999903    2    3    3    0    0 -0.38594775813E-01  0.12238788466E+00  0.23498461912E-01  0.13196730978E+00  0.19870634283E-01 0.  0.
         14    1    1    2    0    0  0.22601716820E-01 -0.15626226113E-02 -0.58005672346E-02  0.23386448488E-01  0.00000000000E+00 0.  1.
     999901    1    3    3    0    0  0.15993058993E-01 -0.12082526205E+00 -0.17697894677E-01  0.88857624173E+00  0.88000000000E+00 0.  1.
        -11    1    4    4    0    0 -0.31522939543E-01  0.11632262480E+00  0.21419479177E-01  0.12240794079E+00  0.51100000000E-03 0.  1.
         11    1    4    4    0    0 -0.70718362707E-02  0.60652598625E-02  0.20789827343E-02  0.95593689985E-02  0.51100000000E-03 0. -1.
</event>
<event>
 8    1  0.1183092E+005  0.1043930E+01  0.7957747E-01            NaN
         13   -1    0    0    0    0  0.00000000000E+00  0.00000000000E+00  0.74505805969E-08  0.10566000000E+00  0.10566000000E+00 0. -1.
     999900   -1    0    0    0    0 -0.00000000000E+00 -0.00000000000E+00 -0.74505805969E-08  0.93827000000E+00  0.93827000000E+00 0. -1.
     999902    2    1    2    0    0 -0.93082041481E-03  0.10672726281E-02  0.28448560125E-01  0.10154462139E+01  0.10150466429E+01 0.  0.
     999903    2    3    3    0    0 -0.36167467748E-01  0.74419984735E-01  0.96854248708E-01  0.12904812053E+00  0.20645872939E-01 0.  0.
         14    1    1    2    0    0  0.93082041481E-03 -0.10672726281E-02 -0.28448560125E-01  0.28483786102E-01  0.00000000000E+00 0.  1.
     999901    1    3    3    0    0  0.35236647333E-01 -0.73352712106E-01 -0.68405688583E-01  0.88639809336E+00  0.88000000000E+00 0.  1.
        -11    1    4    4    0    0 -0.12930131155E-01  0.43055769590E-01  0.40611369687E-01  0.60584916072E-01  0.51100000000E-03 0. -1.
         11    1    4    4    0    0 -0.23237336593E-01  0.31364215145E-01  0.56242879021E-01  0.68463204462E-01  0.51100000000E-03 0.  1.
</event>
<event>
 8    1  0.1183092E+005  0.1043930E+01  0.7957747E-01            NaN
         13   -1    0    0    0    0  0.00000000000E+00  0.00000000000E+00  0.74505805969E-08  0.10566000000E+00  0.10566000000E+00 0.  1.
     999900   -1    0    0    0    0 -0.00000000000E+00 -0.00000000000E+00 -0.74505805969E-08  0.93827000000E+00  0.93827000000E+00 0.  1.
     999902    2    1    2    0    0  0.22280519602E-01  0.39194742435E-02 -0.70127782132E-02  0.10202453448E+01  0.10199703921E+01 0.  0.
     999903    2    3    3    0    0 -0.11401418727E+00 -0.11573255273E-02 -0.55648908055E-01  0.12841156316E+00  0.19802885736E-01 0.  0.
         14    1    1    2    0    0 -0.22280519602E-01 -0.39194742435E-02  0.70127782132E-02  0.23684655166E-01  0.00000000000E+00 0. -1.
     999901    1    3    3    0    0  0.13629470687E+00  0.50767997708E-02  0.48636129842E-01  0.89183378168E+00  0.88000000000E+00 0.  1.
        -11    1    4    4    0    0 -0.44909850311E-01 -0.20578447627E-02 -0.11519192300E-01  0.46412092091E-01  0.51100000000E-03 0.  1.
         11    1    4    4    0    0 -0.69104336958E-01  0.90051923546E-03 -0.44129715756E-01  0.81999471065E-01  0.51100000000E-03 0. -1.
</event>
<event>
 8    1  0.1183092E+005  0.1043930E+01  0.7957747E-01            NaN
         13   -1    0    0    0    0  0.00000000000E+00  0.00000000000E+00  0.74505805969E-08  0.10566000000E+00  0.10566000000E+00 0.  1.
     999900   -1    0    0    0    0 -0.00000000000E+00 -0.00000000000E+00 -0.74505805969E-08  0.93827000000E+00  0.93827000000E+00 0. -1.
     999902    2    1    2    0    0 -0.27897257760E-01 -0.36069638137E-02  0.93667562638E-02  0.10142820102E+01  0.10138486045E+01 0.  0.
     999903    2    3    3    0    0 -0.52563046172E-01 -0.55069228458E-01 -0.98234142059E-01  0.12589317687E+00  0.20091081861E-01 0.  0.
         14    1    1    2    0    0  0.27897257760E-01  0.36069638137E-02 -0.93667562638E-02  0.29647989838E-01  0.00000000000E+00 0.  1.
     999901    1    3    3    0    0  0.24665788412E-01  0.51462264645E-01  0.10760089832E+00  0.88838883329E+00  0.88000000000E+00 0.  1.
        -11    1    4    4    0    0 -0.35912754475E-01 -0.28891141993E-01 -0.45886657123E-01  0.65040529230E-01  0.51100000000E-03 0. -1.
         11    1    4    4    0    0 -0.16650291697E-01 -0.26178086466E-01 -0.52347484936E-01  0.60852647639E-01  0.51100000000E-03 0.  1.
</event>
<event>
 8    1  0.1183092E+005  0.1043930E+01  0.7957747E-01            NaN
         13   -1    0    0    0    0  0.00000000000E+00  0.00000000000E+00  0.74505805969E-08  0.10566000000E+00  0.10566000000E+00 0. -1.
     999900   -1    0    0    0    0 -0.00000000000E+00 -0.00000000000E+00 -0.74505805969E-08  0.93827000000E+00  0.93827000000E+00 0. -1.
     999902    2    1    2    0    0  0.12613949681E-01 -0.10789208516E-01  0.18705333093E-01  0.10189218367E+01  0.10186148934E+01 0.  0.
     999903    2    3    3    0    0  0.95904080586E-01  0.54752466059E-01  0.67827983659E-01  0.13120229098E+00  0.20444573299E-01 0.  0.
         14    1    1    2    0    0 -0.12613949681E-01  0.10789208516E-01 -0.18705333093E-01  0.25008163329E-01  0.00000000000E+00 0.  1.
     999901    1    3    3    0    0 -0.83290130905E-01 -0.65541674575E-01 -0.49122650566E-01  0.88771954570E+00  0.88000000000E+00 0. -1.
        -11    1    4    4    0    0  0.22152092773E-01  0.23095883652E-01  0.20981134124E-01  0.38270147191E-01  0.51100000000E-03 0.  1.
         11    1    4    4    0    0  0.73751987812E-01  0.31656582407E-01  0.46846849534E-01  0.92932143784E-01  0.51100000000E-03 0. -1.
</event>
<event>
 8    1  0.1183092E+005  0.1043930E+01  0.7957747E-01            NaN
         13   -1    0    0    0    0  0.00000000000E+00  0.00000000000E+00  0.74505805969E-08  0.10566000000E+00  0.10566000000E+00 0. -1.
     999900   -1    0    0    0    0 -0.00000000000E+00 -0.00000000000E+00 -0.74505805969E-08  0.93827000000E+00  0.93827000000E+00 0.  1.
     999902    2    1    2    0    0 -0.12668640235E-01 -0.20097407562E-01  0.45058378732E-02  0.10197493712E+01  0.10194626414E+01 0.  0.
     999903    2    3    3    0    0 -0.12821317810E+00  0.45127734877E-02 -0.18485052942E-01  0.13155750996E+00  0.22509932927E-01 0.  0.
         14    1    1    2    0    0  0.12668640235E-01  0.20097407562E-01 -0.45058378732E-02  0.24180628839E-01  0.00000000000E+00 0. -1.
     999901    1    3    3    0    0  0.11554453787E+00 -0.24610181050E-01  0.22990890815E-01  0.88819186120E+00  0.88000000000E+00 0. -1.
        -11    1    4    4    0    0 -0.66187651668E-01  0.78296832902E-02  0.33782783436E-03  0.66651964880E-01  0.51100000000E-03 0. -1.
         11    1    4    4    0    0 -0.62025526436E-01 -0.33169098025E-02 -0.18822880777E-01  0.64905545080E-01  0.51100000000E-03 0.  1.
</event>
<event>
 8    1  0.1183092E+005  0.1043930E+01  0.7957747E-01            NaN
         13   -1    0    0    0    0  0.00000000000E+00  0.00000000000E+00  0.74505805969E-08  0.10566000000E+00  0.10566000000E+00 0. -1.
     999900   -1    0    0    0    0 -0.00000000000E+00 -0.00000000000E+00 -0.74505805969E-08  0.93827000000E+00  0.93827000000E+00 0.  1.
     999902    2    1    2    0    0 -0.15977146465E-01  0.44448255861E-02  0.13566396901E-01  0.10225040156E+01  0.10222795063E+01 0.  0.
     999903    2    3    3    0    0  0.43874407481E-01  0.98675202573E-01  0.75838758422E-01  0.13326871518E+00  0.18635287303E-01 0.  0.
         14    1    1    2    0    0  0.15977146465E-01 -0.44448255861E-02 -0.13566396901E-01  0.21425984424E-01  0.00000000000E+00 0.  1.
     999901    1    3    3    0    0 -0.59851553946E-01 -0.94230376986E-01 -0.62272361521E-01  0.88923530039E+00  0.88000000000E+00 0.  1.
        -11    1    4    4    0    0  0.11758329197E-01  0.39214938784E-01  0.37765608913E-01  0.55700736682E-01  0.51100000000E-03 0.  1.
         11    1    4    4    0    0  0.32116078283E-01  0.59460263789E-01  0.38073149509E-01  0.77567978501E-01  0.51100000000E-03 0. -1.
</event>
<event>
 8    1  0.1183092E+005  0.1043930E+01  0.7957747E-01            NaN
         13   -1    0    0    0    0  0.00000000000E+00  0.00000000000E+00  0.74505805969E-08  0.10566000000E+00  0.10566000000E+00 0.  1.
     999900   -1    0    0    0    0 -0.00000000000E+00 -0.00000000000E+00 -0.74505805969E-08  0.93827000000E+00  0.93827000000E+00 0.  1.
     999902    2    1    2    0    0 -0.14587506065E-01  0.13015207034E-01  0.13862991830E-01  0.10199639096E+01  0.10196823051E+01 0.  0.
     999903    2    3    3    0    0  0.45255194221E-01  0.10022400488E+00 -0.66561638084E-01  0.12998939068E+00  0.19336656065E-01 0.  0.
         14    1    1    2    0    0  0.14587506065E-01 -0.13015207034E-01 -0.13862991830E-01  0.23966090416E-01  0.00000000000E+00 0. -1.
     999901    1    3    3    0    0 -0.59842700286E-01 -0.87208797843E-01  0.80424629913E-01  0.88997451890E+00  0.88000000000E+00 0.  1.
        -11    1    4    4    0    0  0.69108249996E-02  0.19518360434E-01 -0.21732155347E-01  0.30021219050E-01  0.51100000000E-03 0.  1.
         11    1    4    4    0    0  0.38344369221E-01  0.80705644443E-01 -0.44829482736E-01  0.99968171632E-01  0.51100000000E-03 0. -1.
</event>
<event>
 8    1  0.1183092E+005  0.1043930E+01  0.7957747E-01            NaN
         13   -1    0    0    0    0  0.00000000000E+00  0.00000000000E+00  0.74505805969E-08  0.10566000000E+00  0.10566000000E+00 0. -1.
     999900   -1    0    0    0    0 -0.00000000000E+00 -0.00000000000E+00 -0.74505805969E-08  0.93827000000E+00  0.93827000000E+00 0.  1.
     999902    2    1    2    0    0  0.16763629121E-01  0.16772900950E-01  0.22303190637E-02  0.10201114402E+01  0.10198333328E+01 0.  0.
     999903    2    3    3    0    0  0.50107387351E-01 -0.98258647323E-01 -0.64738378832E-01  0.12947746948E+00  0.20195181810E-01 0.  0.
         14    1    1    2    0    0 -0.16763629121E-01 -0.16772900950E-01 -0.22303190637E-02  0.23818559795E-01  0.00000000000E+00 0.  1.
     999901    1    3    3    0    0 -0.33343758229E-01  0.11503154827E+00  0.66968697895E-01  0.89063397072E+00  0.88000000000E+00 0. -1.
        -11    1    4    4    0    0  0.46175475197E-01 -0.79521279272E-01 -0.46562523271E-01  0.10307345954E+00  0.51100000000E-03 0. -1.
         11    1    4    4    0    0  0.39319121535E-02 -0.18737368051E-01 -0.18175855561E-01  0.26404009942E-01  0.51100000000E-03 0.  1.
</event>
<event>
 8    1  0.1183092E+005  0.1043930E+01  0.7957747E-01            NaN
         13   -1    0    0    0    0  0.00000000000E+00  0.00000000000E+00  0.74505805969E-08  0.10566000000E+00  0.10566000000E+00 0. -1.
     999900   -1    0    0    0    0 -0.00000000000E+00 -0.00000000000E+00 -0.74505805969E-08  0.93827000000E+00  0.93827000000E+00 0.  1.
     999902    2    1    2    0    0 -0.38876606984E-02  0.23252331750E-01 -0.11699770700E-02  0.10203258969E+01  0.10200528330E+01 0.  0.
     999903    2    3    3    0    0  0.91287529474E-01  0.84531645406E-01 -0.40447061708E-01  0.13220644519E+00  0.19067439147E-01 0.  0.
         14    1    1    2    0    0  0.38876606984E-02 -0.23252331750E-01  0.11699770700E-02  0.23604103115E-01  0.00000000000E+00 0.  1.
     999901    1    3    3    0    0 -0.95175190173E-01 -0.61279313655E-01  0.39277084638E-01  0.88811945170E+00  0.88000000000E+00 0. -1.
        -11    1    4    4    0    0  0.56493960276E-01  0.39698862519E-01 -0.20076703664E-01  0.71908986809E-01  0.51100000000E-03 0. -1.
         11    1    4    4    0    0  0.34793569199E-01  0.44832782887E-01 -0.20370358044E-01  0.60297458378E-01  0.51100000000E-03 0.  1.
</event>
<event>
 8    1  0.1183092E+005  0.1043930E+01  0.7957747E-01            NaN
         13   -1    0    0    0    0  0.00000000000E+00  0.00000000000E+00  0.74505805969E-08  0.10566000000E+00  0.10566000000E+00 0. -1.
     999900   -1    0    0    0    0 -0.00000000000E+00 -0.00000000000E+00 -0.74505805969E-08  0.93827000000E+00  0.93827000000E+00 0. -1.
     999902    2    1    2    0    0 -0.45415210805E-02 -0.13634020746E-01 -0.18067872550E-01  0.10208440745E+01  0.10205830023E+01 0.  0.
     999903    2    3    3    0    0  0.24844515818E-01  0.12392213527E+00 -0.24489254653E-01  0.12965022955E+00  0.15346427959E-01 0.  0.
         14    1    1    2    0    0  0.45415210805E-02  0.13634020746E-01  0.18067872550E-01  0.23085925450E-01  0.00000000000E+00 0. -1.
     999901    1    3    3    0    0 -0.29386036899E-01 -0.13755615602E+00  0.64213821034E-02  0.89119384500E+00  0.88000000000E+00 0. -1.
        -11    1    4    4    0    0  0.88566399781E-02  0.24119740186E-01 -0.98359037680E-02  0.27517413800E-01  0.51100000000E-03 0.  1.
         11    1    4    4    0    0  0.15987875840E-01  0.99802395088E-01 -0.14653350885E-01  0.10213281575E+00  0.51100000000E-03 0. -1.
</event>
<event>
 8    1  0.1183092E+005  0.1043930E+01  0.7957747E-01            NaN
         13   -1    0    0    0    0  0.00000000000E+00  0.00000000000E+00  0.74505805969E-08  0.10566000000E+00  0.10566000000E+00 0.  1.
     999900   -1    0    0    0    0 -0.00000000000E+00 -0.00000000000E+00 -0.74505805969E-08  0.93827000000E+00  0.93827000000E+00 0.  1.
     999902    2    1    2    0    0 -0.68327121381E-02  0.19646279769E-01  0.89919115309E-02  0.10212690923E+01  0.10210176503E+01 0.  0.
     999903    2    3    3    0    0  0.48771418325E-01  0.31510709533E-01  0.11779334837E+00  0.13274765945E+00  0.19367294822E-01 0.  0.
         14    1    1    2    0    0  0.68327121381E-02 -0.19646279769E-01 -0.89919115309E-02  0.22660907680E-01  0.00000000000E+00 0. -1.
     999901    1    3    3    0    0 -0.55604130463E-01 -0.11864429765E-01 -0.10880143683E+00  0.88852143287E+00  0.88000000000E+00 0.  1.
        -11    1    4    4    0    0  0.59403302683E-02  0.13444757584E-01  0.27091279998E-01  0.30826086406E-01  0.51100000000E-03 0.  1.
         11    1    4    4    0    0  0.42831088057E-01  0.18065951949E-01  0.90702068367E-01  0.10192157304E+00  0.51100000000E-03 0. -1.
</event>
<event>
 8    1  0.1183092E+005  0.1043930E+01  0.7957747E-01            NaN
         13   -1    0    0    0    0  0.00000000000E+00  0.00000000000E+00  0.74505805969E-08  0.10566000000E+00  0.10566000000E+00 0. -1.
     999900   -1    0    0    0    0 -0.00000000000E+00 -0.00000000000E+00 -0.74505805969E-08  0.93827000000E+00  0.93827000000E+00 0.  1.
     999902    2    1    2    0    0 -0.51652623135E-02  0.12068565324E-01  0.20472628036E-01  0.10196100760E+01  0.10193199931E+01 0.  0.
     999903    2    3    3    0    0  0.70813459883E-01  0.10588145809E+00  0.24084710243E-01  0.13136085862E+00  0.21217272258E-01 0.  0.
         14    1    1    2    0    0  0.51652623135E-02 -0.12068565324E-01 -0.20472628036E-01  0.24319923981E-01  0.00000000000E+00 0.  1.
     999901    1    3    3    0    0 -0.75978722196E-01 -0.93812892763E-01 -0.36120822067E-02  0.88824921740E+00  0.88000000000E+00 0.  1.
        -11    1    4    4    0    0  0.42282852287E-01  0.44731400250E-01  0.89223715248E-02  0.62198131808E-01  0.51100000000E-03 0. -1.
         11    1    4    4    0    0  0.28530607596E-01  0.61150057838E-01  0.15162338718E-01  0.69162726809E-01  0.51100000000E-03 0.  1.
</event>
<event>
 8    1  0.1183092E+005  0.1043930E+01  0.7957747E-01            NaN
         13   -1    0    0    0    0  0.00000000000E+00  0.00000000000E+00  0.74505805969E-08  0.10566000000E+00  0.10566000000E+00 0. -1.
     999900   -1    0    0    0    0 -0.00000000000E+00 -0.00000000000E+00 -0.74505805969E-08  0.93827000000E+00  0.93827000000E+00 0.  1.
     999902    2    1    2    0    0 -0.67759125001E-02  0.20240861204E-01  0.11068339276E-01  0.10198860073E+01  0.10196025472E+01 0.  0.
     999903    2    3    3    0    0 -0.95434529569E-01  0.50880362294E-01 -0.71323831598E-01  0.13107354154E+00  0.19915412014E-01 0.  0.
         14    1    1    2    0    0  0.67759125001E-02 -0.20240861204E-01 -0.11068339276E-01  0.24043992738E-01  0.00000000000E+00 0.  1.
     999901    1    3    3    0    0  0.88658617069E-01 -0.30639501090E-01  0.82392170875E-01  0.88881246573E+00  0.88000000000E+00 0. -1.
        -11    1    4    4    0    0 -0.40196968520E-01  0.31846908311E-01 -0.37808516226E-01  0.63716299856E-01  0.51100000000E-03 0.  1.
         11    1    4    4    0    0 -0.55237561049E-01  0.19033453983E-01 -0.33515315373E-01  0.67357241680E-01  0.51100000000E-03 0. -1.
</event>
<event>
 8    1  0.1183092E+005  0.1043930E+01  0.7957747E-01            NaN
         13   -1    0    0    0    0  0.00000000000E+00  0.00000000000E+00  0.74505805969E-08  0.10566000000E+00  0.10566000000E+00 0. -1.
     999900   -1    0    0    0    0 -0.00000000000E+00 -0.00000000000E+00 -0.74505805969E-08  0.93827000000E+00  0.93827000000E+00 0.  1.
     999902    2    1    2    0    0  0.17321847094E-02 -0.22525008045E-01 -0.73662706057E-02  0.10201678790E+01  0.10198911035E+01 0.  0.
     999903    2    3    3    0    0 -0.42346883602E-01  0.86801502643E-01  0.81303693661E-01  0.12789123314E+00  0.20447921639E-01 0.  0.
         14    1    1    2    0    0 -0.17321847094E-02  0.22525008045E-01  0.73662706057E-02  0.23762120990E-01  0.00000000000E+00 0. -1.
     999901    1    3    3    0    0  0.44079068311E-01 -0.10932651069E+00 -0.88669964266E-01  0.89227664587E+00  0.88000000000E+00 0.  1.
        -11    1    4    4    0    0 -0.26447179261E-01  0.31435039476E-01  0.35428817566E-01  0.54250135786E-01  0.51100000000E-03 0.  1.
         11    1    4    4    0    0 -0.15899704341E-01  0.55366463167E-01  0.45874876095E-01  0.73641097354E-01  0.51100000000E-03 0. -1.
</event>
<event>
 8    1  0.1183092E+005  0.1043930E+01  0.7957747E-01            NaN
         13   -1    0    0    0    0  0.00000000000E+00  0.00000000000E+00  0.74505805969E-08  0.10566000000E+00  0.10566000000E+00 0. -1.
     999900   -1    0    0    0    0 -0.00000000000E+00 -0.00000000000E+00 -0.74505805969E-08  0.93827000000E+00  0.93827000000E+00 0. -1.
     999902    2    1    2    0    0 -0.12860480372E-01  0.21602710842E-01 -0.47990572482E-02  0.10183350782E+01  0.10180133749E+01 0.  0.
     999903    2    3    3    0    0  0.11241549186E+00  0.79155283735E-02 -0.57767122094E-01  0.12778074293E+00  0.17058120382E-01 0.  0.
         14    1    1    2    0    0  0.12860480372E-01 -0.21602710842E-01  0.47990572482E-02  0.25594921793E-01  0.00000000000E+00 0. -1.
     999901    1    3    3    0    0 -0.12527597223E+00  0.13687182468E-01  0.52968064846E-01  0.89055433527E+00  0.88000000000E+00 0.  1.
        -11    1    4    4    0    0  0.48628195190E-01 -0.66698413220E-03 -0.33203544742E-01  0.58888731857E-01  0.51100000000E-03 0.  1.
         11    1    4    4    0    0  0.63787296666E-01  0.85825125057E-02 -0.24563577351E-01  0.68892011076E-01  0.51100000000E-03 0. -1.
</event>
<event>
 8    1  0.1183092E+005  0.1043930E+01  0.7957747E-01            NaN
         13   -1    0    0    0    0  0.00000000000E+00  0.00000000000E+00  0.74505805969E-08  0.10566000000E+00  0.10566000000E+00 0.  1.
     999900   -1    0    0    0    0 -0.00000000000E+00 -0.00000000000E+00 -0.74505805969E-08  0.93827000000E+00  0.93827000000E+00 0. -1.
     999902    2    1    2    0    0 -0.12679634116E-02  0.74694461463E-02  0.22668241352E-01  0.10200291732E+01  0.10197491185E+01 0.  0.
     999903    2    3    3    0    0 -0.21874964314E-01  0.51059170328E-01 -0.11371886160E+00  0.12821856862E+00  0.20554048666E-01 0.  0.
         14    1    1    2    0    0  0.12679634116E-02 -0.74694461463E-02 -0.22668241352E-01  0.23900826825E-01  0.00000000000E+00 0. -1.
     999901    1    3    3    0    0  0.20607000903E-01 -0.43589724181E-01  0.13638710296E+00  0.89181060455E+00  0.88000000000E+00 0.  1.
        -11    1    4    4    0    0 -0.41160782275E-02  0.17643999833E-01 -0.58746450149E-01  0.61478934247E-01  0.51100000000E-03 0.  1.
         11    1    4    4    0    0 -0.17758886087E-01  0.33415170495E-01 -0.54972411455E-01  0.66739634374E-01  0.51100000000E-03 0. -1.
</event>
<event>
 8    1  0.1183092E+005  0.1043930E+01  0.7957747E-01            NaN
         13   -1    0    0    0    0  0.00000000000E+00  0.00000000000E+00  0.74505805969E-08  0.10566000000E+00  0.10566000000E+00 0.  1.
     999900   -1    0    0    0    0 -0.00000000000E+00 -0.00000000000E+00 -0.74505805969E-08  0.93827000000E+00  0.93827000000E+00 0.  1.
     999902    2    1    2    0    0  0.14926240879E-02 -0.13240598023E-01 -0.21124051651E-01  0.10189546738E+01  0.10186485460E+01 0.  0.
     999903    2    3    3    0    0 -0.10721099043E-01  0.99676650064E-01  0.73825115549E-01  0.12658993650E+00  0.22901698738E-01 0.  0.
         14    1    1    2    0    0 -0.14926240879E-02  0.13240598023E-01  0.21124051651E-01  0.24975326241E-01  0.00000000000E+00 0.  1.
     999901    1    3    3    0    0  0.12213723131E-01 -0.11291724809E+00 -0.94949167200E-01  0.89236473726E+00  0.88000000000E+00 0.  1.
        -11    1    4    4    0    0  0.22850097549E-02  0.48942077963E-01  0.46333217212E-01  0.67435720528E-01  0.51100000000E-03 0. -1.
         11    1    4    4    0    0 -0.13006108798E-01  0.50734572101E-01  0.27491898337E-01  0.59154215974E-01  0.51100000000E-03 0.  1.
</event>
<event>
 8    1  0.1183092E+005  0.1043930E+01  0.7957747E-01            NaN
         13   -1    0    0    0    0  0.00000000000E+00  0.00000000000E+00  0.74505805969E-08  0.10566000000E+00  0.10566000000E+00 0.  1.
     999900   -1    0    0    0    0 -0.00000000000E+00 -0.00000000000E+00 -0.74505805969E-08  0.93827000000E+00  0.93827000000E+00 0. -1.
     999902    2    1    2    0    0  0.15616165405E-01 -0.17310715906E-01 -0.12791263048E-01  0.10173378599E+01  0.10169902552E+01 0.  0.
     999903    2    3    3    0    0 -0.11322777772E+00  0.26980938893E-01  0.41353561289E-01  0.12520884768E+00  0.20460640112E-01 0.  0.
         14    1    1    2    0    0 -0.15616165405E-01  0.17310715906E-01  0.12791263048E-01  0.26592140144E-01  0.00000000000E+00 0.  1.
     999901    1    3    3    0    0  0.12884394313E+00 -0.44291654799E-01 -0.54144824337E-01  0.89212901218E+00  0.88000000000E+00 0.  1.
        -11    1    4    4    0    0 -0.79014741460E-01  0.26485763628E-01  0.35073104681E-01  0.90416861458E-01  0.51100000000E-03 0.  1.
         11    1    4    4    0    0 -0.34213036264E-01  0.49517526499E-03  0.62804566078E-02  0.34791986220E-01  0.51100000000E-03 0. -1.
</event>
<event>
 8    1  0.1183092E+005  0.1043930E+01  0.7957747E-01            NaN
         13   -1    0    0    0    0  0.00000000000E+00  0.00000000000E+00  0.74505805969E-08  0.10566000000E+00  0.10566000000E+00 0. -1.
     999900   -1    0    0    0    0 -0.00000000000E+00 -0.00000000000E+00 -0.74505805969E-08  0.93827000000E+00  0.93827000000E+00 0.  1.
     999902    2    1    2    0    0 -0.11925101560E-01  0.16405504880E-02  0.19862961541E-01  0.10207042235E+01  0.10204399420E+01 0.  0.
     999903    2    3    3    0    0 -0.13753115472E-02  0.12734921830E+00  0.25395686186E-01  0.13169096247E+00  0.21859868189E-01 0.  0.
         14    1    1    2    0    0  0.11925101560E-01 -0.16405504880E-02 -0.19862961541E-01  0.23225776506E-01  0.00000000000E+00 0.  1.
     999901    1    3    3    0    0 -0.10549790013E-01 -0.12570866781E+00 -0.55327246449E-02  0.88901326102E+00  0.88000000000E+00 0.  1.
        -11    1    4    4    0    0 -0.86093771203E-02  0.24112014456E-01  0.27932282395E-02  0.25759927417E-01  0.51100000000E-03 0.  1.
         11    1    4    4    0    0  0.72340655730E-02  0.10323720384E+00  0.22602457947E-01  0.10593103505E+00  0.51100000000E-03 0. -1.
</event>
<event>
 8    1  0.1183092E+005  0.1043930E+01  0.7957747E-01            NaN
         13   -1    0    0    0    0  0.00000000000E+00  0.00000000000E+00  0.74505805969E-08  0.10566000000E+00  0.10566000000E+00 0.  1.
     999900   -1    0    0    0    0 -0.00000000000E+00 -0.00000000000E+00 -0.74505805969E-08  0.93827000000E+00  0.93827000000E+00 0. -1.
     999902    2    1    2    0    0  0.21169741495E-02  0.22654387287E-01 -0.17213189214E-02  0.10211118979E+01  0.10208569157E+01 0.  0.
     999903    2    3    3    0    0  0.50678916936E-01  0.10914068121E+00 -0.54843172877E-01  0.13394783606E+00  0.21312162205E-01 0.  0.
         14    1    1    2    0    0 -0.21169741495E-02 -0.22654387287E-01  0.17213189214E-02  0.22818102062E-01  0.00000000000E+00 0.  1.
     999901    1    3    3    0    0 -0.48561942786E-01 -0.86486293919E-01  0.53121853956E-01  0.88716406188E+00  0.88000000000E+00 0.  1.
        -11    1    4    4    0    0  0.17955786609E-01  0.63637596047E-01 -0.31199153987E-01  0.73114993222E-01  0.51100000000E-03 0.  1.
         11    1    4    4    0    0  0.32723130326E-01  0.45503085159E-01 -0.23644018890E-01  0.60832842836E-01  0.51100000000E-03 0. -1.
</event>
<event>
 8    1  0.1183092E+005  0.1043930E+01  0.7957747E-01            NaN
         13   -1    0    0    0    0  0.00000000000E+00  0.00000000000E+00  0.74505805969E-08  0.10566000000E+00  0.10566000000E+00 0. -1.
     999900   -1    0    0    0    0 -0.00000000000E+00 -0.00000000000E+00 -0.74505805969E-08  0.93827000000E+00  0.93827000000E+00 0.  1.
     999902    2    1    2    0    0  0.19363827061E-01 -0.11713235273E-02 -0.13997822495E-01  0.10200078590E+01  0.10197272986E+01 0.  0.
     999903    2    3    3    0    0  0.82859237645E-02  0.62601150813E-01 -0.11402451962E+00  0.13197914965E+00  0.20720623803E-01 0.  0.
         14    1    1    2    0    0 -0.19363827061E-01  0.11713235273E-02  0.13997822495E-01  0.23922141038E-01  0.00000000000E+00 0.  1.
     999901    1    3    3    0    0  0.11077903297E-01 -0.63772474340E-01  0.10002669713E+00  0.88802870931E+00  0.88000000000E+00 0. -1.
        -11    1    4    4    0    0 -0.30695961449E-02  0.46892077091E-01 -0.77829343058E-01  0.90917309002E-01  0.51100000000E-03 0.  1.
         11    1    4    4    0    0  0.11355519909E-01  0.15709073722E-01 -0.36195176567E-01  0.41061840647E-01  0.51100000000E-03 0. -1.
</event>
<event>
 8    1  0.1183092E+005  0.1043930E+01  0.7957747E-01            NaN
         13   -1    0    0    0    0  0.00000000000E+00  0.00000000000E+00  0.74505805969E-08  0.10566000000E+00  0.10566000000E+00 0. -1.
     999900   -1    0    0    0    0 -0.00000000000E+00 -0.00000000000E+00 -0.74505805969E-08  0.93827000000E+00  0.93827000000E+00 0.  1.
     999902    2    1    2    0    0  0.43090643110E-02 -0.54894891682E-02 -0.22713443050E-01  0.10201686233E+01  0.10198918653E+01 0.  0.
     999903    2    3    3    0    0 -0.93528925826E-01  0.78386171065E-01 -0.41949095461E-01  0.13057466593E+00  0.19949059963E-01 0.  0.
         14    1    1    2    0    0 -0.43090643110E-02  0.54894891682E-02  0.22713443050E-01  0.23761376680E-01  0.00000000000E+00 0. -1.
     999901    1    3    3    0    0  0.97837990137E-01 -0.83875660233E-01  0.19235652411E-01  0.88959395739E+00  0.88000000000E+00 0. -1.
        -11    1    4    4    0    0 -0.17998558708E-01  0.78989916640E-02 -0.18359711328E-02  0.19747761794E-01  0.51100000000E-03 0.  1.
         11    1    4    4    0    0 -0.75530367118E-01  0.70487179401E-01 -0.40113124328E-01  0.11082690414E+00  0.51100000000E-03 0. -1.
</event>
<event>
 8    1  0.1183092E+005  0.1043930E+01  0.7957747E-01            NaN
         13   -1    0    0    0    0  0.00000000000E+00  0.00000000000E+00  0.74505805969E-08  0.10566000000E+00  0.10566000000E+00 0.  1.
     999900   -1    0    0    0    0 -0.00000000000E+00 -0.00000000000E+00 -0.74505805969E-08  0.93827000000E+00  0.93827000000E+00 0. -1.
     999902    2    1    2    0    0  0.19890051523E-01  0.86472993234E-02 -0.78506283590E-02  0.10208643914E+01  0.10206037837E+01 0.  0.
     999903    2    3    3    0    0  0.60182755480E-01 -0.79572762707E-01 -0.84119818365E-01  0.13225690172E+00  0.21493152161E-01 0.  0.
         14    1    1    2    0    0 -0.19890051523E-01 -0.86472993234E-02  0.78506283590E-02  0.23065608616E-01  0.00000000000E+00 0.  1.
     999901    1    3    3    0    0 -0.40292703957E-01  0.88220062030E-01  0.76269190006E-01  0.88860748966E+00  0.88000000000E+00 0.  1.
        -11    1    4    4    0    0  0.26025594199E-01 -0.50409914157E-01 -0.41046873335E-01  0.70025694787E-01  0.51100000000E-03 0. -1.
         11    1    4    4    0    0  0.34157161281E-01 -0.29162848550E-01 -0.43072945030E-01  0.62231206937E-01  0.51100000000E-03 0.  1.
</event>
<event>
 8    1  0.1183092E+005  0.1043930E+01  0.7957747E-01            NaN
         13   -1    0    0    0    0  0.00000000000E+00  0.00000000000E+00  0.74505805969E-08  0.10566000000E+00  0.10566000000E+00 0.  1.
     999900   -1    0    0    0    0 -0.00000000000E+00 -0.00000000000E+00 -0.74505805969E-08  0.93827000000E+00  0.93827000000E+00 0.  1.
     999902    2    1    2    0    0  0.23003306409E-01  0.22383384860E-02 -0.46952611670E-02  0.10203459430E+01  0.10200733482E+01 0.  0.
     999903    2    3    3    0    0  0.60622494092E-01 -0.11446877747E+00 -0.16235974436E-01  0.13176902333E+00  0.17924308527E-01 0.  0.
         14    1    1    2    0    0 -0.23003306409E-01 -0.22383384860E-02  0.46952611670E-02  0.23584056952E-01  0.00000000000E+00 0.  1.
     999901    1    3    3    0    0 -0.37619187683E-01  0.11670711596E+00  0.11540713269E-01  0.88857691972E+00  0.88000000000E+00 0. -1.
        -11    1    4    4    0    0  0.73740381550E-02 -0.75739862210E-02  0.25247992048E-02  0.10880139614E-01  0.51100000000E-03 0.  1.
         11    1    4    4    0    0  0.53248455937E-01 -0.10689479125E+00 -0.18760773641E-01  0.12088888371E+00  0.51100000000E-03 0. -1.
</event>
<event>
 8    1  0.1183092E+005  0.1043930E+01  0.7957747E-01            NaN
         13   -1    0    0    0    0  0.00000000000E+00  0.00000000000E+00  0.74505805969E-08  0.10566000000E+00  0.10566000000E+00 0.  1.
     999900   -1    0    0    0    0 -0.00000000000E+00 -0.00000000000E+00 -0.74505805969E-08  0.93827000000E+00  0.93827000000E+00 0. -1.
     999902    2    1    2    0    0  0.46640761958E-02 -0.28444430059E-02  0.22731642257E-01  0.10205511202E+01  0.10202833022E+01 0.  0.
     999903    2    3    3    0    0  0.57754149954E-01  0.66632598189E-01 -0.91745852587E-01  0.12883888406E+00  0.20167092036E-01 0.  0.
         14    1    1    2    0    0 -0.46640761958E-02  0.28444430059E-02 -0.22731642257E-01  0.23378879838E-01  0.00000000000E+00 0. -1.
     999901    1    3    3    0    0 -0.53090073758E-01 -0.69477041195E-01  0.11447749484E+00  0.89171223610E+00  0.88000000000E+00 0.  1.
        -11    1    4    4    0    0  0.20917839696E-01  0.39499722886E-01 -0.44865565284E-01  0.63332173458E-01  0.51100000000E-03 0.  1.
         11    1    4    4    0    0  0.36836310258E-01  0.27132875303E-01 -0.46880287303E-01  0.65506710604E-01  0.51100000000E-03 0. -1.
</event>
<event>
 8    1  0.1183092E+005  0.1043930E+01  0.7957747E-01            NaN
         13   -1    0    0    0    0  0.00000000000E+00  0.00000000000E+00  0.74505805969E-08  0.10566000000E+00  0.10566000000E+00 0. -1.
     999900   -1    0    0    0    0 -0.00000000000E+00 -0.00000000000E+00 -0.74505805969E-08  0.93827000000E+00  0.93827000000E+00 0.  1.
     999902    2    1    2    0    0 -0.15643153198E-01 -0.12701006601E-01  0.11883600456E-01  0.10205367580E+01  0.10202686071E+01 0.  0.
     999903    2    3    3    0    0  0.90006205179E-01 -0.92253714943E-01 -0.43589134561E-02  0.13050628686E+00  0.20025630879E-01 0.  0.
         14    1    1    2    0    0  0.15643153198E-01  0.12701006601E-01 -0.11883600456E-01  0.23393241982E-01  0.00000000000E+00 0. -1.
     999901    1    3    3    0    0 -0.10564935838E+00  0.79552708342E-01  0.16242513912E-01  0.89003047116E+00  0.88000000000E+00 0.  1.
        -11    1    4    4    0    0  0.36738117736E-01 -0.26001416768E-01  0.34053560582E-02  0.45140010408E-01  0.51100000000E-03 0. -1.
         11    1    4    4    0    0  0.53268087443E-01 -0.66252298176E-01 -0.77642695143E-02  0.85366276453E-01  0.51100000000E-03 0.  1.
</event>
<event>
 8    1  0.1183092E+005  0.1043930E+01  0.7957747E-01            NaN
         13   -1    0    0    0    0  0.00000000000E+00  0.00000000000E+00  0.74505805969E-08  0.10566000000E+00  0.10566000000E+00 0.  1.
     999900   -1    0    0    0    0 -0.00000000000E+00 -0.00000000000E+00 -0.74505805969E-08  0.93827000000E+00  0.93827000000E+00 0. -1.
     999902    2    1    2    0    0 -0.96615409731E-02  0.17796066568E-01  0.12314367825E-01  0.10202300208E+01  0.10199547080E+01 0.  0.
     999903    2    3    3    0    0 -0.46724880809E-01 -0.11679627971E+00 -0.18427119938E-01  0.12869548422E+00  0.19959545854E-01 0.  0.
         14    1    1    2    0    0  0.96615409731E-02 -0.17796066568E-01 -0.12314367825E-01  0.23699979202E-01  0.00000000000E+00 0. -1.
     999901    1    3    3    0    0  0.37063339835E-01  0.13459234627E+00  0.30741487763E-01  0.89153453657E+00  0.88000000000E+00 0. -1.
        -11    1    4    4    0    0 -0.97936394290E-02 -0.35383138151E-01  0.27566697399E-02  0.36820404502E-01  0.51100000000E-03 0.  1.
         11    1    4    4    0    0 -0.36931241380E-01 -0.81413141554E-01 -0.21183789678E-01  0.91875079721E-01  0.51100000000E-03 0. -1.
</event>
<event>
 8    1  0.1183092E+005  0.1043930E+01  0.7957747E-01            NaN
         13   -1    0    0    0    0  0.00000000000E+00  0.00000000000E+00  0.74505805969E-08  0.10566000000E+00  0.10566000000E+00 0.  1.
     999900   -1    0    0    0    0 -0.00000000000E+00 -0.00000000000E+00 -0.74505805969E-08  0.93827000000E+00  0.93827000000E+00 0. -1.
     999902    2    1    2    0    0  0.10449894386E-01  0.19774231454E-01  0.60811607334E-02  0.10207524022E+01  0.10204892286E+01 0.  0.
     999903    2    3    3    0    0 -0.39979856532E-01 -0.10163622169E+00 -0.63874744351E-01  0.12824050508E+00  0.20912524713E-01 0.  0.
         14    1    1    2    0    0 -0.10449894386E-01 -0.19774231454E-01 -0.60811607334E-02  0.23177597765E-01  0.00000000000E+00 0. -1.
     999901    1    3    3    0    0  0.50429750917E-01  0.12141045314E+00  0.69955905084E-01  0.89251189716E+00  0.88000000000E+00 0.  1.
        -11    1    4    4    0    0 -0.18488193800E-01 -0.46215706097E-01 -0.41204796433E-01  0.64620439260E-01  0.51100000000E-03 0. -1.
         11    1    4    4    0    0 -0.21491662731E-01 -0.55420515590E-01 -0.22669947918E-01  0.63620065819E-01  0.51100000000E-03 0.  1.
</event>
<event>
 8    1  0.1183092E+005  0.1043930E+01  0.7957747E-01            NaN
         13   -1    0    0    0    0  0.00000000000E+00  0.00000000000E+00  0.74505805969E-08  0.10566000000E+00  0.10566000000E+00 0. -1.
     999900   -1    0    0    0    0 -0.00000000000E+00 -0.00000000000E+00 -0.74505805969E-08  0.93827000000E+00  0.93827000000E+00 0. -1.
     999902    2    1    2    0    0  0.27084864048E-02 -0.23327641121E-01  0.18289491032E-02  0.10203745379E+01  0.10201026114E+01 0.  0.
     999903    2    3    3    0    0 -0.94198278228E-01 -0.88905452800E-01  0.21288507553E-01  0.13241618032E+00  0.17416919899E-01 0.  0.
         14    1    1    2    0    0 -0.27084864048E-02  0.23327641121E-01 -0.18289491032E-02  0.23555462078E-01  0.00000000000E+00 0. -1.
     999901    1    3    3    0    0  0.96906764632E-01  0.65577811679E-01 -0.19459558450E-01  0.88795835760E+00  0.88000000000E+00 0. -1.
        -11    1    4    4    0    0 -0.72556022636E-01 -0.67423148990E-01  0.87248591197E-02  0.99431593209E-01  0.51100000000E-03 0.  1.
         11    1    4    4    0    0 -0.21642255591E-01 -0.21482303810E-01  0.12563648433E-01  0.32984587113E-01  0.51100000000E-03 0. -1.
</event>
<event>
 8    1  0.1183092E+005  0.1043930E+01  0.7957747E-01            NaN
         13   -1    0    0    0    0  0.00000000000E+00  0.00000000000E+00  0.74505805969E-08  0.10566000000E+00  0.10566000000E+00 0.  1.
     999900   -1    0    0    0    0 -0.00000000000E+00 -0.00000000000E+00 -0.74505805969E-08  0.93827000000E+00  0.93827000000E+00 0.  1.
     999902    2    1    2    0    0 -0.14869685757E-01 -0.63748777091E-02  0.17829654635E-01  0.10198542195E+01  0.10195700005E+01 0.  0.
     999903    2    3    3    0    0 -0.12890001359E+00 -0.21495110730E-01  0.40550526887E-02  0.13226125158E+00  0.19983541420E-01 0.  0.
         14    1    1    2    0    0  0.14869685757E-01  0.63748777091E-02 -0.17829654635E-01  0.24075780459E-01  0.00000000000E+00 0. -1.
     999901    1    3    3    0    0  0.11403032784E+00  0.15120233021E-01  0.13774601947E-01  0.88759296796E+00  0.88000000000E+00 0.  1.
        -11    1    4    4    0    0 -0.41239792359E-01 -0.13835618127E-01  0.77558158684E-02  0.44187765315E-01  0.51100000000E-03 0.  1.
         11    1    4    4    0    0 -0.87660221235E-01 -0.76594926025E-02 -0.37007631797E-02  0.88073486266E-01  0.51100000000E-03 0. -1.
</event>
<event>
 8    1  0.1183092E+005  0.1043930E+01  0.7957747E-01            NaN
         13   -1    0    0    0    0  0.00000000000E+00  0.00000000000E+00  0.74505805969E-08  0.10566000000E+00  0.10566000000E+00 0.  1.
     999900   -1    0    0    0    0 -0.00000000000E+00 -0.00000000000E+00 -0.74505805969E-08  0.93827000000E+00  0.93827000000E+00 0. -1.
     999902    2    1    2    0    0  0.39101990034E-02 -0.11482264561E-01 -0.25300154431E-01  0.10158723830E+01  0.10154848442E+01 0.  0.
     999903    2    3    3    0    0 -0.16396579257E-01  0.40796183816E-02 -0.12692789260E+00  0.12965416238E+00  0.20347501214E-01 0.  0.
         14    1    1    2    0    0 -0.39101990034E-02  0.11482264561E-01  0.25300154431E-01  0.28057616968E-01  0.00000000000E+00 0.  1.
     999901    1    3    3    0    0  0.20306778260E-01 -0.15561882942E-01  0.10162773817E+00  0.88621822065E+00  0.88000000000E+00 0.  1.
        -11    1    4    4    0    0 -0.65328912504E-02 -0.76953990713E-02 -0.34237639689E-01  0.35698388303E-01  0.51100000000E-03 0.  1.
         11    1    4    4    0    0 -0.98636880064E-02  0.11775017453E-01 -0.92690252912E-01  0.93955774080E-01  0.51100000000E-03 0. -1.
</event>
<event>
 7    1  0.1183092E+005  0.1043930E+01  0.7957747E-01            NaN
         13   -1    0    0    0    0  0.00000000000E+00  0.00000000000E+00  0.74505805969E-08  0.10566000000E+00  0.10566000000E+00 0. -1.
     999900   -1    0    0    0    0 -0.00000000000E+00 -0.00000000000E+00 -0.74505805969E-08  0.93827000000E+00  0.93827000000E+00 0.  1.
     999903    2    1    2    0    0  0.84840964223E-01 -0.24959556915E-01 -0.29246263048E-01  0.95286273750E-01  0.20078878733E-01 0.  0.
         14    1    1    2    0    0  0.18022882087E-01  0.54776885222E-01  0.23124446507E-01  0.62129473357E-01  0.00000000000E+00 0. -1.
     999901    1    1    2    0    0 -0.10286384631E+00 -0.29817328307E-01  0.61218165406E-02  0.88651425289E+00  0.88000000000E+00 0. -1.
        -11    1    3    3    0    0  0.43034730405E-01 -0.20754815133E-01 -0.22172503913E-01  0.52674770271E-01  0.51100000000E-03 0. -1.
         11    1    3    3    0    0  0.41806233817E-01 -0.42047417816E-02 -0.70737591351E-02  0.42611503479E-01  0.51100000000E-03 0.  1.
</event>
<event>
 8    1  0.1183092E+005  0.1043930E+01  0.7957747E-01            NaN
         13   -1    0    0    0    0  0.00000000000E+00  0.00000000000E+00  0.74505805969E-08  0.10566000000E+00  0.10566000000E+00 0. -1.
     999900   -1    0    0    0    0 -0.00000000000E+00 -0.00000000000E+00 -0.74505805969E-08  0.93827000000E+00  0.93827000000E+00 0.  1.
     999902    2    1    2    0    0  0.18348956574E-02  0.20600313256E-01 -0.11724639576E-01  0.10201559191E+01  0.10198788616E+01 0.  0.
     999903    2    3    3    0    0 -0.17419048954E-01  0.11334268771E+00 -0.65296468675E-01  0.13345314859E+00  0.19902912438E-01 0.  0.
         14    1    1    2    0    0 -0.18348956574E-02 -0.20600313256E-01  0.11724639576E-01  0.23774080876E-01  0.00000000000E+00 0.  1.
     999901    1    3    3    0    0  0.19253944611E-01 -0.92742374452E-01  0.53571829099E-01  0.88670277054E+00  0.88000000000E+00 0. -1.
        -11    1    4    4    0    0 -0.13598135499E-01  0.59653947378E-01 -0.44892434227E-01  0.75888698096E-01  0.51100000000E-03 0.  1.
         11    1    4    4    0    0 -0.38209134553E-02  0.53688740329E-01 -0.20404034448E-01  0.57564450493E-01  0.51100000000E-03 0. -1.
</event>
<event>
 8    1  0.1183092E+005  0.1043930E+01  0.7957747E-01            NaN
         13   -1    0    0    0    0  0.00000000000E+00  0.00000000000E+00  0.74505805969E-08  0.10566000000E+00  0.10566000000E+00 0. -1.
     999900   -1    0    0    0    0 -0.00000000000E+00 -0.00000000000E+00 -0.74505805969E-08  0.93827000000E+00  0.93827000000E+00 0. -1.
     999902    2    1    2    0    0  0.10560925194E-01 -0.21599562734E-01  0.15167104672E-01  0.10155026309E+01  0.10151046636E+01 0.  0.
     999903    2    3    3    0    0 -0.65439563222E-01  0.10209830847E+00  0.11992148151E-01  0.12360167341E+00  0.20667874198E-01 0.  0.
         14    1    1    2    0    0 -0.10560925194E-01  0.21599562734E-01 -0.15167104672E-01  0.28427369126E-01  0.00000000000E+00 0.  1.
     999901    1    3    3    0    0  0.76000488416E-01 -0.12369787121E+00  0.31749565218E-02  0.89190095747E+00  0.88000000000E+00 0.  1.
        -11    1    4    4    0    0 -0.44252961686E-01  0.56112446719E-01 -0.42978908079E-03  0.71465915893E-01  0.51100000000E-03 0. -1.
         11    1    4    4    0    0 -0.21186601536E-01  0.45985861756E-01  0.12421937231E-01  0.52135757515E-01  0.51100000000E-03 0.  1.
</event>
<event>
 8    1  0.1183092E+005  0.1043930E+01  0.7957747E-01            NaN
         13   -1    0    0    0    0  0.00000000000E+00  0.00000000000E+00  0.74505805969E-08  0.10566000000E+00  0.10566000000E+00 0.  1.
     999900   -1    0    0    0    0 -0.00000000000E+00 -0.00000000000E+00 -0.74505805969E-08  0.93827000000E+00  0.93827000000E+00 0.  1.
     999902    2    1    2    0    0 -0.27425158880E-02 -0.33290690692E-02  0.22999113254E-01  0.10205299294E+01  0.10202616201E+01 0.  0.
     999903    2    3    3    0    0  0.45316089825E-01  0.11925481619E+00  0.20209768808E-01  0.13072982883E+00  0.20164181365E-01 0.  0.
         14    1    1    2    0    0  0.27425158880E-02  0.33290690692E-02 -0.22999113254E-01  0.23400070614E-01  0.00000000000E+00 0. -1.
     999901    1    3    3    0    0 -0.48058605714E-01 -0.12258388525E+00  0.27893444455E-02  0.88980010056E+00  0.88000000000E+00 0. -1.
        -11    1    4    4    0    0  0.93647448164E-02  0.47480443482E-01  0.13097964869E-01  0.50138894717E-01  0.51100000000E-03 0. -1.
         11    1    4    4    0    0  0.35951345009E-01  0.71774372704E-01  0.71118039395E-02  0.80590934113E-01  0.51100000000E-03 0.  1.
</event>
<event>
 8    1  0.1183092E+005  0.1043930E+01  0.7957747E-01            NaN
         13   -1    0    0    0    0  0.00000000000E+00  0.00000000000E+00  0.74505805969E-08  0.10566000000E+00  0.10566000000E+00 0. -1.
     999900   -1    0    0    0    0 -0.00000000000E+00 -0.00000000000E+00 -0.74505805969E-08  0.93827000000E+00  0.93827000000E+00 0.  1.
     999902    2    1    2    0    0  0.45379953813E-02  0.19227112046E-01 -0.11390732871E-01  0.10211259645E+01  0.10208713001E+01 0.  0.
     999903    2    3    3    0    0  0.11249136422E+00 -0.29857295214E-01  0.55743685295E-01  0.13063720041E+00  0.20321283888E-01 0.  0.
         14    1    1    2    0    0 -0.45379953813E-02 -0.19227112046E-01  0.11390732871E-01  0.22804035499E-01  0.00000000000E+00 0.  1.
     999901    1    3    3    0    0 -0.10795336883E+00  0.49084407260E-01 -0.67134418165E-01  0.89048876410E+00  0.88000000000E+00 0. -1.
        -11    1    4    4    0    0  0.30967327312E-01 -0.81292309799E-02  0.25760556275E-01  0.41096558710E-01  0.51100000000E-03 0. -1.
         11    1    4    4    0    0  0.81524036904E-01 -0.21728064235E-01  0.29983129019E-01  0.89540641696E-01  0.51100000000E-03 0.  1.
</event>
<event>
 8    1  0.1183092E+005  0.1043930E+01  0.7957747E-01            NaN
         13   -1    0    0    0    0  0.00000000000E+00  0.00000000000E+00  0.74505805969E-08  0.10566000000E+00  0.10566000000E+00 0.  1.
     999900   -1    0    0    0    0 -0.00000000000E+00 -0.00000000000E+00 -0.74505805969E-08  0.93827000000E+00  0.93827000000E+00 0. -1.
     999902    2    1    2    0    0 -0.10391972374E-01  0.11359454413E-02  0.21588132589E-01  0.10199439430E+01  0.10196618635E+01 0.  0.
     999903    2    3    3    0    0  0.17126067857E-01 -0.11290459030E+00 -0.56070890035E-01  0.12876864592E+00  0.19916594867E-01 0.  0.
         14    1    1    2    0    0  0.10391972374E-01 -0.11359454413E-02 -0.21588132589E-01  0.23986057003E-01  0.00000000000E+00 0. -1.
     999901    1    3    3    0    0 -0.27518040231E-01  0.11404053574E+00  0.77659022624E-01  0.89117529708E+00  0.88000000000E+00 0. -1.
        -11    1    4    4    0    0  0.79955768296E-02 -0.56727062833E-01 -0.17097155407E-01  0.59786810841E-01  0.51100000000E-03 0.  1.
         11    1    4    4    0    0  0.91304910271E-02 -0.56177527467E-01 -0.38973734628E-01  0.68981835077E-01  0.51100000000E-03 0. -1.
</event>
<event>
 8    1  0.1183092E+005  0.1043930E+01  0.7957747E-01            NaN
         13   -1    0    0    0    0  0.00000000000E+00  0.00000000000E+00  0.74505805969E-08  0.10566000000E+00  0.10566000000E+00 0. -1.
     999900   -1    0    0    0    0 -0.00000000000E+00 -0.00000000000E+00 -0.74505805969E-08  0.93827000000E+00  0.93827000000E+00 0. -1.
     999902    2    1    2    0    0  0.18326226386E-01  0.88399885632E-02 -0.12843829614E-01  0.10198684138E+01  0.10195845338E+01 0.  0.
     999903    2    3    3    0    0  0.77246112700E-01 -0.93309794524E-01  0.43786622110E-01  0.13019817194E+00  0.18989892558E-01 0.  0.
         14    1    1    2    0    0 -0.18326226386E-01 -0.88399885632E-02  0.12843829614E-01  0.24061586201E-01  0.00000000000E+00 0. -1.
     999901    1    3    3    0    0 -0.58919886314E-01  0.10214978309E+00 -0.56630451724E-01  0.88967024186E+00  0.88000000000E+00 0. -1.
        -11    1    4    4    0    0  0.12193628061E-01 -0.13108979489E-01 -0.30041059677E-03  0.17913159299E-01  0.51100000000E-03 0.  1.
         11    1    4    4    0    0  0.65052484639E-01 -0.80200815034E-01  0.44087032707E-01  0.11228501264E+00  0.51100000000E-03 0. -1.
</event>
<event>
 7    1  0.1183092E+005  0.1043930E+01  0.7957747E-01            NaN
         13   -1    0    0    0    0  0.00000000000E+00  0.00000000000E+00  0.74505805969E-08  0.10566000000E+00  0.10566000000E+00 0.  1.
     999900   -1    0    0    0    0 -0.00000000000E+00 -0.00000000000E+00 -0.74505805969E-08  0.93827000000E+00  0.93827000000E+00 0.  1.
     999903    2    1    2    0    0 -0.68098448887E-01 -0.75624442726E-01  0.48571819376E-01  0.11558941784E+00  0.25401511777E-01 0.  0.
         14    1    1    2    0    0 -0.13158914126E-01  0.22385764621E-01 -0.34119593183E-01  0.42876871593E-01  0.00000000000E+00 0. -1.
     999901    1    1    2    0    0  0.81257363013E-01  0.53238678104E-01 -0.14452226193E-01  0.88546371057E+00  0.88000000000E+00 0. -1.
        -11    1    3    3    0    0 -0.41391574955E-01 -0.32748770334E-01  0.34827265692E-01  0.63237204178E-01  0.51100000000E-03 0.  1.
         11    1    3    3    0    0 -0.26706873932E-01 -0.42875672392E-01  0.13744553683E-01  0.52352213661E-01  0.51100000000E-03 0. -1.
</event>
<event>
 8    1  0.1183092E+005  0.1043930E+01  0.7957747E-01            NaN
         13   -1    0    0    0    0  0.00000000000E+00  0.00000000000E+00  0.74505805969E-08  0.10566000000E+00  0.10566000000E+00 0.  1.
     999900   -1    0    0    0    0 -0.00000000000E+00 -0.00000000000E+00 -0.74505805969E-08  0.93827000000E+00  0.93827000000E+00 0. -1.
     999902    2    1    2    0    0 -0.18615913674E-01  0.12347290335E-01  0.43526923037E-02  0.10211714027E+01  0.10209177636E+01 0.  0.
     999903    2    3    3    0    0 -0.35309446270E-01 -0.99973443562E-01  0.74444222935E-01  0.13111104298E+00  0.20167222127E-01 0.  0.
         14    1    1    2    0    0  0.18615913674E-01 -0.12347290335E-01 -0.43526923037E-02  0.22758597295E-01  0.00000000000E+00 0. -1.
     999901    1    3    3    0    0  0.16693532596E-01  0.11232073390E+00 -0.70091530632E-01  0.89006035973E+00  0.88000000000E+00 0. -1.
        -11    1    4    4    0    0 -0.27479314030E-01 -0.47603404718E-01  0.37335779992E-01  0.66448614951E-01  0.51100000000E-03 0.  1.
         11    1    4    4    0    0 -0.78301322401E-02 -0.52370038845E-01  0.37108442943E-01  0.64662428025E-01  0.51100000000E-03 0. -1.
</event>
<event>
 8    1  0.1183092E+005  0.1043930E+01  0.7957747E-01            NaN
         13   -1    0    0    0    0  0.00000000000E+00  0.00000000000E+00  0.74505805969E-08  0.10566000000E+00  0.10566000000E+00 0. -1.
     999900   -1    0    0    0    0 -0.00000000000E+00 -0.00000000000E+00 -0.74505805969E-08  0.93827000000E+00  0.93827000000E+00 0. -1.
     999902    2    1    2    0    0  0.15941639715E-01 -0.13276262294E-01 -0.13911213770E-01  0.10189516717E+01  0.10186454694E+01 0.  0.
     999903    2    3    3    0    0  0.80150402937E-01  0.70814274989E-01  0.68030055535E-01  0.12883462580E+00  0.23054798131E-01 0.  0.
         14    1    1    2    0    0 -0.15941639715E-01  0.13276262294E-01  0.13911213770E-01  0.24978328324E-01  0.00000000000E+00 0. -1.
     999901    1    3    3    0    0 -0.64208763222E-01 -0.84090537284E-01 -0.81941269305E-01  0.89011704587E+00  0.88000000000E+00 0. -1.
        -11    1    4    4    0    0  0.32601387972E-01  0.36187017363E-01  0.42750424221E-01  0.64809031897E-01  0.51100000000E-03 0. -1.
         11    1    4    4    0    0  0.47549014965E-01  0.34627257626E-01  0.25279631314E-01  0.64025593908E-01  0.51100000000E-03 0.  1.
</event>
<event>
 8    1  0.1183092E+005  0.1043930E+01  0.7957747E-01            NaN
         13   -1    0    0    0    0  0.00000000000E+00  0.00000000000E+00  0.74505805969E-08  0.10566000000E+00  0.10566000000E+00 0. -1.
     999900   -1    0    0    0    0 -0.00000000000E+00 -0.00000000000E+00 -0.74505805969E-08  0.93827000000E+00  0.93827000000E+00 0. -1.
     999902    2    1    2    0    0  0.20967554463E-02  0.21985538228E-01  0.10261288307E-01  0.10195772935E+01  0.10192864186E+01 0.  0.
     999903    2    3    3    0    0  0.53125824707E-01 -0.10238166744E+00  0.52583502828E-01  0.12836332506E+00  0.20193052600E-01 0.  0.
         14    1    1    2    0    0 -0.20967554463E-02 -0.21985538228E-01 -0.10261288307E-01  0.24352706467E-01  0.00000000000E+00 0.  1.
     999901    1    3    3    0    0 -0.51029069260E-01  0.12436720567E+00 -0.42322214520E-01  0.89121396847E+00  0.88000000000E+00 0.  1.
        -11    1    4    4    0    0  0.29964054336E-01 -0.39900725299E-01  0.28753199529E-01  0.57592708183E-01  0.51100000000E-03 0. -1.
         11    1    4    4    0    0  0.23161770370E-01 -0.62480942139E-01  0.23830303299E-01  0.70770616880E-01  0.51100000000E-03 0.  1.
</event>
<event>
 7    1  0.1183092E+005  0.1043930E+01  0.7957747E-01            NaN
         13   -1    0    0    0    0  0.00000000000E+00  0.00000000000E+00  0.74505805969E-08  0.10566000000E+00  0.10566000000E+00 0.  1.
     999900   -1    0    0    0    0 -0.00000000000E+00 -0.00000000000E+00 -0.74505805969E-08  0.93827000000E+00  0.93827000000E+00 0.  1.
     999903    2    1    2    0    0  0.36014782363E-01 -0.34524145706E-01  0.50973508571E-01  0.74001834277E-01  0.19722872886E-01 0.  0.
         14    1    1    2    0    0  0.29077067949E-01 -0.64201401912E-01  0.33449684303E-01  0.78013955597E-01  0.00000000000E+00 0.  1.
     999901    1    1    2    0    0 -0.65091850312E-01  0.98725547618E-01 -0.84423192874E-01  0.89191421013E+00  0.88000000000E+00 0.  1.
        -11    1    3    3    0    0  0.58889668628E-02 -0.16059297394E-01  0.97136506614E-02  0.19677324353E-01  0.51100000000E-03 0. -1.
         11    1    3    3    0    0  0.30125815501E-01 -0.18464848311E-01  0.41259857910E-01  0.54324509924E-01  0.51100000000E-03 0.  1.
</event>
<event>
 8    1  0.1183092E+005  0.1043930E+01  0.7957747E-01            NaN
         13   -1    0    0    0    0  0.00000000000E+00  0.00000000000E+00  0.74505805969E-08  0.10566000000E+00  0.10566000000E+00 0. -1.
     999900   -1    0    0    0    0 -0.00000000000E+00 -0.00000000000E+00 -0.74505805969E-08  0.93827000000E+00  0.93827000000E+00 0.  1.
     999902    2    1    2    0    0 -0.13620612422E-01 -0.16242113332E-01 -0.86273025014E-02  0.10210442473E+01  0.10207877337E+01 0.  0.
     999903    2    3    3    0    0 -0.78228157614E-01  0.64979432401E-01  0.79317911046E-01  0.13059187071E+00  0.20516685994E-01 0.  0.
         14    1    1    2    0    0  0.13620612422E-01  0.16242113332E-01  0.86273025014E-02  0.22885752701E-01  0.00000000000E+00 0. -1.
     999901    1    3    3    0    0  0.64607545192E-01 -0.81221545732E-01 -0.87945213548E-01  0.89045237659E+00  0.88000000000E+00 0. -1.
        -11    1    4    4    0    0 -0.48905651953E-01  0.50136854762E-01  0.61471053927E-01  0.93190227976E-01  0.51100000000E-03 0. -1.
         11    1    4    4    0    0 -0.29322505661E-01  0.14842577639E-01  0.17846857120E-01  0.37401642734E-01  0.51100000000E-03 0.  1.
</event>
<event>
 8    1  0.1183092E+005  0.1043930E+01  0.7957747E-01            NaN
         13   -1    0    0    0    0  0.00000000000E+00  0.00000000000E+00  0.74505805969E-08  0.10566000000E+00  0.10566000000E+00 0. -1.
     999900   -1    0    0    0    0 -0.00000000000E+00 -0.00000000000E+00 -0.74505805969E-08  0.93827000000E+00  0.93827000000E+00 0.  1.
     999902    2    1    2    0    0 -0.92513274045E-03  0.21843533332E-01  0.12547673954E-01  0.10187220659E+01  0.10184101372E+01 0.  0.
     999903    2    3    3    0    0 -0.99607072849E-01 -0.56328281298E-02 -0.77947673833E-01  0.12817027983E+00  0.19962040481E-01 0.  0.
         14    1    1    2    0    0  0.92513274045E-03 -0.21843533332E-01 -0.12547673954E-01  0.25207934082E-01  0.00000000000E+00 0.  1.
     999901    1    3    3    0    0  0.98681940109E-01  0.27476361461E-01  0.90495347787E-01  0.89055178609E+00  0.88000000000E+00 0. -1.
        -11    1    4    4    0    0 -0.19044638822E-01  0.53498219830E-02 -0.98140993034E-02  0.22088379960E-01  0.51100000000E-03 0.  1.
         11    1    4    4    0    0 -0.80562434027E-01 -0.10982650113E-01 -0.68133574530E-01  0.10608189987E+00  0.51100000000E-03 0. -1.
</event>
<event>
 8    1  0.1183092E+005  0.1043930E+01  0.7957747E-01            NaN
         13   -1    0    0    0    0  0.00000000000E+00  0.00000000000E+00  0.74505805969E-08  0.10566000000E+00  0.10566000000E+00 0. -1.
     999900   -1    0    0    0    0 -0.00000000000E+00 -0.00000000000E+00 -0.74505805969E-08  0.93827000000E+00  0.93827000000E+00 0. -1.
     999902    2    1    2    0    0 -0.27218044590E-02 -0.22069119183E-01  0.64183156374E-02  0.10207859075E+01  0.10205235029E+01 0.  0.
     999903    2    3    3    0    0  0.23563884306E-01  0.12444312841E+00  0.68745677133E-03  0.12826721367E+00  0.20264665155E-01 0.  0.
         14    1    1    2    0    0  0.27218044590E-02  0.22069119183E-01 -0.64183156374E-02  0.23144092479E-01  0.00000000000E+00 0.  1.
     999901    1    3    3    0    0 -0.26285688765E-01 -0.14651224759E+00  0.57308588660E-02  0.89251869385E+00  0.88000000000E+00 0.  1.
        -11    1    4    4    0    0  0.12787592266E-01  0.10649282878E+00  0.20670364184E-02  0.10727897678E+00  0.51100000000E-03 0.  1.
         11    1    4    4    0    0  0.10776292040E-01  0.17950299631E-01 -0.13795796471E-02  0.20988236895E-01  0.51100000000E-03 0. -1.
</event>
<event>
 8    1  0.1183092E+005  0.1043930E+01  0.7957747E-01            NaN
         13   -1    0    0    0    0  0.00000000000E+00  0.00000000000E+00  0.74505805969E-08  0.10566000000E+00  0.10566000000E+00 0.  1.
     999900   -1    0    0    0    0 -0.00000000000E+00 -0.00000000000E+00 -0.74505805969E-08  0.93827000000E+00  0.93827000000E+00 0.  1.
     999902    2    1    2    0    0  0.45203575531E-02 -0.10287035794E-01  0.21002359636E-01  0.10201107673E+01  0.10198326439E+01 0.  0.
     999903    2    3    3    0    0  0.79524256205E-01  0.53921128794E-01 -0.82961120697E-01  0.12850733610E+00  0.19999810746E-01 0.  0.
         14    1    1    2    0    0 -0.45203575531E-02  0.10287035794E-01 -0.21002359636E-01  0.23819232736E-01  0.00000000000E+00 0. -1.
     999901    1    3    3    0    0 -0.75003898652E-01 -0.64208164588E-01  0.10396348033E+00  0.89160343116E+00  0.88000000000E+00 0. -1.
        -11    1    4    4    0    0  0.55393504468E-01  0.30426635079E-01 -0.44026237202E-01  0.77024613875E-01  0.51100000000E-03 0. -1.
         11    1    4    4    0    0  0.24130751737E-01  0.23494493715E-01 -0.38934883495E-01  0.51482722229E-01  0.51100000000E-03 0.  1.
</event>
<event>
 8    1  0.1183092E+005  0.1043930E+01  0.7957747E-01            NaN
         13   -1    0    0    0    0  0.00000000000E+00  0.00000000000E+00  0.74505805969E-08  0.10566000000E+00  0.10566000000E+00 0. -1.
     999900   -1    0    0    0    0 -0.00000000000E+00 -0.00000000000E+00 -0.74505805969E-08  0.93827000000E+00  0.93827000000E+00 0. -1.
     999902    2    1    2    0    0 -0.40966332492E-02  0.23817830340E-01  0.11789546255E-02  0.10197336908E+01  0.10194465845E+01 0.  0.
     999903    2    3    3    0    0  0.33629154316E-01 -0.62696423650E-01 -0.10496425048E+00  0.12834470095E+00  0.19826921705E-01 0.  0.
         14    1    1    2    0    0  0.40966332492E-02 -0.23817830340E-01 -0.11789546255E-02  0.24196309225E-01  0.00000000000E+00 0.  1.
     999901    1    3    3    0    0 -0.37725787565E-01  0.86514253990E-01  0.10614320511E+00  0.89138898983E+00  0.88000000000E+00 0.  1.
        -11    1    4    4    0    0  0.34590095383E-01 -0.52853639982E-01 -0.83461437183E-01  0.10467117357E+00  0.51100000000E-03 0.  1.
         11    1    4    4    0    0 -0.96094106720E-03 -0.98427836679E-02 -0.21502813299E-01  0.23673527385E-01  0.51100000000E-03 0. -1.
</event>
<event>
 8    1  0.1183092E+005  0.1043930E+01  0.7957747E-01            NaN
         13   -1    0    0    0    0  0.00000000000E+00  0.00000000000E+00  0.74505805969E-08  0.10566000000E+00  0.10566000000E+00 0. -1.
     999900   -1    0    0    0    0 -0.00000000000E+00 -0.00000000000E+00 -0.74505805969E-08  0.93827000000E+00  0.93827000000E+00 0.  1.
     999902    2    1    2    0    0  0.11814806455E-01  0.76197696002E-02  0.18731880037E-01  0.10205092001E+01  0.10202404097E+01 0.  0.
     999903    2    3    3    0    0 -0.57926641929E-01 -0.63469083924E-01 -0.92737954956E-01  0.12790457379E+00  0.19376048296E-01 0.  0.
         14    1    1    2    0    0 -0.11814806455E-01 -0.76197696002E-02 -0.18731880037E-01  0.23420799945E-01  0.00000000000E+00 0.  1.
     999901    1    3    3    0    0  0.69741448383E-01  0.71088853524E-01  0.11146983499E+00  0.89260462627E+00  0.88000000000E+00 0. -1.
        -11    1    4    4    0    0 -0.35193615268E-01 -0.39971667761E-01 -0.43342589418E-01  0.68667066034E-01  0.51100000000E-03 0.  1.
         11    1    4    4    0    0 -0.22733026661E-01 -0.23497416163E-01 -0.49395365538E-01  0.59237507756E-01  0.51100000000E-03 0. -1.
</event>
<event>
 8    1  0.1183092E+005  0.1043930E+01  0.7957747E-01            NaN
         13   -1    0    0    0    0  0.00000000000E+00  0.00000000000E+00  0.74505805969E-08  0.10566000000E+00  0.10566000000E+00 0.  1.
     999900   -1    0    0    0    0 -0.00000000000E+00 -0.00000000000E+00 -0.74505805969E-08  0.93827000000E+00  0.93827000000E+00 0.  1.
     999902    2    1    2    0    0  0.16200847591E-01  0.13195855478E-01 -0.82533479736E-02  0.10214641188E+01  0.10212170338E+01 0.  0.
     999903    2    3    3    0    0 -0.77449873822E-01  0.47941167408E-01 -0.92978987698E-01  0.13176971716E+00  0.20526268997E-01 0.  0.
         14    1    1    2    0    0 -0.16200847591E-01 -0.13195855478E-01  0.82533479736E-02  0.22465881181E-01  0.00000000000E+00 0.  1.
     999901    1    3    3    0    0  0.93650721412E-01 -0.34745311930E-01  0.84725639724E-01  0.88969440166E+00  0.88000000000E+00 0.  1.
        -11    1    4    4    0    0 -0.52063932429E-01  0.22160071429E-01 -0.63857599047E-01  0.85321602791E-01  0.51100000000E-03 0.  1.
         11    1    4    4    0    0 -0.25385941392E-01  0.25781095979E-01 -0.29121388651E-01  0.46448114367E-01  0.51100000000E-03 0. -1.
</event>
<event>
 8    1  0.1183092E+005  0.1043930E+01  0.7957747E-01            NaN
         13   -1    0    0    0    0  0.00000000000E+00  0.00000000000E+00  0.74505805969E-08  0.10566000000E+00  0.10566000000E+00 0. -1.
     999900   -1    0    0    0    0 -0.00000000000E+00 -0.00000000000E+00 -0.74505805969E-08  0.93827000000E+00  0.93827000000E+00 0.  1.
     999902    2    1    2    0    0  0.18391074226E-02  0.37370656457E-03 -0.23803063951E-01  0.10200530692E+01  0.10197735808E+01 0.  0.
     999903    2    3    3    0    0  0.10498310069E+00 -0.73403731870E-01  0.11728196484E-01  0.13025294316E+00  0.20462632408E-01 0.  0.
         14    1    1    2    0    0 -0.18391074226E-02 -0.37370656457E-03  0.23803063951E-01  0.23876930836E-01  0.00000000000E+00 0. -1.
     999901    1    3    3    0    0 -0.10314399327E+00  0.73777438435E-01 -0.35531260435E-01  0.88980012600E+00  0.88000000000E+00 0. -1.
        -11    1    4    4    0    0  0.37033889774E-01 -0.14955734853E-01  0.65216422038E-02  0.40471915383E-01  0.51100000000E-03 0. -1.
         11    1    4    4    0    0  0.67949210920E-01 -0.58447997017E-01  0.52065542801E-02  0.89781027776E-01  0.51100000000E-03 0.  1.
</event>
<event>
 8    1  0.1183092E+005  0.1043930E+01  0.7957747E-01            NaN
         13   -1    0    0    0    0  0.00000000000E+00  0.00000000000E+00  0.74505805969E-08  0.10566000000E+00  0.10566000000E+00 0.  1.
     999900   -1    0    0    0    0 -0.00000000000E+00 -0.00000000000E+00 -0.74505805969E-08  0.93827000000E+00  0.93827000000E+00 0. -1.
     999902    2    1    2    0    0  0.18796170524E-02 -0.22482852176E-01  0.37267440158E-02  0.10210629883E+01  0.10208068994E+01 0.  0.
     999903    2    3    3    0    0  0.31643795576E-01  0.41529270327E-02 -0.12521045292E+00  0.13077080493E+00  0.20118879158E-01 0.  0.
         14    1    1    2    0    0 -0.18796170524E-02  0.22482852176E-01 -0.37267440158E-02  0.22867011681E-01  0.00000000000E+00 0. -1.
     999901    1    3    3    0    0 -0.29764178524E-01 -0.26635779209E-01  0.12893719694E+00  0.89029218339E+00  0.88000000000E+00 0.  1.
        -11    1    4    4    0    0  0.20847662691E-01  0.12135937525E-01 -0.86081730624E-01  0.89399281247E-01  0.51100000000E-03 0. -1.
         11    1    4    4    0    0  0.10796132885E-01 -0.79830104926E-02 -0.39128722298E-01  0.41371523679E-01  0.51100000000E-03 0.  1.
</event>
<event>
 8    1  0.1183092E+005  0.1043930E+01  0.7957747E-01            NaN
         13   -1    0    0    0    0  0.00000000000E+00  0.00000000000E+00  0.74505805969E-08  0.10566000000E+00  0.10566000000E+00 0. -1.
     999900   -1    0    0    0    0 -0.00000000000E+00 -0.00000000000E+00 -0.74505805969E-08  0.93827000000E+00  0.93827000000E+00 0. -1.
     999902    2    1    2    0    0 -0.99967011054E-02 -0.15148116880E-01 -0.11127673560E-01  0.10226409278E+01  0.10224193086E+01 0.  0.
     999903    2    3    3    0    0 -0.87009400085E-01  0.94827676493E-01  0.20329360589E-01  0.13190237132E+00  0.20543337735E-01 0.  0.
         14    1    1    2    0    0  0.99967011054E-02  0.15148116880E-01  0.11127673560E-01  0.21289072241E-01  0.00000000000E+00 0. -1.
     999901    1    3    3    0    0  0.77012698980E-01 -0.10997579337E+00 -0.31457034149E-01  0.89073855644E+00  0.88000000000E+00 0. -1.
        -11    1    4    4    0    0 -0.32700002630E-01  0.45578399317E-01  0.16553695041E-01  0.58489029713E-01  0.51100000000E-03 0.  1.
         11    1    4    4    0    0 -0.54309397456E-01  0.49249277176E-01  0.37756655474E-02  0.73413341605E-01  0.51100000000E-03 0. -1.
</event>
<event>
 8    1  0.1183092E+005  0.1043930E+01  0.7957747E-01            NaN
         13   -1    0    0    0    0  0.00000000000E+00  0.00000000000E+00  0.74505805969E-08  0.10566000000E+00  0.10566000000E+00 0.  1.
     999900   -1    0    0    0    0 -0.00000000000E+00 -0.00000000000E+00 -0.74505805969E-08  0.93827000000E+00  0.93827000000E+00 0.  1.
     999902    2    1    2    0    0  0.18132057294E-01  0.43910120459E-02 -0.15975957059E-01  0.10193681659E+01  0.10190722124E+01 0.  0.
     999903    2    3    3    0    0  0.15271789387E-01  0.10494612508E+00 -0.75232956025E-01  0.13165711846E+00  0.20656293209E-01 0.  0.
         14    1    1    2    0    0 -0.18132057294E-01 -0.43910120459E-02  0.15975957059E-01  0.24561834062E-01  0.00000000000E+00 0.  1.
     999901    1    3    3    0    0  0.28602679073E-02 -0.10055511303E+00  0.59256998966E-01  0.88771104748E+00  0.88000000000E+00 0. -1.
        -11    1    4    4    0    0  0.14055462041E-01  0.31602733139E-01 -0.26749116809E-01  0.43727166912E-01  0.51100000000E-03 0.  1.
         11    1    4    4    0    0  0.12163273460E-02  0.73343391938E-01 -0.48483839216E-01  0.87929951548E-01  0.51100000000E-03 0. -1.
</event>
<event>
 8    1  0.1183092E+005  0.1043930E+01  0.7957747E-01            NaN
         13   -1    0    0    0    0  0.00000000000E+00  0.00000000000E+00  0.74505805969E-08  0.10566000000E+00  0.10566000000E+00 0.  1.
     999900   -1    0    0    0    0 -0.00000000000E+00 -0.00000000000E+00 -0.74505805969E-08  0.93827000000E+00  0.93827000000E+00 0.  1.
     999902    2    1    2    0    0 -0.19652775657E-01  0.39421949368E-02  0.13297762281E-01  0.10198758325E+01  0.10195921296E+01 0.  0.
     999903    2    3    3    0    0 -0.11326355333E+00  0.32896506746E-01 -0.55450188434E-01  0.13177245418E+00  0.19453627321E-01 0.  0.
         14    1    1    2    0    0  0.19652775657E-01 -0.39421949368E-02 -0.13297762281E-01  0.24054167490E-01  0.00000000000E+00 0. -1.
     999901    1    3    3    0    0  0.93610777669E-01 -0.28954311809E-01  0.68747950716E-01  0.88810337833E+00  0.88000000000E+00 0. -1.
        -11    1    4    4    0    0 -0.67138501035E-01  0.14694086575E-01 -0.22856101096E-01  0.72430359517E-01  0.51100000000E-03 0. -1.
         11    1    4    4    0    0 -0.46125052292E-01  0.18202420171E-01 -0.32594087338E-01  0.59342094666E-01  0.51100000000E-03 0.  1.
</event>
<event>
 8    1  0.1183092E+005  0.1043930E+01  0.7957747E-01            NaN
         13   -1    0    0    0    0  0.00000000000E+00  0.00000000000E+00  0.74505805969E-08  0.10566000000E+00  0.10566000000E+00 0.  1.
     999900   -1    0    0    0    0 -0.00000000000E+00 -0.00000000000E+00 -0.74505805969E-08  0.93827000000E+00  0.93827000000E+00 0. -1.
     999902    2    1    2    0    0  0.23377862794E-01 -0.61129850221E-03  0.25584181625E-02  0.10204046167E+01  0.10201333923E+01 0.  0.
     999903    2    3    3    0    0  0.61778645263E-01 -0.84894331800E-01  0.77992561807E-01  0.13233448446E+00  0.20147642486E-01 0.  0.
         14    1    1    2    0    0 -0.23377862794E-01  0.61129850221E-03 -0.25584181625E-02  0.23525383273E-01  0.00000000000E+00 0.  1.
     999901    1    3    3    0    0 -0.38400782469E-01  0.84283033298E-01 -0.75434143644E-01  0.88807013227E+00  0.88000000000E+00 0. -1.
        -11    1    4    4    0    0  0.50900253459E-01 -0.74102792944E-01  0.74132430862E-01  0.11652441011E+00  0.51100000000E-03 0.  1.
         11    1    4    4    0    0  0.10878391804E-01 -0.10791538856E-01  0.38601309445E-02  0.15810074352E-01  0.51100000000E-03 0. -1.
</event>
<event>
 8    1  0.1183092E+005  0.1043930E+01  0.7957747E-01            NaN
         13   -1    0    0    0    0  0.00000000000E+00  0.00000000000E+00  0.74505805969E-08  0.10566000000E+00  0.10566000000E+00 0. -1.
     999900   -1    0    0    0    0 -0.00000000000E+00 -0.00000000000E+00 -0.74505805969E-08  0.93827000000E+00  0.93827000000E+00 0. -1.
     999902    2    1    2    0    0  0.23518737762E-01  0.28150083631E-02  0.28200510389E-02  0.10200761117E+01  0.10197971689E+01 0.  0.
     999903    2    3    3    0    0  0.55243193852E-01 -0.84530967707E-01  0.82095084178E-01  0.13163911816E+00  0.19797969997E-01 0.  0.
         14    1    1    2    0    0 -0.23518737762E-01 -0.28150083631E-02 -0.28200510389E-02  0.23853888276E-01  0.00000000000E+00 0.  1.
     999901    1    3    3    0    0 -0.31724456090E-01  0.87345976070E-01 -0.79275033139E-01  0.88843699356E+00  0.88000000000E+00 0. -1.
        -11    1    4    4    0    0  0.50650060649E-01 -0.66993719676E-01  0.60896287648E-01  0.10374105306E+00  0.51100000000E-03 0. -1.
         11    1    4    4    0    0  0.45931332027E-02 -0.17537248031E-01  0.21198796531E-01  0.27898065103E-01  0.51100000000E-03 0.  1.
</event>
<event>
 8    1  0.1183092E+005  0.1043930E+01  0.7957747E-01            NaN
         13   -1    0    0    0    0  0.00000000000E+00  0.00000000000E+00  0.74505805969E-08  0.10566000000E+00  0.10566000000E+00 0.  1.
     999900   -1    0    0    0    0 -0.00000000000E+00 -0.00000000000E+00 -0.74505805969E-08  0.93827000000E+00  0.93827000000E+00 0.  1.
     999902    2    1    2    0    0  0.11555565849E-01  0.15336659487E-01  0.10472500071E-01  0.10220572433E+01  0.10218231702E+01 0.  0.
     999903    2    3    3    0    0  0.11226977860E+00  0.56409583271E-01  0.44437920785E-01  0.13471064390E+00  0.19638851943E-01 0.  0.
         14    1    1    2    0    0 -0.11555565849E-01 -0.15336659487E-01 -0.10472500071E-01  0.21872756664E-01  0.00000000000E+00 0.  1.
     999901    1    3    3    0    0 -0.10071421275E+00 -0.41072923784E-01 -0.33965420714E-01  0.88734659943E+00  0.88000000000E+00 0.  1.
        -11    1    4    4    0    0  0.13646467692E-01  0.51081988165E-02 -0.99860960274E-03  0.14614312086E-01  0.51100000000E-03 0.  1.
         11    1    4    4    0    0  0.98623310909E-01  0.51301384455E-01  0.45436530388E-01  0.12009633182E+00  0.51100000000E-03 0. -1.
</event>
<event>
 8    1  0.1183092E+005  0.1043930E+01  0.7957747E-01            NaN
         13   -1    0    0    0    0  0.00000000000E+00  0.00000000000E+00  0.74505805969E-08  0.10566000000E+00  0.10566000000E+00 0.  1.
     999900   -1    0    0    0    0 -0.00000000000E+00 -0.00000000000E+00 -0.74505805969E-08  0.93827000000E+00  0.93827000000E+00 0.  1.
     999902    2    1    2    0    0 -0.90186275862E-03 -0.22711933569E-01 -0.74626432862E-02  0.10200064483E+01  0.10197258544E+01 0.  0.
     999903    2    3    3    0    0  0.60485651674E-01 -0.28248906638E-01 -0.11071512819E+00  0.13182844773E+00  0.25775671371E-01 0.  0.
         14    1    1    2    0    0  0.90186275862E-03  0.22711933569E-01  0.74626432862E-02  0.23923551736E-01  0.00000000000E+00 0. -1.
     999901    1    3    3    0    0 -0.61387514432E-01  0.55369730694E-02  0.10325248491E+00  0.88817800054E+00  0.88000000000E+00 0. -1.
        -11    1    4    4    0    0  0.44404786457E-01 -0.10626929530E-01 -0.56868416285E-01  0.72931437552E-01  0.51100000000E-03 0.  1.
         11    1    4    4    0    0  0.16080865216E-01 -0.17621977108E-01 -0.53846711907E-01  0.58897010175E-01  0.51100000000E-03 0. -1.
</event>
<event>
 8    1  0.1183092E+005  0.1043930E+01  0.7957747E-01            NaN
         13   -1    0    0    0    0  0.00000000000E+00  0.00000000000E+00  0.74505805969E-08  0.10566000000E+00  0.10566000000E+00 0.  1.
     999900   -1    0    0    0    0 -0.00000000000E+00 -0.00000000000E+00 -0.74505805969E-08  0.93827000000E+00  0.93827000000E+00 0.  1.
     999902    2    1    2    0    0  0.12279236864E-01 -0.19789286840E-01  0.65275023429E-02  0.10197431478E+01  0.10194562687E+01 0.  0.
     999903    2    3    3    0    0  0.55370355864E-01  0.11280038479E+00 -0.18488424840E-01  0.12841679784E+00  0.18953864945E-01 0.  0.
         14    1    1    2    0    0 -0.12279236864E-01  0.19789286840E-01 -0.65275023429E-02  0.24186852181E-01  0.00000000000E+00 0.  1.
     999901    1    3    3    0    0 -0.43091119000E-01 -0.13258967163E+00  0.25015927182E-01  0.89132634998E+00  0.88000000000E+00 0. -1.
        -11    1    4    4    0    0  0.27558624838E-01  0.71127855266E-01 -0.17694292558E-01  0.78307079551E-01  0.51100000000E-03 0. -1.
         11    1    4    4    0    0  0.27811731027E-01  0.41672529523E-01 -0.79413228164E-03  0.50109718285E-01  0.51100000000E-03 0.  1.
</event>
<event>
 8    1  0.1183092E+005  0.1043930E+01  0.7957747E-01            NaN
         13   -1    0    0    0    0  0.00000000000E+00  0.00000000000E+00  0.74505805969E-08  0.10566000000E+00  0.10566000000E+00 0. -1.
     999900   -1    0    0    0    0 -0.00000000000E+00 -0.00000000000E+00 -0.74505805969E-08  0.93827000000E+00  0.93827000000E+00 0.  1.
     999902    2    1    2    0    0  0.12700013224E-01  0.19275247201E-01 -0.90588772059E-02  0.10191330496E+01  0.10188313325E+01 0.  0.
     999903    2    3    3    0    0 -0.73657930155E-01  0.96651998079E-01  0.41828000618E-01  0.13006931161E+00  0.20033591274E-01 0.  0.
         14    1    1    2    0    0 -0.12700013224E-01 -0.19275247201E-01  0.90588772059E-02  0.24796950353E-01  0.00000000000E+00 0. -1.
     999901    1    3    3    0    0  0.86357943379E-01 -0.77376750877E-01 -0.50886877824E-01  0.88906373804E+00  0.88000000000E+00 0.  1.
        -11    1    4    4    0    0 -0.27711514301E-01  0.51134309235E-01  0.24488073890E-01  0.63107626240E-01  0.51100000000E-03 0. -1.
         11    1    4    4    0    0 -0.45946415854E-01  0.45517688843E-01  0.17339926728E-01  0.66961685368E-01  0.51100000000E-03 0.  1.
</event>
<event>
 8    1  0.1183092E+005  0.1043930E+01  0.7957747E-01            NaN
         13   -1    0    0    0    0  0.00000000000E+00  0.00000000000E+00  0.74505805969E-08  0.10566000000E+00  0.10566000000E+00 0. -1.
     999900   -1    0    0    0    0 -0.00000000000E+00 -0.00000000000E+00 -0.74505805969E-08  0.93827000000E+00  0.93827000000E+00 0.  1.
     999902    2    1    2    0    0  0.16204627549E-01  0.95806673641E-02  0.13671885673E-01  0.10206641538E+01  0.10203989491E+01 0.  0.
     999903    2    3    3    0    0 -0.11245703537E+00 -0.34403750623E-01 -0.46935629155E-01  0.12816108749E+00  0.19801722205E-01 0.  0.
         14    1    1    2    0    0 -0.16204627549E-01 -0.95806673641E-02 -0.13671885673E-01  0.23265846191E-01  0.00000000000E+00 0. -1.
     999901    1    3    3    0    0  0.12866166292E+00  0.43984417987E-01  0.60607514828E-01  0.89250306632E+00  0.88000000000E+00 0.  1.
        -11    1    4    4    0    0 -0.10452370483E+00 -0.29112929405E-01 -0.47813628335E-01  0.11857137811E+00  0.51100000000E-03 0. -1.
         11    1    4    4    0    0 -0.79333305343E-02 -0.52908212180E-02  0.87799917980E-03  0.95897093849E-02  0.51100000000E-03 0.  1.
</event>
<event>
 8    1  0.1183092E+005  0.1043930E+01  0.7957747E-01            NaN
         13   -1    0    0    0    0  0.00000000000E+00  0.00000000000E+00  0.74505805969E-08  0.10566000000E+00  0.10566000000E+00 0. -1.
     999900   -1    0    0    0    0 -0.00000000000E+00 -0.00000000000E+00 -0.74505805969E-08  0.93827000000E+00  0.93827000000E+00 0. -1.
     999902    2    1    2    0    0  0.28284861013E-02 -0.10318662514E-02 -0.22893364045E-01  0.10208394998E+01  0.10205783229E+01 0.  0.
     999903    2    3    3    0    0  0.60767452631E-01 -0.94893985530E-01 -0.67800007545E-01  0.13281718708E+00  0.18601407799E-01 0.  0.
         14    1    1    2    0    0 -0.28284861013E-02  0.10318662514E-02  0.22893364045E-01  0.23090500187E-01  0.00000000000E+00 0. -1.
     999901    1    3    3    0    0 -0.57938966529E-01  0.93862119279E-01  0.44906643499E-01  0.88802231273E+00  0.88000000000E+00 0.  1.
        -11    1    4    4    0    0  0.14817389298E-01 -0.19048642235E-01 -0.23496273820E-01  0.33685928828E-01  0.51100000000E-03 0. -1.
         11    1    4    4    0    0  0.45950063333E-01 -0.75845343296E-01 -0.44303733724E-01  0.99131258253E-01  0.51100000000E-03 0.  1.
</event>
<event>
 8    1  0.1183092E+005  0.1043930E+01  0.7957747E-01            NaN
         13   -1    0    0    0    0  0.00000000000E+00  0.00000000000E+00  0.74505805969E-08  0.10566000000E+00  0.10566000000E+00 0.  1.
     999900   -1    0    0    0    0 -0.00000000000E+00 -0.00000000000E+00 -0.74505805969E-08  0.93827000000E+00  0.93827000000E+00 0.  1.
     999902    2    1    2    0    0  0.47696288842E-02 -0.94042385679E-02 -0.20595645911E-01  0.10207919428E+01  0.10205296765E+01 0.  0.
     999903    2    3    3    0    0  0.90309350619E-01 -0.89781801208E-01  0.26683468762E-01  0.13174025064E+00  0.20662417451E-01 0.  0.
         14    1    1    2    0    0 -0.47696288842E-02  0.94042385679E-02  0.20595645911E-01  0.23138057248E-01  0.00000000000E+00 0.  1.
     999901    1    3    3    0    0 -0.85539721735E-01  0.80377562640E-01 -0.47279114673E-01  0.88905169212E+00  0.88000000000E+00 0.  1.
        -11    1    4    4    0    0  0.25313386687E-01 -0.20665567595E-01  0.15610465030E-01  0.36218516936E-01  0.51100000000E-03 0.  1.
         11    1    4    4    0    0  0.64995963932E-01 -0.69116233613E-01  0.11073003733E-01  0.95521733700E-01  0.51100000000E-03 0. -1.
</event>
<event>
 8    1  0.1183092E+005  0.1043930E+01  0.7957747E-01            NaN
         13   -1    0    0    0    0  0.00000000000E+00  0.00000000000E+00  0.74505805969E-08  0.10566000000E+00  0.10566000000E+00 0.  1.
     999900   -1    0    0    0    0 -0.00000000000E+00 -0.00000000000E+00 -0.74505805969E-08  0.93827000000E+00  0.93827000000E+00 0.  1.
     999902    2    1    2    0    0  0.88873983055E-02  0.66328841877E-02 -0.21325441606E-01  0.10198934557E+01  0.10196101733E+01 0.  0.
     999903    2    3    3    0    0 -0.45659772886E-01  0.11269369678E+00 -0.45934306882E-01  0.13150734253E+00  0.19988407569E-01 0.  0.
         14    1    1    2    0    0 -0.88873983055E-02 -0.66328841877E-02  0.21325441606E-01  0.24036544281E-01  0.00000000000E+00 0.  1.
     999901    1    3    3    0    0  0.54547171191E-01 -0.10606081259E+00  0.24608865276E-01  0.88838611319E+00  0.88000000000E+00 0. -1.
        -11    1    4    4    0    0 -0.11374381922E-01  0.53885716560E-01 -0.18274497496E-01  0.58028143112E-01  0.51100000000E-03 0. -1.
         11    1    4    4    0    0 -0.34285390964E-01  0.58807980220E-01 -0.27659809386E-01  0.73479199420E-01  0.51100000000E-03 0.  1.
</event>
<event>
 8    1  0.1183092E+005  0.1043930E+01  0.7957747E-01            NaN
         13   -1    0    0    0    0  0.00000000000E+00  0.00000000000E+00  0.74505805969E-08  0.10566000000E+00  0.10566000000E+00 0.  1.
     999900   -1    0    0    0    0 -0.00000000000E+00 -0.00000000000E+00 -0.74505805969E-08  0.93827000000E+00  0.93827000000E+00 0. -1.
     999902    2    1    2    0    0  0.18885758820E-01  0.21324802800E-02 -0.13772596331E-01  0.10204586607E+01  0.10201886955E+01 0.  0.
     999903    2    3    3    0    0 -0.12596760407E+00  0.18045858660E-01 -0.57743662086E-02  0.12843864746E+00  0.16421101246E-01 0.  0.
         14    1    1    2    0    0 -0.18885758820E-01 -0.21324802800E-02  0.13772596331E-01  0.23471339290E-01  0.00000000000E+00 0. -1.
     999901    1    3    3    0    0  0.14485336289E+00 -0.15913378380E-01 -0.79982301228E-02  0.89202001325E+00  0.88000000000E+00 0. -1.
        -11    1    4    4    0    0 -0.55444492338E-01  0.10651963095E-01 -0.10260063272E-01  0.57385416856E-01  0.51100000000E-03 0. -1.
         11    1    4    4    0    0 -0.70523111734E-01  0.73938955644E-02  0.44856970636E-02  0.71053230605E-01  0.51100000000E-03 0.  1.
</event>
<event>
 8    1  0.1183092E+005  0.1043930E+01  0.7957747E-01            NaN
         13   -1    0    0    0    0  0.00000000000E+00  0.00000000000E+00  0.74505805969E-08  0.10566000000E+00  0.10566000000E+00 0.  1.
     999900   -1    0    0    0    0 -0.00000000000E+00 -0.00000000000E+00 -0.74505805969E-08  0.93827000000E+00  0.93827000000E+00 0.  1.
     999902    2    1    2    0    0 -0.86971443821E-02 -0.21584573103E-01 -0.44672152620E-02  0.10202342171E+01  0.10199590029E+01 0.  0.
     999903    2    3    3    0    0 -0.81881743855E-02  0.81342168415E-02  0.12761099003E+00  0.12988141181E+00  0.21246286131E-01 0.  0.
         14    1    1    2    0    0  0.86971443821E-02  0.21584573103E-01  0.44672152620E-02  0.23695782929E-01  0.00000000000E+00 0.  1.
     999901    1    3    3    0    0 -0.50896999656E-03 -0.29718789944E-01 -0.13207820529E+00  0.89035280526E+00  0.88000000000E+00 0.  1.
        -11    1    4    4    0    0 -0.13986209353E-01  0.91910426961E-02  0.11084317481E+00  0.11210066833E+00  0.51100000000E-03 0.  1.
         11    1    4    4    0    0  0.57980349675E-02 -0.10568258546E-02  0.16767815218E-01  0.17780743476E-01  0.51100000000E-03 0. -1.
</event>
<event>
 8    1  0.1183092E+005  0.1043930E+01  0.7957747E-01            NaN
         13   -1    0    0    0    0  0.00000000000E+00  0.00000000000E+00  0.74505805969E-08  0.10566000000E+00  0.10566000000E+00 0.  1.
     999900   -1    0    0    0    0 -0.00000000000E+00 -0.00000000000E+00 -0.74505805969E-08  0.93827000000E+00  0.93827000000E+00 0. -1.
     999902    2    1    2    0    0  0.84039372655E-02  0.10617709142E-02 -0.22711054846E-01  0.10196906615E+01  0.10194025209E+01 0.  0.
     999903    2    3    3    0    0  0.91561245874E-01  0.60371201417E-01  0.64051783476E-01  0.12954430463E+00  0.25513764706E-01 0.  0.
         14    1    1    2    0    0 -0.84039372655E-02 -0.10617709142E-02  0.22711054846E-01  0.24239338507E-01  0.00000000000E+00 0.  1.
     999901    1    3    3    0    0 -0.83157308608E-01 -0.59309430502E-01 -0.86762838321E-01  0.89014635686E+00  0.88000000000E+00 0. -1.
        -11    1    4    4    0    0  0.32804348366E-01  0.36768798448E-01  0.28320963434E-01  0.56836677435E-01  0.51100000000E-03 0. -1.
         11    1    4    4    0    0  0.58756897508E-01  0.23602402969E-01  0.35730820042E-01  0.72707627196E-01  0.51100000000E-03 0.  1.
</event>
<event>
 8    1  0.1183092E+005  0.1043930E+01  0.7957747E-01            NaN
         13   -1    0    0    0    0  0.00000000000E+00  0.00000000000E+00  0.74505805969E-08  0.10566000000E+00  0.10566000000E+00 0.  1.
     999900   -1    0    0    0    0 -0.00000000000E+00 -0.00000000000E+00 -0.74505805969E-08  0.93827000000E+00  0.93827000000E+00 0.  1.
     999902    2    1    2    0    0 -0.19945162331E-01 -0.57102728495E-02 -0.85882628802E-02  0.10214761590E+01  0.10212293417E+01 0.  0.
     999903    2    3    3    0    0  0.43393915675E-01  0.10155578558E+00 -0.67086127155E-01  0.13077988853E+00  0.20154932064E-01 0.  0.
         14    1    1    2    0    0  0.19945162331E-01  0.57102728495E-02  0.85882628802E-02  0.22453841002E-01  0.00000000000E+00 0.  1.
     999901    1    3    3    0    0 -0.63339078006E-01 -0.10726605843E+00  0.58497864274E-01  0.89069627046E+00  0.88000000000E+00 0. -1.
        -11    1    4    4    0    0  0.16404350921E-01  0.52414809626E-01 -0.23394768793E-01  0.59699173572E-01  0.51100000000E-03 0. -1.
         11    1    4    4    0    0  0.26989564753E-01  0.49140975952E-01 -0.43691358362E-01  0.71080714963E-01  0.51100000000E-03 0.  1.
</event>
<event>
 8    1  0.1183092E+005  0.1043930E+01  0.7957747E-01            NaN
         13   -1    0    0    0    0  0.00000000000E+00  0.00000000000E+00  0.74505805969E-08  0.10566000000E+00  0.10566000000E+00 0.  1.
     999900   -1    0    0    0    0 -0.00000000000E+00 -0.00000000000E+00 -0.74505805969E-08  0.93827000000E+00  0.93827000000E+00 0. -1.
     999902    2    1    2    0    0 -0.75180426986E-02 -0.23735889356E-01  0.13550180800E-03  0.10190315709E+01  0.10187273486E+01 0.  0.
     999903    2    3    3    0    0  0.66728133107E-01  0.10052068088E+00 -0.32558009687E-01  0.12660731332E+00  0.20306076897E-01 0.  0.
         14    1    1    2    0    0  0.75180426986E-02  0.23735889356E-01 -0.13550180800E-03  0.24898429073E-01  0.00000000000E+00 0. -1.
     999901    1    3    3    0    0 -0.74246175806E-01 -0.12425657024E+00  0.32693511495E-01  0.89242425761E+00  0.88000000000E+00 0. -1.
        -11    1    4    4    0    0  0.18887108011E-01  0.45635852251E-01 -0.16206442163E-01  0.51983302591E-01  0.51100000000E-03 0.  1.
         11    1    4    4    0    0  0.47841025096E-01  0.54884828631E-01 -0.16351567524E-01  0.74624010731E-01  0.51100000000E-03 0. -1.
</event>
<event>
 8    1  0.1183092E+005  0.1043930E+01  0.7957747E-01            NaN
         13   -1    0    0    0    0  0.00000000000E+00  0.00000000000E+00  0.74505805969E-08  0.10566000000E+00  0.10566000000E+00 0. -1.
     999900   -1    0    0    0    0 -0.00000000000E+00 -0.00000000000E+00 -0.74505805969E-08  0.93827000000E+00  0.93827000000E+00 0. -1.
     999902    2    1    2    0    0  0.13883635837E-02 -0.21778599569E-02 -0.23661826277E-01  0.10201276335E+01  0.10198499086E+01 0.  0.
     999903    2    3    3    0    0 -0.47469663660E-01 -0.36146657709E-01  0.11108898855E+00  0.12788396268E+00  0.21297762855E-01 0.  0.
         14    1    1    2    0    0 -0.13883635837E-02  0.21778599569E-02  0.23661826277E-01  0.23802366484E-01  0.00000000000E+00 0. -1.
     999901    1    3    3    0    0  0.48858027244E-01  0.33968797752E-01 -0.13475081483E+00  0.89224367083E+00  0.88000000000E+00 0. -1.
        -11    1    4    4    0    0 -0.36583051389E-01 -0.22126032437E-01  0.59093777143E-01  0.72939814767E-01  0.51100000000E-03 0.  1.
         11    1    4    4    0    0 -0.10886612272E-01 -0.14020625271E-01  0.51995211408E-01  0.54944147915E-01  0.51100000000E-03 0. -1.
</event>
<event>
 8    1  0.1183092E+005  0.1043930E+01  0.7957747E-01            NaN
         13   -1    0    0    0    0  0.00000000000E+00  0.00000000000E+00  0.74505805969E-08  0.10566000000E+00  0.10566000000E+00 0. -1.
     999900   -1    0    0    0    0 -0.00000000000E+00 -0.00000000000E+00 -0.74505805969E-08  0.93827000000E+00  0.93827000000E+00 0. -1.
     999902    2    1    2    0    0 -0.56744464885E-02  0.18303205514E-01 -0.15320348846E-01  0.10193959469E+01  0.10191006705E+01 0.  0.
     999903    2    3    3    0    0 -0.12313771749E+00 -0.35300642198E-01 -0.11673423168E-01  0.12996675204E+00  0.18602554076E-01 0.  0.
         14    1    1    2    0    0  0.56744464885E-02 -0.18303205514E-01  0.15320348846E-01  0.24534053147E-01  0.00000000000E+00 0. -1.
     999901    1    3    3    0    0  0.11746327100E+00  0.53603847712E-01 -0.36469256781E-02  0.88942919482E+00  0.88000000000E+00 0. -1.
        -11    1    4    4    0    0 -0.44124743295E-01 -0.17360300323E-01  0.34368058323E-02  0.47544145312E-01  0.51100000000E-03 0. -1.
         11    1    4    4    0    0 -0.79012974196E-01 -0.17940341875E-01 -0.15110229000E-01  0.82422606725E-01  0.51100000000E-03 0.  1.
</event>
<event>
 8    1  0.1183092E+005  0.1043930E+01  0.7957747E-01            NaN
         13   -1    0    0    0    0  0.00000000000E+00  0.00000000000E+00  0.74505805969E-08  0.10566000000E+00  0.10566000000E+00 0. -1.
     999900   -1    0    0    0    0 -0.00000000000E+00 -0.00000000000E+00 -0.74505805969E-08  0.93827000000E+00  0.93827000000E+00 0.  1.
     999902    2    1    2    0    0  0.96518083525E-02 -0.19944540655E-01  0.48386394784E-02  0.10212506142E+01  0.10209987574E+01 0.  0.
     999903    2    3    3    0    0 -0.70440833140E-01 -0.45688742541E-02 -0.10498258108E+00  0.13068228849E+00  0.32767859416E-01 0.  0.
         14    1    1    2    0    0 -0.96518083525E-02  0.19944540655E-01 -0.48386394784E-02  0.22679385759E-01  0.00000000000E+00 0.  1.
     999901    1    3    3    0    0  0.80092641492E-01 -0.15375666401E-01  0.10982122056E+00  0.89056832575E+00  0.88000000000E+00 0.  1.
        -11    1    4    4    0    0 -0.43448287351E-01  0.15227923179E-02 -0.88150525982E-01  0.98289617570E-01  0.51100000000E-03 0. -1.
         11    1    4    4    0    0 -0.26992545789E-01 -0.60916665720E-02 -0.16832055097E-01  0.32392670924E-01  0.51100000000E-03 0.  1.
</event>
<event>
 8    1  0.1183092E+005  0.1043930E+01  0.7957747E-01            NaN
         13   -1    0    0    0    0  0.00000000000E+00  0.00000000000E+00  0.74505805969E-08  0.10566000000E+00  0.10566000000E+00 0.  1.
     999900   -1    0    0    0    0 -0.00000000000E+00 -0.00000000000E+00 -0.74505805969E-08  0.93827000000E+00  0.93827000000E+00 0.  1.
     999902    2    1    2    0    0 -0.16092450814E-01 -0.97995230789E-02 -0.14789254540E-01  0.10199775539E+01  0.10196962738E+01 0.  0.
     999903    2    3    3    0    0  0.87166367976E-01 -0.12355741236E-01 -0.94047443654E-01  0.13039856443E+00  0.20204551465E-01 0.  0.
         14    1    1    2    0    0  0.16092450814E-01  0.97995230789E-02  0.14789254540E-01  0.23952446131E-01  0.00000000000E+00 0. -1.
     999901    1    3    3    0    0 -0.10325881879E+00  0.25562181575E-02  0.79258189114E-01  0.88957898944E+00  0.88000000000E+00 0. -1.
        -11    1    4    4    0    0  0.32208787960E-01 -0.13315689257E-02 -0.21641703996E-01  0.38830446437E-01  0.51100000000E-03 0. -1.
         11    1    4    4    0    0  0.54957580017E-01 -0.11024172311E-01 -0.72405739658E-01  0.91568117994E-01  0.51100000000E-03 0.  1.
</event>
<event>
 8    1  0.1183092E+005  0.1043930E+01  0.7957747E-01            NaN
         13   -1    0    0    0    0  0.00000000000E+00  0.00000000000E+00  0.74505805969E-08  0.10566000000E+00  0.10566000000E+00 0.  1.
     999900   -1    0    0    0    0 -0.00000000000E+00 -0.00000000000E+00 -0.74505805969E-08  0.93827000000E+00  0.93827000000E+00 0.  1.
     999902    2    1    2    0    0  0.61290548644E-02  0.19544338587E-01  0.11694553749E-01  0.10203437949E+01  0.10200711498E+01 0.  0.
     999903    2    3    3    0    0  0.28767815005E-01  0.42506732529E-02  0.12768385327E+00  0.13231230487E+00  0.18913599106E-01 0.  0.
         14    1    1    2    0    0 -0.61290548644E-02 -0.19544338587E-01 -0.11694553749E-01  0.23586205114E-01  0.00000000000E+00 0. -1.
     999901    1    3    3    0    0 -0.22638760141E-01  0.15293665334E-01 -0.11598929952E+00  0.88803149002E+00  0.88000000000E+00 0.  1.
        -11    1    4    4    0    0  0.12841419607E-01 -0.52359845319E-02  0.79126545440E-01  0.80334232465E-01  0.51100000000E-03 0. -1.
         11    1    4    4    0    0  0.15926395398E-01  0.94866577848E-02  0.48557307827E-01  0.51978072403E-01  0.51100000000E-03 0.  1.
</event>
<event>
 8    1  0.1183092E+005  0.1043930E+01  0.7957747E-01            NaN
         13   -1    0    0    0    0  0.00000000000E+00  0.00000000000E+00  0.74505805969E-08  0.10566000000E+00  0.10566000000E+00 0. -1.
     999900   -1    0    0    0    0 -0.00000000000E+00 -0.00000000000E+00 -0.74505805969E-08  0.93827000000E+00  0.93827000000E+00 0. -1.
     999902    2    1    2    0    0  0.23994101092E-01  0.48632335332E-03  0.56621940801E-02  0.10192720634E+01  0.10189737609E+01 0.  0.
     999903    2    3    3    0    0 -0.92035773748E-01  0.17750634934E-01  0.84491991038E-01  0.12799481962E+00  0.21403471938E-01 0.  0.
         14    1    1    2    0    0 -0.23994101092E-01 -0.48632335332E-03 -0.56621940801E-02  0.24657936642E-01  0.00000000000E+00 0.  1.
     999901    1    3    3    0    0  0.11602987484E+00 -0.17264311580E-01 -0.78829796958E-01  0.89127724373E+00  0.88000000000E+00 0. -1.
        -11    1    4    4    0    0 -0.34656690054E-01 -0.27559046239E-02  0.36680716708E-01  0.50541243307E-01  0.51100000000E-03 0.  1.
         11    1    4    4    0    0 -0.57379083694E-01  0.20506539558E-01  0.47811274330E-01  0.77453576317E-01  0.51100000000E-03 0. -1.
</event>
<event>
 8    1  0.1183092E+005  0.1043930E+01  0.7957747E-01            NaN
         13   -1    0    0    0    0  0.00000000000E+00  0.00000000000E+00  0.74505805969E-08  0.10566000000E+00  0.10566000000E+00 0.  1.
     999900   -1    0    0    0    0 -0.00000000000E+00 -0.00000000000E+00 -0.74505805969E-08  0.93827000000E+00  0.93827000000E+00 0.  1.
     999902    2    1    2    0    0  0.11542928851E-01 -0.13088614306E-02  0.21242176327E-01  0.10197187964E+01  0.10194313323E+01 0.  0.
     999903    2    3    3    0    0  0.93046256679E-01 -0.85249071970E-01 -0.27372789199E-01  0.13064502766E+00  0.19845490898E-01 0.  0.
         14    1    1    2    0    0 -0.11542928851E-01  0.13088614306E-02 -0.21242176327E-01  0.24211203601E-01  0.00000000000E+00 0. -1.
     999901    1    3    3    0    0 -0.81503327828E-01  0.83940210539E-01  0.48614965527E-01  0.88907376874E+00  0.88000000000E+00 0. -1.
        -11    1    4    4    0    0  0.78473125171E-01 -0.75022160356E-01 -0.16595344994E-01  0.10982723940E+00  0.51100000000E-03 0. -1.
         11    1    4    4    0    0  0.14573131508E-01 -0.10226911614E-01 -0.10777444206E-01  0.20817788252E-01  0.51100000000E-03 0.  1.
</event>
<event>
 8    1  0.1183092E+005  0.1043930E+01  0.7957747E-01            NaN
         13   -1    0    0    0    0  0.00000000000E+00  0.00000000000E+00  0.74505805969E-08  0.10566000000E+00  0.10566000000E+00 0.  1.
     999900   -1    0    0    0    0 -0.00000000000E+00 -0.00000000000E+00 -0.74505805969E-08  0.93827000000E+00  0.93827000000E+00 0.  1.
     999902    2    1    2    0    0  0.18010831570E-02 -0.14239968748E-01  0.21253970942E-01  0.10182833259E+01  0.10179603037E+01 0.  0.
     999903    2    3    3    0    0 -0.71378910226E-01 -0.52462772624E-01 -0.89456471733E-01  0.12751225753E+00  0.20239173615E-01 0.  0.
         14    1    1    2    0    0 -0.18010831570E-02  0.14239968748E-01 -0.21253970942E-01  0.25646674079E-01  0.00000000000E+00 0. -1.
     999901    1    3    3    0    0  0.73179993383E-01  0.38222803876E-01  0.11071044268E+00  0.89077106839E+00  0.88000000000E+00 0.  1.
        -11    1    4    4    0    0 -0.46993116192E-01 -0.25471474899E-01 -0.62455211857E-01  0.82207442559E-01  0.51100000000E-03 0.  1.
         11    1    4    4    0    0 -0.24385794034E-01 -0.26991297725E-01 -0.27001259876E-01  0.45304814970E-01  0.51100000000E-03 0. -1.
</event>
<event>
 8    1  0.1183092E+005  0.1043930E+01  0.7957747E-01            NaN
         13   -1    0    0    0    0  0.00000000000E+00  0.00000000000E+00  0.74505805969E-08  0.10566000000E+00  0.10566000000E+00 0. -1.
     999900   -1    0    0    0    0 -0.00000000000E+00 -0.00000000000E+00 -0.74505805969E-08  0.93827000000E+00  0.93827000000E+00 0. -1.
     999902    2    1    2    0    0  0.20374253387E-01  0.10613215898E-01 -0.58983372381E-02  0.10202120546E+01  0.10199363193E+01 0.  0.
     999903    2    3    3    0    0  0.60138130248E-02  0.79628870670E-01 -0.10375797312E+00  0.13198579332E+00  0.16661622414E-01 0.  0.
         14    1    1    2    0    0 -0.20374253387E-01 -0.10613215898E-01  0.58983372381E-02  0.23717945420E-01  0.00000000000E+00 0. -1.
     999901    1    3    3    0    0  0.14360440363E-01 -0.69015654772E-01  0.97859635884E-01  0.88822626126E+00  0.88000000000E+00 0. -1.
        -11    1    4    4    0    0  0.53819298214E-02  0.68853154591E-01 -0.78763519589E-01  0.10475531111E+00  0.51100000000E-03 0. -1.
         11    1    4    4    0    0  0.63188320336E-03  0.10775716079E-01 -0.24994453533E-01  0.27230482217E-01  0.51100000000E-03 0.  1.
</event>
<event>
 8    1  0.1183092E+005  0.1043930E+01  0.7957747E-01            NaN
         13   -1    0    0    0    0  0.00000000000E+00  0.00000000000E+00  0.74505805969E-08  0.10566000000E+00  0.10566000000E+00 0.  1.
     999900   -1    0    0    0    0 -0.00000000000E+00 -0.00000000000E+00 -0.74505805969E-08  0.93827000000E+00  0.93827000000E+00 0. -1.
     999902    2    1    2    0    0  0.41222470164E-02 -0.92324495750E-02  0.20689054883E-01  0.10209024505E+01  0.10206427119E+01 0.  0.
     999903    2    3    3    0    0  0.10331751966E+00  0.73735753603E-01  0.27508562697E-01  0.13142511487E+00  0.20108917658E-01 0.  0.
         14    1    1    2    0    0 -0.41222470164E-02  0.92324495750E-02 -0.20689054883E-01  0.23027549534E-01  0.00000000000E+00 0. -1.
     999901    1    3    3    0    0 -0.99195272640E-01 -0.82968203178E-01 -0.68195078138E-02  0.88947733560E+00  0.88000000000E+00 0.  1.
        -11    1    4    4    0    0  0.39561927697E-01  0.17325883264E-01  0.12662205458E-01  0.45010275739E-01  0.51100000000E-03 0. -1.
         11    1    4    4    0    0  0.63755591959E-01  0.56409870339E-01  0.14846357239E-01  0.86414839131E-01  0.51100000000E-03 0.  1.
</event>
<event>
 8    1  0.1183092E+005  0.1043930E+01  0.7957747E-01            NaN
         13   -1    0    0    0    0  0.00000000000E+00  0.00000000000E+00  0.74505805969E-08  0.10566000000E+00  0.10566000000E+00 0.  1.
     999900   -1    0    0    0    0 -0.00000000000E+00 -0.00000000000E+00 -0.74505805969E-08  0.93827000000E+00  0.93827000000E+00 0.  1.
     999902    2    1    2    0    0 -0.16429124569E-01 -0.16785381106E-01 -0.47793548258E-02  0.10199611163E+01  0.10196794454E+01 0.  0.
     999903    2    3    3    0    0 -0.98845772870E-01  0.79527949487E-01  0.17124957677E-01  0.13060822770E+00  0.25885582926E-01 0.  0.
         14    1    1    2    0    0  0.16429124569E-01  0.16785381106E-01  0.47793548258E-02  0.23968883694E-01  0.00000000000E+00 0. -1.
     999901    1    3    3    0    0  0.82416648300E-01 -0.96313330593E-01 -0.21904312502E-01  0.88935288861E+00  0.88000000000E+00 0.  1.
        -11    1    4    4    0    0 -0.32048490964E-01  0.11366731764E-01  0.31461128678E-02  0.34153587092E-01  0.51100000000E-03 0.  1.
         11    1    4    4    0    0 -0.66797281906E-01  0.68161217723E-01  0.13978844809E-01  0.96454640607E-01  0.51100000000E-03 0. -1.
</event>
<event>
 8    1  0.1183092E+005  0.1043930E+01  0.7957747E-01            NaN
         13   -1    0    0    0    0  0.00000000000E+00  0.00000000000E+00  0.74505805969E-08  0.10566000000E+00  0.10566000000E+00 0. -1.
     999900   -1    0    0    0    0 -0.00000000000E+00 -0.00000000000E+00 -0.74505805969E-08  0.93827000000E+00  0.93827000000E+00 0.  1.
     999902    2    1    2    0    0  0.15123667968E-01 -0.32688916951E-02 -0.17502808996E-01  0.10205685080E+01  0.10203010929E+01 0.  0.
     999903    2    3    3    0    0  0.45522522349E-01 -0.72037716479E-01 -0.10073582132E+00  0.13344902566E+00  0.19980092977E-01 0.  0.
         14    1    1    2    0    0 -0.15123667968E-01  0.32688916951E-02  0.17502808996E-01  0.23361492000E-01  0.00000000000E+00 0. -1.
     999901    1    3    3    0    0 -0.30398854381E-01  0.68768824784E-01  0.83233012325E-01  0.88711948234E+00  0.88000000000E+00 0. -1.
        -11    1    4    4    0    0  0.40191453250E-01 -0.71314454806E-01 -0.96740305907E-01  0.12672826159E+00  0.51100000000E-03 0. -1.
         11    1    4    4    0    0  0.53310690989E-02 -0.72326167335E-03 -0.39955154134E-02  0.67207640640E-02  0.51100000000E-03 0.  1.
</event>
<event>
 8    1  0.1183092E+005  0.1043930E+01  0.7957747E-01            NaN
         13   -1    0    0    0    0  0.00000000000E+00  0.00000000000E+00  0.74505805969E-08  0.10566000000E+00  0.10566000000E+00 0.  1.
     999900   -1    0    0    0    0 -0.00000000000E+00 -0.00000000000E+00 -0.74505805969E-08  0.93827000000E+00  0.93827000000E+00 0. -1.
     999902    2    1    2    0    0 -0.22847701644E-01  0.59650715697E-02 -0.59569223505E-02  0.10195766743E+01  0.10192857844E+01 0.  0.
     999903    2    3    3    0    0  0.30999597151E-01 -0.51832252774E-01 -0.11292254754E+00  0.12958695117E+00  0.19842346627E-01 0.  0.
         14    1    1    2    0    0  0.22847701644E-01 -0.59650715697E-02  0.59569223505E-02  0.24353325710E-01  0.00000000000E+00 0.  1.
     999901    1    3    3    0    0 -0.53847298795E-01  0.57797324344E-01  0.10696562519E+00  0.88998972312E+00  0.88000000000E+00 0.  1.
        -11    1    4    4    0    0  0.56726056735E-02 -0.16772499100E-01 -0.17898371551E-01  0.25181501273E-01  0.51100000000E-03 0.  1.
         11    1    4    4    0    0  0.25326991477E-01 -0.35059753674E-01 -0.95024175987E-01  0.10440544990E+00  0.51100000000E-03 0. -1.
</event>
<event>
 8    1  0.1183092E+005  0.1043930E+01  0.7957747E-01            NaN
         13   -1    0    0    0    0  0.00000000000E+00  0.00000000000E+00  0.74505805969E-08  0.10566000000E+00  0.10566000000E+00 0.  1.
     999900   -1    0    0    0    0 -0.00000000000E+00 -0.00000000000E+00 -0.74505805969E-08  0.93827000000E+00  0.93827000000E+00 0.  1.
     999902    2    1    2    0    0  0.23079666794E-01 -0.50502724696E-03  0.59684959947E-02  0.10200857341E+01  0.10198070189E+01 0.  0.
     999903    2    3    3    0    0  0.35023803243E-01  0.68783905351E-01 -0.10288913564E+00  0.13059509191E+00  0.22605560610E-01 0.  0.
         14    1    1    2    0    0 -0.23079666794E-01  0.50502724696E-03 -0.59684959947E-02  0.23844265899E-01  0.00000000000E+00 0.  1.
     999901    1    3    3    0    0 -0.11944136449E-01 -0.69288932598E-01  0.10885763163E+00  0.88949064219E+00  0.88000000000E+00 0. -1.
        -11    1    4    4    0    0  0.89578262596E-02  0.40240400589E-01 -0.45506080341E-01  0.61405186750E-01  0.51100000000E-03 0.  1.
         11    1    4    4    0    0  0.26065976983E-01  0.28543504762E-01 -0.57383055296E-01  0.69189905162E-01  0.51100000000E-03 0. -1.
</event>
<event>
 8    1  0.1183092E+005  0.1043930E+01  0.7957747E-01            NaN
         13   -1    0    0    0    0  0.00000000000E+00  0.00000000000E+00  0.74505805969E-08  0.10566000000E+00  0.10566000000E+00 0. -1.
     999900   -1    0    0    0    0 -0.00000000000E+00 -0.00000000000E+00 -0.74505805969E-08  0.93827000000E+00  0.93827000000E+00 0. -1.
     999902    2    1    2    0    0  0.23447420808E-01  0.33584854547E-03 -0.84680310604E-02  0.10189980549E+01  0.10186930028E+01 0.  0.
     999903    2    3    3    0    0  0.50387052385E-01 -0.32649853645E-01  0.11321810890E+00  0.12960426306E+00  0.19340548792E-01 0.  0.
         14    1    1    2    0    0 -0.23447420808E-01 -0.33584854547E-03  0.84680310604E-02  0.24931945107E-01  0.00000000000E+00 0.  1.
     999901    1    3    3    0    0 -0.26939631577E-01  0.32985702190E-01 -0.12168613996E+00  0.88939379184E+00  0.88000000000E+00 0. -1.
        -11    1    4    4    0    0  0.24653372242E-01 -0.21856726026E-01  0.77950995474E-01  0.84629333283E-01  0.51100000000E-03 0.  1.
         11    1    4    4    0    0  0.25733680142E-01 -0.10793127619E-01  0.35267113429E-01  0.44974929773E-01  0.51100000000E-03 0. -1.
</event>
<event>
 8    1  0.1183092E+005  0.1043930E+01  0.7957747E-01            NaN
         13   -1    0    0    0    0  0.00000000000E+00  0.00000000000E+00  0.74505805969E-08  0.10566000000E+00  0.10566000000E+00 0. -1.
     999900   -1    0    0    0    0 -0.00000000000E+00 -0.00000000000E+00 -0.74505805969E-08  0.93827000000E+00  0.93827000000E+00 0. -1.
     999902    2    1    2    0    0 -0.14457630832E-01 -0.13655421707E-01 -0.15199912206E-01  0.10188993995E+01  0.10185918983E+01 0.  0.
     999903    2    3    3    0    0 -0.65571718125E-01  0.10917502939E+00 -0.23075897698E-02  0.12880604392E+00  0.19152929809E-01 0.  0.
         14    1    1    2    0    0  0.14457630832E-01  0.13655421707E-01  0.15199912206E-01  0.25030600519E-01  0.00000000000E+00 0. -1.
     999901    1    3    3    0    0  0.51114087293E-01 -0.12283045109E+00 -0.12892322436E-01  0.89009335556E+00  0.88000000000E+00 0.  1.
        -11    1    4    4    0    0 -0.55010552489E-01  0.91977930134E-01 -0.89657130348E-02  0.10754880589E+00  0.51100000000E-03 0. -1.
         11    1    4    4    0    0 -0.10561165635E-01  0.17197099253E-01  0.66581232650E-02  0.21257238031E-01  0.51100000000E-03 0.  1.
</event>
<event>
 8    1  0.1183092E+005  0.1043930E+01  0.7957747E-01            NaN
         13   -1    0    0    0    0  0.00000000000E+00  0.00000000000E+00  0.74505805969E-08  0.10566000000E+00  0.10566000000E+00 0.  1.
     999900   -1    0    0    0    0 -0.00000000000E+00 -0.00000000000E+00 -0.74505805969E-08  0.93827000000E+00  0.93827000000E+00 0.  1.
     999902    2    1    2    0    0 -0.79868609517E-02 -0.21366077039E-01  0.43827222366E-02  0.10207027003E+01  0.10204383837E+01 0.  0.
     999903    2    3    3    0    0  0.69174528761E-01  0.15454133518E-01  0.10761952625E+00  0.13055246263E+00  0.20929342942E-01 0.  0.
         14    1    1    2    0    0  0.79868609517E-02  0.21366077039E-01 -0.43827222366E-02  0.23227299673E-01  0.00000000000E+00 0. -1.
     999901    1    3    3    0    0 -0.77161389713E-01 -0.36820210557E-01 -0.10323680402E+00  0.89015023770E+00  0.88000000000E+00 0.  1.
        -11    1    4    4    0    0  0.30867331256E-01  0.77436684572E-02  0.30428587474E-01  0.44033130671E-01  0.51100000000E-03 0.  1.
         11    1    4    4    0    0  0.38307197505E-01  0.77104650607E-02  0.77190938779E-01  0.86519331959E-01  0.51100000000E-03 0. -1.
</event>
<event>
 8    1  0.1183092E+005  0.1043930E+01  0.7957747E-01            NaN
         13   -1    0    0    0    0  0.00000000000E+00  0.00000000000E+00  0.74505805969E-08  0.10566000000E+00  0.10566000000E+00 0. -1.
     999900   -1    0    0    0    0 -0.00000000000E+00 -0.00000000000E+00 -0.74505805969E-08  0.93827000000E+00  0.93827000000E+00 0.  1.
     999902    2    1    2    0    0 -0.15903344053E-01 -0.85061874113E-02 -0.15401491068E-01  0.10202133918E+01  0.10199376880E+01 0.  0.
     999903    2    3    3    0    0 -0.18604030063E-01  0.10502131889E+00 -0.73927733715E-01  0.13098838685E+00  0.17806187688E-01 0.  0.
         14    1    1    2    0    0  0.15903344053E-01  0.85061874113E-02  0.15401491068E-01  0.23716608178E-01  0.00000000000E+00 0. -1.
     999901    1    3    3    0    0  0.27006860098E-02 -0.11352750631E+00  0.58526242648E-01  0.88922500497E+00  0.88000000000E+00 0. -1.
        -11    1    4    4    0    0 -0.11039304094E-01  0.65853924946E-01 -0.56429371373E-01  0.87425057850E-01  0.51100000000E-03 0.  1.
         11    1    4    4    0    0 -0.75647259692E-02  0.39167393948E-01 -0.17498362343E-01  0.43563328998E-01  0.51100000000E-03 0. -1.
</event>
<event>
 8    1  0.1183092E+005  0.1043930E+01  0.7957747E-01            NaN
         13   -1    0    0    0    0  0.00000000000E+00  0.00000000000E+00  0.74505805969E-08  0.10566000000E+00  0.10566000000E+00 0. -1.
     999900   -1    0    0    0    0 -0.00000000000E+00 -0.00000000000E+00 -0.74505805969E-08  0.93827000000E+00  0.93827000000E+00 0.  1.
     999902    2    1    2    0    0  0.21460088292E-01 -0.60974746948E-02 -0.42359866520E-02  0.10212218920E+01  0.10209693896E+01 0.  0.
     999903    2    3    3    0    0 -0.76879168005E-01 -0.28911770355E-01  0.98375493869E-01  0.12952675497E+00  0.18792166509E-01 0.  0.
         14    1    1    2    0    0 -0.21460088292E-01  0.60974746948E-02  0.42359866520E-02  0.22708108025E-01  0.00000000000E+00 0. -1.
     999901    1    3    3    0    0  0.98339256297E-01  0.22814295660E-01 -0.10261148052E+00  0.89169513700E+00  0.88000000000E+00 0.  1.
        -11    1    4    4    0    0 -0.30535028843E-01 -0.75238043189E-02  0.25176514154E-01  0.40287884082E-01  0.51100000000E-03 0.  1.
         11    1    4    4    0    0 -0.46344139161E-01 -0.21387966036E-01  0.73198979716E-01  0.89238870892E-01  0.51100000000E-03 0. -1.
</event>
<event>
 8    1  0.1183092E+005  0.1043930E+01  0.7957747E-01            NaN
         13   -1    0    0    0    0  0.00000000000E+00  0.00000000000E+00  0.74505805969E-08  0.10566000000E+00  0.10566000000E+00 0.  1.
     999900   -1    0    0    0    0 -0.00000000000E+00 -0.00000000000E+00 -0.74505805969E-08  0.93827000000E+00  0.93827000000E+00 0. -1.
     999902    2    1    2    0    0  0.15511098840E-01  0.92692500071E-02  0.13453181492E-01  0.10214022110E+01  0.10211537472E+01 0.  0.
     999903    2    3    3    0    0  0.13137284306E+00  0.15178768609E-03 -0.10374226689E-01  0.13344116614E+00  0.20977924324E-01 0.  0.
         14    1    1    2    0    0 -0.15511098840E-01 -0.92692500071E-02 -0.13453181492E-01  0.22527788955E-01  0.00000000000E+00 0. -1.
     999901    1    3    3    0    0 -0.11586174422E+00  0.91174623210E-02  0.23827408181E-01  0.88796104491E+00  0.88000000000E+00 0.  1.
        -11    1    4    4    0    0  0.98087457972E-01 -0.62579357952E-02 -0.14264471621E-01  0.99317910991E-01  0.51100000000E-03 0.  1.
         11    1    4    4    0    0  0.33285385083E-01  0.64097234813E-02  0.38902449320E-02  0.34123255148E-01  0.51100000000E-03 0. -1.
</event>
<event>
 8    1  0.1183092E+005  0.1043930E+01  0.7957747E-01            NaN
         13   -1    0    0    0    0  0.00000000000E+00  0.00000000000E+00  0.74505805969E-08  0.10566000000E+00  0.10566000000E+00 0. -1.
     999900   -1    0    0    0    0 -0.00000000000E+00 -0.00000000000E+00 -0.74505805969E-08  0.93827000000E+00  0.93827000000E+00 0.  1.
     999902    2    1    2    0    0 -0.16661625000E-01  0.44298034229E-02 -0.16791022518E-01  0.10198640210E+01  0.10195800361E+01 0.  0.
     999903    2    3    3    0    0  0.30061147922E-01  0.63327373546E-01  0.10547039636E+00  0.12823641053E+00  0.20162926947E-01 0.  0.
         14    1    1    2    0    0  0.16661625000E-01 -0.44298034229E-02  0.16791022518E-01  0.24065978958E-01  0.00000000000E+00 0. -1.
     999901    1    3    3    0    0 -0.46722772922E-01 -0.58897570123E-01 -0.12226141888E+00  0.89162761051E+00  0.88000000000E+00 0.  1.
        -11    1    4    4    0    0  0.17197824364E-01  0.50461141993E-01  0.88689327586E-01  0.10348019116E+00  0.51100000000E-03 0.  1.
         11    1    4    4    0    0  0.12863323558E-01  0.12866231553E-01  0.16781068776E-01  0.24756219372E-01  0.51100000000E-03 0. -1.
</event>
<event>
 8    1  0.1183092E+005  0.1043930E+01  0.7957747E-01            NaN
         13   -1    0    0    0    0  0.00000000000E+00  0.00000000000E+00  0.74505805969E-08  0.10566000000E+00  0.10566000000E+00 0. -1.
     999900   -1    0    0    0    0 -0.00000000000E+00 -0.00000000000E+00 -0.74505805969E-08  0.93827000000E+00  0.93827000000E+00 0.  1.
     999902    2    1    2    0    0  0.76105589407E-02  0.21859072357E-01 -0.12401030408E-02  0.10207507527E+01  0.10204875411E+01 0.  0.
     999903    2    3    3    0    0 -0.97292486082E-01  0.70876410975E-01  0.48990216730E-01  0.13174544707E+00  0.21622395984E-01 0.  0.
         14    1    1    2    0    0 -0.76105589407E-02 -0.21859072357E-01  0.12401030408E-02  0.23179247340E-01  0.00000000000E+00 0.  1.
     999901    1    3    3    0    0  0.10490304502E+00 -0.49017338617E-01 -0.50230319771E-01  0.88900530559E+00  0.88000000000E+00 0.  1.
        -11    1    4    4    0    0 -0.48283378472E-01  0.21945997431E-01  0.21714223837E-01  0.57312128540E-01  0.51100000000E-03 0. -1.
         11    1    4    4    0    0 -0.49009107609E-01  0.48930413544E-01  0.27275992893E-01  0.74433318531E-01  0.51100000000E-03 0.  1.
</event>
<event>
 8    1  0.1183092E+005  0.1043930E+01  0.7957747E-01            NaN
         13   -1    0    0    0    0  0.00000000000E+00  0.00000000000E+00  0.74505805969E-08  0.10566000000E+00  0.10566000000E+00 0.  1.
     999900   -1    0    0    0    0 -0.00000000000E+00 -0.00000000000E+00 -0.74505805969E-08  0.93827000000E+00  0.93827000000E+00 0.  1.
     999902    2    1    2    0    0  0.16873853195E-01  0.14175493579E-01 -0.23209161052E-02  0.10217701672E+01  0.10215298411E+01 0.  0.
     999903    2    3    3    0    0 -0.43844407677E-01 -0.58048079830E-02 -0.12194051780E+00  0.13137993318E+00  0.20860706617E-01 0.  0.
         14    1    1    2    0    0 -0.16873853195E-01 -0.14175493579E-01  0.23209161052E-02  0.22159832839E-01  0.00000000000E+00 0. -1.
     999901    1    3    3    0    0  0.60718260873E-01  0.19980301562E-01  0.11961960170E+00  0.89039023398E+00  0.88000000000E+00 0. -1.
        -11    1    4    4    0    0 -0.11608149252E-01 -0.61396370300E-02 -0.16351649630E-01  0.20978127622E-01  0.51100000000E-03 0.  1.
         11    1    4    4    0    0 -0.32236258425E-01  0.33482904700E-03 -0.10558886817E+00  0.11040180556E+00  0.51100000000E-03 0. -1.
</event>
<event>
 8    1  0.1183092E+005  0.1043930E+01  0.7957747E-01            NaN
         13   -1    0    0    0    0  0.00000000000E+00  0.00000000000E+00  0.74505805969E-08  0.10566000000E+00  0.10566000000E+00 0. -1.
     999900   -1    0    0    0    0 -0.00000000000E+00 -0.00000000000E+00 -0.74505805969E-08  0.93827000000E+00  0.93827000000E+00 0. -1.
     999902    2    1    2    0    0 -0.63094131713E-02 -0.99534164489E-02 -0.20304725953E-01  0.10204531797E+01  0.10201830870E+01 0.  0.
     999903    2    3    3    0    0  0.39883331811E-01 -0.77051936643E-01  0.93896542759E-01  0.12934268666E+00  0.19628773605E-01 0.  0.
         14    1    1    2    0    0  0.63094131713E-02  0.99534164489E-02  0.20304725953E-01  0.23476820261E-01  0.00000000000E+00 0. -1.
     999901    1    3    3    0    0 -0.46192744982E-01  0.67098520194E-01 -0.11420126871E+00  0.89111049308E+00  0.88000000000E+00 0. -1.
        -11    1    4    4    0    0  0.37249015307E-01 -0.53163743135E-01  0.68447418486E-01  0.94335480832E-01  0.51100000000E-03 0.  1.
         11    1    4    4    0    0  0.26343165042E-02 -0.23888193508E-01  0.25449124274E-01  0.35007205827E-01  0.51100000000E-03 0. -1.
</event>
<event>
 8    1  0.1183092E+005  0.1043930E+01  0.7957747E-01            NaN
         13   -1    0    0    0    0  0.00000000000E+00  0.00000000000E+00  0.74505805969E-08  0.10566000000E+00  0.10566000000E+00 0. -1.
     999900   -1    0    0    0    0 -0.00000000000E+00 -0.00000000000E+00 -0.74505805969E-08  0.93827000000E+00  0.93827000000E+00 0.  1.
     999902    2    1    2    0    0  0.21091057238E-02  0.22303791267E-01 -0.50912937026E-02  0.10209554771E+01  0.10206969469E+01 0.  0.
     999903    2    3    3    0    0  0.58077965261E-01 -0.34068142810E-01  0.10937862700E+00  0.12999326075E+00  0.20021872820E-01 0.  0.
         14    1    1    2    0    0 -0.21091057238E-02 -0.22303791267E-01  0.50912937026E-02  0.22974522920E-01  0.00000000000E+00 0.  1.
     999901    1    3    3    0    0 -0.55968859537E-01  0.56371934076E-01 -0.11446992070E+00  0.89096221633E+00  0.88000000000E+00 0.  1.
        -11    1    4    4    0    0  0.43581282079E-01 -0.21752552400E-01  0.61376593773E-01  0.78357188998E-01  0.51100000000E-03 0. -1.
         11    1    4    4    0    0  0.14496683182E-01 -0.12315590409E-01  0.48002033229E-01  0.51636071748E-01  0.51100000000E-03 0.  1.
</event>
<event>
 8    1  0.1183092E+005  0.1043930E+01  0.7957747E-01            NaN
         13   -1    0    0    0    0  0.00000000000E+00  0.00000000000E+00  0.74505805969E-08  0.10566000000E+00  0.10566000000E+00 0.  1.
     999900   -1    0    0    0    0 -0.00000000000E+00 -0.00000000000E+00 -0.74505805969E-08  0.93827000000E+00  0.93827000000E+00 0.  1.
     999902    2    1    2    0    0 -0.48940724002E-02 -0.21247475495E-01  0.83466401196E-02  0.10205831895E+01  0.10203161143E+01 0.  0.
     999903    2    3    3    0    0 -0.12454808642E+00  0.13611779263E-01  0.34923997952E-01  0.13140457602E+00  0.18707501195E-01 0.  0.
         14    1    1    2    0    0  0.48940724002E-02  0.21247475495E-01 -0.83466401196E-02  0.23346810507E-01  0.00000000000E+00 0. -1.
     999901    1    3    3    0    0  0.11965401402E+00 -0.34859254758E-01 -0.26577357832E-01  0.88917861348E+00  0.88000000000E+00 0. -1.
        -11    1    4    4    0    0 -0.27461769004E-01 -0.45476185283E-02  0.59214947127E-02  0.28463218577E-01  0.51100000000E-03 0.  1.
         11    1    4    4    0    0 -0.97086317411E-01  0.18159397791E-01  0.29002503239E-01  0.10294135744E+00  0.51100000000E-03 0. -1.
</event>
<event>
 8    1  0.1183092E+005  0.1043930E+01  0.7957747E-01            NaN
         13   -1    0    0    0    0  0.00000000000E+00  0.00000000000E+00  0.74505805969E-08  0.10566000000E+00  0.10566000000E+00 0. -1.
     999900   -1    0    0    0    0 -0.00000000000E+00 -0.00000000000E+00 -0.74505805969E-08  0.93827000000E+00  0.93827000000E+00 0. -1.
     999902    2    1    2    0    0 -0.11387826881E-01  0.18131954073E-01  0.95918575150E-02  0.10204682420E+01  0.10201984997E+01 0.  0.
     999903    2    3    3    0    0 -0.55046327439E-01 -0.10825813795E+00 -0.38561231356E-01  0.12906528033E+00  0.20517198336E-01 0.  0.
         14    1    1    2    0    0  0.11387826881E-01 -0.18131954073E-01 -0.95918575150E-02  0.23461758036E-01  0.00000000000E+00 0. -1.
     999901    1    3    3    0    0  0.43658500558E-01  0.12639009202E+00  0.48153088871E-01  0.89140296163E+00  0.88000000000E+00 0.  1.
        -11    1    4    4    0    0 -0.37430132750E-02 -0.53496336021E-02  0.24346905534E-02  0.69869569302E-02  0.51100000000E-03 0.  1.
         11    1    4    4    0    0 -0.51303314164E-01 -0.10290850435E+00 -0.40995921909E-01  0.12207832340E+00  0.51100000000E-03 0. -1.
</event>
<event>
 8    1  0.1183092E+005  0.1043930E+01  0.7957747E-01            NaN
         13   -1    0    0    0    0  0.00000000000E+00  0.00000000000E+00  0.74505805969E-08  0.10566000000E+00  0.10566000000E+00 0. -1.
     999900   -1    0    0    0    0 -0.00000000000E+00 -0.00000000000E+00 -0.74505805969E-08  0.93827000000E+00  0.93827000000E+00 0. -1.
     999902    2    1    2    0    0  0.20910658771E-01  0.10699443112E-01 -0.11483402334E-01  0.10177842114E+01  0.10174483273E+01 0.  0.
     999903    2    3    3    0    0  0.52246758303E-01 -0.33990400390E-01 -0.11264495682E+00  0.13030869434E+00  0.20159326687E-01 0.  0.
         14    1    1    2    0    0 -0.20910658771E-01 -0.10699443112E-01  0.11483402334E-01  0.26145788615E-01  0.00000000000E+00 0. -1.
     999901    1    3    3    0    0 -0.31336099532E-01  0.44689843502E-01  0.10116155448E+00  0.88747551704E+00  0.88000000000E+00 0.  1.
        -11    1    4    4    0    0  0.37425935223E-01 -0.33953181699E-01 -0.83324101908E-01  0.97450942810E-01  0.51100000000E-03 0. -1.
         11    1    4    4    0    0  0.14820823081E-01 -0.37218690499E-04 -0.29320854910E-01  0.32857751531E-01  0.51100000000E-03 0.  1.
</event>
<event>
 8    1  0.1183092E+005  0.1043930E+01  0.7957747E-01            NaN
         13   -1    0    0    0    0  0.00000000000E+00  0.00000000000E+00  0.74505805969E-08  0.10566000000E+00  0.10566000000E+00 0.  1.
     999900   -1    0    0    0    0 -0.00000000000E+00 -0.00000000000E+00 -0.74505805969E-08  0.93827000000E+00  0.93827000000E+00 0. -1.
     999902    2    1    2    0    0 -0.18466590353E-01 -0.11784416174E-01 -0.99502848131E-02  0.10198697508E+01  0.10195859027E+01 0.  0.
     999903    2    3    3    0    0  0.22733842724E-01  0.11302987639E+00  0.51334320551E-01  0.12799986894E+00  0.21358216713E-01 0.  0.
         14    1    1    2    0    0  0.18466590353E-01  0.11784416174E-01  0.99502848131E-02  0.24060249202E-01  0.00000000000E+00 0.  1.
     999901    1    3    3    0    0 -0.41200433077E-01 -0.12481429256E+00 -0.61284605364E-01  0.89186988186E+00  0.88000000000E+00 0. -1.
        -11    1    4    4    0    0  0.81516969113E-02  0.68453478670E-01  0.20705502535E-01  0.71981302161E-01  0.51100000000E-03 0. -1.
         11    1    4    4    0    0  0.14582145813E-01  0.44576397716E-01  0.30628818015E-01  0.56018566778E-01  0.51100000000E-03 0.  1.
</event>
<event>
 8    1  0.1183092E+005  0.1043930E+01  0.7957747E-01            NaN
         13   -1    0    0    0    0  0.00000000000E+00  0.00000000000E+00  0.74505805969E-08  0.10566000000E+00  0.10566000000E+00 0. -1.
     999900   -1    0    0    0    0 -0.00000000000E+00 -0.00000000000E+00 -0.74505805969E-08  0.93827000000E+00  0.93827000000E+00 0.  1.
     999902    2    1    2    0    0  0.66436269942E-02  0.16369609381E-01  0.13905836086E-01  0.10214472473E+01  0.10211997870E+01 0.  0.
     999903    2    3    3    0    0  0.46813972735E-01 -0.72357062772E-01 -0.94486331379E-01  0.12946353615E+00  0.20150627725E-01 0.  0.
         14    1    1    2    0    0 -0.66436269942E-02 -0.16369609381E-01 -0.13905836086E-01  0.22482752682E-01  0.00000000000E+00 0.  1.
     999901    1    3    3    0    0 -0.40170345741E-01  0.88726672153E-01  0.10839216747E+00  0.89198371117E+00  0.88000000000E+00 0. -1.
        -11    1    4    4    0    0  0.33158857393E-01 -0.54021669482E-01 -0.55431806014E-01  0.84206869293E-01  0.51100000000E-03 0.  1.
         11    1    4    4    0    0  0.13655115342E-01 -0.18335393290E-01 -0.39054525366E-01  0.45256666853E-01  0.51100000000E-03 0. -1.
</event>
<event>
 8    1  0.1183092E+005  0.1043930E+01  0.7957747E-01            NaN
         13   -1    0    0    0    0  0.00000000000E+00  0.00000000000E+00  0.74505805969E-08  0.10566000000E+00  0.10566000000E+00 0.  1.
     999900   -1    0    0    0    0 -0.00000000000E+00 -0.00000000000E+00 -0.74505805969E-08  0.93827000000E+00  0.93827000000E+00 0. -1.
     999902    2    1    2    0    0 -0.97459593145E-03 -0.19150479747E-01 -0.13704389893E-01  0.10203609310E+01  0.10200886866E+01 0.  0.
     999903    2    3    3    0    0  0.20796350731E-01  0.12384743129E+00 -0.18902775915E-01  0.12853729377E+00  0.19845566550E-01 0.  0.
         14    1    1    2    0    0  0.97459593145E-03  0.19150479747E-01  0.13704389893E-01  0.23569069013E-01  0.00000000000E+00 0.  1.
     999901    1    3    3    0    0 -0.21770946663E-01 -0.14299791104E+00  0.51983860216E-02  0.89182363722E+00  0.88000000000E+00 0.  1.
        -11    1    4    4    0    0  0.22294179956E-01  0.92035171551E-01 -0.19477105675E-01  0.96680515249E-01  0.51100000000E-03 0.  1.
         11    1    4    4    0    0 -0.14978292250E-02  0.31812259740E-01  0.57432976046E-03  0.31856778522E-01  0.51100000000E-03 0. -1.
</event>
<event>
 8    1  0.1183092E+005  0.1043930E+01  0.7957747E-01            NaN
         13   -1    0    0    0    0  0.00000000000E+00  0.00000000000E+00  0.74505805969E-08  0.10566000000E+00  0.10566000000E+00 0. -1.
     999900   -1    0    0    0    0 -0.00000000000E+00 -0.00000000000E+00 -0.74505805969E-08  0.93827000000E+00  0.93827000000E+00 0.  1.
     999902    2    1    2    0    0  0.19574547390E-01 -0.10678942762E-01  0.26077043729E-02  0.10214799923E+01  0.10212332602E+01 0.  0.
     999903    2    3    3    0    0 -0.11309222460E-01  0.31361721575E-01  0.12547618117E+00  0.13141376594E+00  0.20343297328E-01 0.  0.
         14    1    1    2    0    0 -0.19574547390E-01  0.10678942762E-01 -0.26077043729E-02  0.22450007709E-01  0.00000000000E+00 0.  1.
     999901    1    3    3    0    0  0.30883769850E-01 -0.42040664337E-01 -0.12286847679E+00  0.89006622635E+00  0.88000000000E+00 0.  1.
        -11    1    4    4    0    0  0.18739059145E-02  0.69298575605E-02  0.58046761663E-01  0.58491213954E-01  0.51100000000E-03 0. -1.
         11    1    4    4    0    0 -0.13183128374E-01  0.24431864015E-01  0.67429419503E-01  0.72922551988E-01  0.51100000000E-03 0.  1.
</event>
<event>
 8    1  0.1183092E+005  0.1043930E+01  0.7957747E-01            NaN
         13   -1    0    0    0    0  0.00000000000E+00  0.00000000000E+00  0.74505805969E-08  0.10566000000E+00  0.10566000000E+00 0.  1.
     999900   -1    0    0    0    0 -0.00000000000E+00 -0.00000000000E+00 -0.74505805969E-08  0.93827000000E+00  0.93827000000E+00 0.  1.
     999902    2    1    2    0    0  0.11088331990E-02  0.23100203714E-01 -0.69013139092E-02  0.10197954385E+01  0.10195098133E+01 0.  0.
     999903    2    3    3    0    0 -0.21642041056E-01  0.12647624347E+00 -0.30907806715E-01  0.13312722576E+00  0.17405390544E-01 0.  0.
         14    1    1    2    0    0 -0.11088331990E-02 -0.23100203714E-01  0.69013139092E-02  0.24134561450E-01  0.00000000000E+00 0. -1.
     999901    1    3    3    0    0  0.22750874255E-01 -0.10337603975E+00  0.24006492805E-01  0.88666821279E+00  0.88000000000E+00 0.  1.
        -11    1    4    4    0    0 -0.15519951700E-01  0.72640943394E-01 -0.26082008014E-01  0.78728062474E-01  0.51100000000E-03 0. -1.
         11    1    4    4    0    0 -0.61220893560E-02  0.53835300074E-01 -0.48257987006E-02  0.54399163286E-01  0.51100000000E-03 0.  1.
</event>
<event>
 8    1  0.1183092E+005  0.1043930E+01  0.7957747E-01            NaN
         13   -1    0    0    0    0  0.00000000000E+00  0.00000000000E+00  0.74505805969E-08  0.10566000000E+00  0.10566000000E+00 0.  1.
     999900   -1    0    0    0    0 -0.00000000000E+00 -0.00000000000E+00 -0.74505805969E-08  0.93827000000E+00  0.93827000000E+00 0. -1.
     999902    2    1    2    0    0  0.89819149783E-02 -0.29981879301E-01  0.24124888530E-03  0.10126307015E+01  0.10121468726E+01 0.  0.
     999903    2    3    3    0    0  0.44260301948E-01  0.17423168331E-01  0.11221006579E+00  0.12357006295E+00  0.20394128302E-01 0.  0.
         14    1    1    2    0    0 -0.89819149783E-02  0.29981879301E-01 -0.24124888530E-03  0.31299298461E-01  0.00000000000E+00 0. -1.
     999901    1    3    3    0    0 -0.35278386970E-01 -0.47405047633E-01 -0.11196881691E+00  0.88906063859E+00  0.88000000000E+00 0. -1.
        -11    1    4    4    0    0  0.13774842519E-01  0.51237474095E-02  0.60747120419E-01  0.62501782648E-01  0.51100000000E-03 0. -1.
         11    1    4    4    0    0  0.30485459429E-01  0.12299420922E-01  0.51462945373E-01  0.61068280302E-01  0.51100000000E-03 0.  1.
</event>
<event>
 8    1  0.1183092E+005  0.1043930E+01  0.7957747E-01            NaN
         13   -1    0    0    0    0  0.00000000000E+00  0.00000000000E+00  0.74505805969E-08  0.10566000000E+00  0.10566000000E+00 0. -1.
     999900   -1    0    0    0    0 -0.00000000000E+00 -0.00000000000E+00 -0.74505805969E-08  0.93827000000E+00  0.93827000000E+00 0. -1.
     999902    2    1    2    0    0 -0.39355200645E-02 -0.23342792892E-01  0.32887123594E-03  0.10202554894E+01  0.10199807749E+01 0.  0.
     999903    2    3    3    0    0  0.49934244156E-01  0.94872925221E-01 -0.67310563810E-01  0.12815011403E+00  0.19935873331E-01 0.  0.
         14    1    1    2    0    0  0.39355200645E-02  0.23342792892E-01 -0.32887123594E-03  0.23674510649E-01  0.00000000000E+00 0. -1.
     999901    1    3    3    0    0 -0.53869764221E-01 -0.11821571811E+00  0.67639435046E-01  0.89210537532E+00  0.88000000000E+00 0.  1.
        -11    1    4    4    0    0  0.49146879426E-01  0.84668905408E-01 -0.55591773713E-01  0.11258306145E+00  0.51100000000E-03 0. -1.
         11    1    4    4    0    0  0.78736473016E-03  0.10204019813E-01 -0.11718790098E-01  0.15567052576E-01  0.51100000000E-03 0.  1.
</event>
<event>
 8    1  0.1183092E+005  0.1043930E+01  0.7957747E-01            NaN
         13   -1    0    0    0    0  0.00000000000E+00  0.00000000000E+00  0.74505805969E-08  0.10566000000E+00  0.10566000000E+00 0.  1.
     999900   -1    0    0    0    0 -0.00000000000E+00 -0.00000000000E+00 -0.74505805969E-08  0.93827000000E+00  0.93827000000E+00 0.  1.
     999902    2    1    2    0    0 -0.11725658358E-01  0.14091392774E-01 -0.19555569266E-01  0.10171255469E+01  0.10167722948E+01 0.  0.
     999903    2    3    3    0    0  0.73235235317E-01  0.86447245284E-01  0.53736155241E-01  0.12705510045E+00  0.20467004192E-01 0.  0.
         14    1    1    2    0    0  0.11725658358E-01 -0.14091392774E-01  0.19555569266E-01  0.26804453055E-01  0.00000000000E+00 0.  1.
     999901    1    3    3    0    0 -0.84960893675E-01 -0.72355852510E-01 -0.73291724508E-01  0.89007044650E+00  0.88000000000E+00 0.  1.
        -11    1    4    4    0    0  0.29338445115E-01  0.20292669633E-01  0.14764523195E-01  0.38610737739E-01  0.51100000000E-03 0. -1.
         11    1    4    4    0    0  0.43896790203E-01  0.66154575651E-01  0.38971632046E-01  0.88444362709E-01  0.51100000000E-03 0.  1.
</event>
<event>
 8    1  0.1183092E+005  0.1043930E+01  0.7957747E-01            NaN
         13   -1    0    0    0    0  0.00000000000E+00  0.00000000000E+00  0.74505805969E-08  0.10566000000E+00  0.10566000000E+00 0.  1.
     999900   -1    0    0    0    0 -0.00000000000E+00 -0.00000000000E+00 -0.74505805969E-08  0.93827000000E+00  0.93827000000E+00 0. -1.
     999902    2    1    2    0    0 -0.18494784428E-01  0.70284283342E-02 -0.12579120342E-01  0.10204845287E+01  0.10202151651E+01 0.  0.
     999903    2    3    3    0    0 -0.93110690827E-01  0.83209364996E-01 -0.41821044314E-01  0.13356505168E+00  0.22298522678E-01 0.  0.
         14    1    1    2    0    0  0.18494784428E-01 -0.70284283342E-02  0.12579120342E-01  0.23445471300E-01  0.00000000000E+00 0.  1.
     999901    1    3    3    0    0  0.74615906399E-01 -0.76180936662E-01  0.29241923972E-01  0.88691947702E+00  0.88000000000E+00 0.  1.
        -11    1    4    4    0    0 -0.48970713325E-01  0.52117463911E-01 -0.14184814417E-01  0.72909744816E-01  0.51100000000E-03 0.  1.
         11    1    4    4    0    0 -0.44139977502E-01  0.31091901086E-01 -0.27636229897E-01  0.60655306865E-01  0.51100000000E-03 0. -1.
</event>
<event>
 8    1  0.1183092E+005  0.1043930E+01  0.7957747E-01            NaN
         13   -1    0    0    0    0  0.00000000000E+00  0.00000000000E+00  0.74505805969E-08  0.10566000000E+00  0.10566000000E+00 0.  1.
     999900   -1    0    0    0    0 -0.00000000000E+00 -0.00000000000E+00 -0.74505805969E-08  0.93827000000E+00  0.93827000000E+00 0. -1.
     999902    2    1    2    0    0 -0.58359773767E-02  0.19281759305E-01 -0.13327467404E-01  0.10197749537E+01  0.10194888376E+01 0.  0.
     999903    2    3    3    0    0  0.99916903413E-01 -0.75784960315E-01 -0.18666308179E-01  0.12834360122E+00  0.19922377281E-01 0.  0.
         14    1    1    2    0    0  0.58359773767E-02 -0.19281759305E-01  0.13327467404E-01  0.24155046289E-01  0.00000000000E+00 0.  1.
     999901    1    3    3    0    0 -0.10575288079E+00  0.95066719620E-01  0.53388407744E-02  0.89143135249E+00  0.88000000000E+00 0. -1.
        -11    1    4    4    0    0  0.22301428993E-01 -0.22298371143E-01 -0.12343445696E-01  0.33870235657E-01  0.51100000000E-03 0.  1.
         11    1    4    4    0    0  0.77615474420E-01 -0.53486589172E-01 -0.63228624826E-02  0.94473365568E-01  0.51100000000E-03 0. -1.
</event>
<event>
 8    1  0.1183092E+005  0.1043930E+01  0.7957747E-01            NaN
         13   -1    0    0    0    0  0.00000000000E+00  0.00000000000E+00  0.74505805969E-08  0.10566000000E+00  0.10566000000E+00 0.  1.
     999900   -1    0    0    0    0 -0.00000000000E+00 -0.00000000000E+00 -0.74505805969E-08  0.93827000000E+00  0.93827000000E+00 0.  1.
     999902    2    1    2    0    0  0.13722148314E-01 -0.45234039733E-02  0.19524892318E-01  0.10196404970E+01  0.10193511481E+01 0.  0.
     999903    2    3    3    0    0 -0.77612327344E-01  0.99121746430E-01  0.18972587682E-01  0.12886296655E+00  0.19922627677E-01 0.  0.
         14    1    1    2    0    0 -0.13722148314E-01  0.45234039733E-02 -0.19524892318E-01  0.24289503039E-01  0.00000000000E+00 0. -1.
     999901    1    3    3    0    0  0.91334475657E-01 -0.10364515040E+00  0.55230463670E-03  0.89077753041E+00  0.88000000000E+00 0.  1.
        -11    1    4    4    0    0 -0.44382636418E-01  0.68881437461E-01  0.63407603482E-02  0.82188425005E-01  0.51100000000E-03 0. -1.
         11    1    4    4    0    0 -0.33229690926E-01  0.30240308969E-01  0.12631827333E-01  0.46674541544E-01  0.51100000000E-03 0.  1.
</event>
<event>
 8    1  0.1183092E+005  0.1043930E+01  0.7957747E-01            NaN
         13   -1    0    0    0    0  0.00000000000E+00  0.00000000000E+00  0.74505805969E-08  0.10566000000E+00  0.10566000000E+00 0. -1.
     999900   -1    0    0    0    0 -0.00000000000E+00 -0.00000000000E+00 -0.74505805969E-08  0.93827000000E+00  0.93827000000E+00 0.  1.
     999902    2    1    2    0    0  0.45884468037E-02 -0.11619398681E-02  0.23317800080E-01  0.10201366449E+01  0.10198591326E+01 0.  0.
     999903    2    3    3    0    0  0.42612025456E-01  0.10265153829E+00 -0.62646933040E-01  0.12906259287E+00  0.19477978151E-01 0.  0.
         14    1    1    2    0    0 -0.45884468037E-02  0.11619398681E-02 -0.23317800080E-01  0.23793355142E-01  0.00000000000E+00 0.  1.
     999901    1    3    3    0    0 -0.38023578652E-01 -0.10381347816E+00  0.85964733120E-01  0.89107405199E+00  0.88000000000E+00 0. -1.
        -11    1    4    4    0    0  0.20103272499E-01  0.31962787228E-01 -0.13643848055E-01  0.40151924528E-01  0.51100000000E-03 0. -1.
         11    1    4    4    0    0  0.22508752957E-01  0.70688751063E-01 -0.49003084985E-01  0.88910668345E-01  0.51100000000E-03 0.  1.
</event>
<event>
 8    1  0.1183092E+005  0.1043930E+01  0.7957747E-01            NaN
         13   -1    0    0    0    0  0.00000000000E+00  0.00000000000E+00  0.74505805969E-08  0.10566000000E+00  0.10566000000E+00 0.  1.
     999900   -1    0    0    0    0 -0.00000000000E+00 -0.00000000000E+00 -0.74505805969E-08  0.93827000000E+00  0.93827000000E+00 0. -1.
     999902    2    1    2    0    0 -0.10936769816E-01 -0.20198476018E-01  0.32871684109E-02  0.10207266200E+01  0.10204628538E+01 0.  0.
     999903    2    3    3    0    0  0.11499790613E+00  0.27027007090E-01  0.48853163799E-01  0.12934227596E+00  0.19693024381E-01 0.  0.
         14    1    1    2    0    0  0.10936769816E-01  0.20198476018E-01 -0.32871684109E-02  0.23203380004E-01  0.00000000000E+00 0.  1.
     999901    1    3    3    0    0 -0.12593467595E+00 -0.47225483108E-01 -0.45565995388E-01  0.89138434404E+00  0.88000000000E+00 0. -1.
        -11    1    4    4    0    0  0.16044426090E-01  0.53222865294E-02  0.14775226214E-01  0.22457042840E-01  0.51100000000E-03 0. -1.
         11    1    4    4    0    0  0.98953480044E-01  0.21704720560E-01  0.34077937585E-01  0.10688523312E+00  0.51100000000E-03 0.  1.
</event>
<event>
 8    1  0.1183092E+005  0.1043930E+01  0.7957747E-01            NaN
         13   -1    0    0    0    0  0.00000000000E+00  0.00000000000E+00  0.74505805969E-08  0.10566000000E+00  0.10566000000E+00 0.  1.
     999900   -1    0    0    0    0 -0.00000000000E+00 -0.00000000000E+00 -0.74505805969E-08  0.93827000000E+00  0.93827000000E+00 0. -1.
     999902    2    1    2    0    0  0.37647382792E-02 -0.15962622575E-01 -0.17109731787E-01  0.10202293355E+01  0.10199540066E+01 0.  0.
     999903    2    3    3    0    0 -0.41973660044E-01 -0.32192699142E-01  0.11591185706E+00  0.12890999907E+00  0.19597735567E-01 0.  0.
         14    1    1    2    0    0 -0.37647382792E-02  0.15962622575E-01  0.17109731787E-01  0.23700664455E-01  0.00000000000E+00 0.  1.
     999901    1    3    3    0    0  0.45738398323E-01  0.16230076567E-01 -0.13302158884E+00  0.89131933647E+00  0.88000000000E+00 0.  1.
        -11    1    4    4    0    0 -0.18571368328E-01 -0.20888344681E-01  0.41060515267E-01  0.49673390262E-01  0.51100000000E-03 0. -1.
         11    1    4    4    0    0 -0.23402291717E-01 -0.11304354461E-01  0.74851341790E-01  0.79236608813E-01  0.51100000000E-03 0.  1.
</event>
<event>
 8    1  0.1183092E+005  0.1043930E+01  0.7957747E-01            NaN
         13   -1    0    0    0    0  0.00000000000E+00  0.00000000000E+00  0.74505805969E-08  0.10566000000E+00  0.10566000000E+00 0.  1.
     999900   -1    0    0    0    0 -0.00000000000E+00 -0.00000000000E+00 -0.74505805969E-08  0.93827000000E+00  0.93827000000E+00 0. -1.
     999902    2    1    2    0    0 -0.21682253045E-02  0.19383603916E-01 -0.10463595146E-01  0.10217960414E+01  0.10215562824E+01 0.  0.
     999903    2    3    3    0    0  0.67702006515E-01  0.20970838105E-01 -0.11134804492E+00  0.13327927685E+00  0.18483527623E-01 0.  0.
         14    1    1    2    0    0  0.21682253045E-02 -0.19383603916E-01  0.10463595146E-01  0.22133958641E-01  0.00000000000E+00 0.  1.
     999901    1    3    3    0    0 -0.69870231820E-01 -0.15872341890E-02  0.10088444977E+00  0.88851676451E+00  0.88000000000E+00 0.  1.
        -11    1    4    4    0    0  0.16203938374E-01 -0.14646469743E-03 -0.37064595994E-01  0.40455339177E-01  0.51100000000E-03 0. -1.
         11    1    4    4    0    0  0.51498068141E-01  0.21117302803E-01 -0.74283448925E-01  0.92823937673E-01  0.51100000000E-03 0.  1.
</event>
<event>
 8    1  0.1183092E+005  0.1043930E+01  0.7957747E-01            NaN
         13   -1    0    0    0    0  0.00000000000E+00  0.00000000000E+00  0.74505805969E-08  0.10566000000E+00  0.10566000000E+00 0.  1.
     999900   -1    0    0    0    0 -0.00000000000E+00 -0.00000000000E+00 -0.74505805969E-08  0.93827000000E+00  0.93827000000E+00 0.  1.
     999902    2    1    2    0    0  0.28779929289E-02 -0.20002784146E-01 -0.13206997218E-01  0.10197883556E+01  0.10195025607E+01 0.  0.
     999903    2    3    3    0    0  0.58927417958E-01 -0.95559049488E-02  0.11263947531E+00  0.12900891606E+00  0.19796290527E-01 0.  0.
         14    1    1    2    0    0 -0.28779929289E-02  0.20002784146E-01  0.13206997218E-01  0.24141644360E-01  0.00000000000E+00 0.  1.
     999901    1    3    3    0    0 -0.56049425029E-01 -0.10446879197E-01 -0.12584647253E+00  0.89077943958E+00  0.88000000000E+00 0.  1.
        -11    1    4    4    0    0  0.48957145467E-01 -0.11682522595E-01  0.77451296731E-01  0.92370167873E-01  0.51100000000E-03 0.  1.
         11    1    4    4    0    0  0.99702724911E-02  0.21266176464E-02  0.35188178577E-01  0.36638748187E-01  0.51100000000E-03 0. -1.
</event>
<event>
 8    1  0.1183092E+005  0.1043930E+01  0.7957747E-01            NaN
         13   -1    0    0    0    0  0.00000000000E+00  0.00000000000E+00  0.74505805969E-08  0.10566000000E+00  0.10566000000E+00 0.  1.
     999900   -1    0    0    0    0 -0.00000000000E+00 -0.00000000000E+00 -0.74505805969E-08  0.93827000000E+00  0.93827000000E+00 0. -1.
     999902    2    1    2    0    0 -0.57763148110E-02  0.17391940022E-01 -0.13495404262E-01  0.10211710166E+01  0.10209173687E+01 0.  0.
     999903    2    3    3    0    0  0.25896980571E-01 -0.90231420211E-01 -0.88765504648E-01  0.13086119784E+00  0.20808063100E-01 0.  0.
         14    1    1    2    0    0  0.57763148110E-02 -0.17391940022E-01  0.13495404262E-01  0.22758983429E-01  0.00000000000E+00 0.  1.
     999901    1    3    3    0    0 -0.31673295382E-01  0.10762336023E+00  0.75270100386E-01  0.89030981873E+00  0.88000000000E+00 0.  1.
        -11    1    4    4    0    0  0.94514214597E-02 -0.29074909795E-01 -0.42831592580E-01  0.52625907984E-01  0.51100000000E-03 0. -1.
         11    1    4    4    0    0  0.16445559112E-01 -0.61156510416E-01 -0.45933912068E-01  0.78235289861E-01  0.51100000000E-03 0.  1.
</event>
<event>
 8    1  0.1183092E+005  0.1043930E+01  0.7957747E-01            NaN
         13   -1    0    0    0    0  0.00000000000E+00  0.00000000000E+00  0.74505805969E-08  0.10566000000E+00  0.10566000000E+00 0. -1.
     999900   -1    0    0    0    0 -0.00000000000E+00 -0.00000000000E+00 -0.74505805969E-08  0.93827000000E+00  0.93827000000E+00 0. -1.
     999902    2    1    2    0    0 -0.62937811468E-02  0.48646433600E-02  0.21972846042E-01  0.10205615940E+01  0.10202940188E+01 0.  0.
     999903    2    3    3    0    0 -0.12655508599E+00 -0.15958557893E-01  0.28261471834E-01  0.13211579713E+00  0.19621613073E-01 0.  0.
         14    1    1    2    0    0  0.62937811468E-02 -0.48646433600E-02 -0.21972846042E-01  0.23368406008E-01  0.00000000000E+00 0.  1.
     999901    1    3    3    0    0  0.12026130485E+00  0.20823201253E-01 -0.62886257918E-02  0.88844579687E+00  0.88000000000E+00 0.  1.
        -11    1    4    4    0    0 -0.54037913790E-01 -0.30217035842E-02  0.21146785266E-01  0.58109159926E-01  0.51100000000E-03 0. -1.
         11    1    4    4    0    0 -0.72517172203E-01 -0.12936854309E-01  0.71146865684E-02  0.74006637200E-01  0.51100000000E-03 0.  1.
</event>
<event>
 8    1  0.1183092E+005  0.1043930E+01  0.7957747E-01            NaN
         13   -1    0    0    0    0  0.00000000000E+00  0.00000000000E+00  0.74505805969E-08  0.10566000000E+00  0.10566000000E+00 0.  1.
     999900   -1    0    0    0    0 -0.00000000000E+00 -0.00000000000E+00 -0.74505805969E-08  0.93827000000E+00  0.93827000000E+00 0.  1.
     999902    2    1    2    0    0 -0.53305176266E-02 -0.21776051907E-01  0.25975111004E-02  0.10213610408E+01  0.10211116578E+01 0.  0.
     999903    2    3    3    0    0  0.66403785699E-01 -0.10613959872E+00  0.41937091959E-01  0.13354877410E+00  0.20036921172E-01 0.  0.
         14    1    1    2    0    0  0.53305176266E-02  0.21776051907E-01 -0.25975111004E-02  0.22568959186E-01  0.00000000000E+00 0.  1.
     999901    1    3    3    0    0 -0.71734303325E-01  0.84363546813E-01 -0.39339580859E-01  0.88781226671E+00  0.88000000000E+00 0.  1.
        -11    1    4    4    0    0  0.50043302974E-01 -0.63855132860E-01  0.31429735417E-01  0.87005169700E-01  0.51100000000E-03 0. -1.
         11    1    4    4    0    0  0.16360482725E-01 -0.42284465861E-01  0.10507356542E-01  0.46543604401E-01  0.51100000000E-03 0.  1.
</event>
<event>
 8    1  0.1183092E+005  0.1043930E+01  0.7957747E-01            NaN
         13   -1    0    0    0    0  0.00000000000E+00  0.00000000000E+00  0.74505805969E-08  0.10566000000E+00  0.10566000000E+00 0. -1.
     999900   -1    0    0    0    0 -0.00000000000E+00 -0.00000000000E+00 -0.74505805969E-08  0.93827000000E+00  0.93827000000E+00 0.  1.
     999902    2    1    2    0    0  0.10219340678E-01 -0.18717422768E-01  0.11320014516E-01  0.10197862727E+01  0.10195004279E+01 0.  0.
     999903    2    3    3    0    0  0.10531164440E+00 -0.76462214219E-01  0.16646121427E-01  0.13276576867E+00  0.20313624035E-01 0.  0.
         14    1    1    2    0    0 -0.10219340678E-01  0.18717422768E-01 -0.11320014516E-01  0.24143727293E-01  0.00000000000E+00 0.  1.
     999901    1    3    3    0    0 -0.95092303727E-01  0.57744791451E-01 -0.53261069115E-02  0.88702050404E+00  0.88000000000E+00 0. -1.
        -11    1    4    4    0    0  0.22285129655E-01 -0.26643713107E-01  0.15924104225E-02  0.34775154116E-01  0.51100000000E-03 0.  1.
         11    1    4    4    0    0  0.83026514750E-01 -0.49818501112E-01  0.15053711005E-01  0.97990614553E-01  0.51100000000E-03 0. -1.
</event>
<event>
 8    1  0.1183092E+005  0.1043930E+01  0.7957747E-01            NaN
         13   -1    0    0    0    0  0.00000000000E+00  0.00000000000E+00  0.74505805969E-08  0.10566000000E+00  0.10566000000E+00 0. -1.
     999900   -1    0    0    0    0 -0.00000000000E+00 -0.00000000000E+00 -0.74505805969E-08  0.93827000000E+00  0.93827000000E+00 0.  1.
     999902    2    1    2    0    0 -0.11249384178E-01 -0.17468787316E-01  0.57170365444E-02  0.10223802510E+01  0.10221531128E+01 0.  0.
     999903    2    3    3    0    0  0.21083391659E-01  0.10884737192E+00 -0.64947945724E-01  0.12997074849E+00  0.19542262694E-01 0.  0.
         14    1    1    2    0    0  0.11249384178E-01  0.17468787316E-01 -0.57170365444E-02  0.21549748989E-01  0.00000000000E+00 0. -1.
     999901    1    3    3    0    0 -0.32332775836E-01 -0.12631615923E+00  0.70664982269E-01  0.89240950252E+00  0.88000000000E+00 0. -1.
        -11    1    4    4    0    0  0.57364095716E-02  0.71480980663E-01 -0.35780468354E-01  0.80143246927E-01  0.51100000000E-03 0.  1.
         11    1    4    4    0    0  0.15346982087E-01  0.37366391254E-01 -0.29167477370E-01  0.49827501560E-01  0.51100000000E-03 0. -1.
</event>
<event>
 8    1  0.1183092E+005  0.1043930E+01  0.7957747E-01            NaN
         13   -1    0    0    0    0  0.00000000000E+00  0.00000000000E+00  0.74505805969E-08  0.10566000000E+00  0.10566000000E+00 0.  1.
     999900   -1    0    0    0    0 -0.00000000000E+00 -0.00000000000E+00 -0.74505805969E-08  0.93827000000E+00  0.93827000000E+00 0.  1.
     999902    2    1    2    0    0 -0.19005959527E-01  0.58632032954E-02 -0.14960454858E-01  0.10190418731E+01  0.10187379056E+01 0.  0.
     999903    2    3    3    0    0  0.54147351358E-01 -0.10044945547E+00 -0.55996388507E-01  0.12868366646E+00  0.20046489071E-01 0.  0.
         14    1    1    2    0    0  0.19005959527E-01 -0.58632032954E-02  0.14960454858E-01  0.24888126887E-01  0.00000000000E+00 0.  1.
     999901    1    3    3    0    0 -0.73153310885E-01  0.10631265876E+00  0.41035933649E-01  0.89035820665E+00  0.88000000000E+00 0.  1.
        -11    1    4    4    0    0  0.48422962230E-01 -0.86427161707E-01 -0.55423341687E-01  0.11351848077E+00  0.51100000000E-03 0. -1.
         11    1    4    4    0    0  0.57243891280E-02 -0.14022293762E-01 -0.57304681930E-03  0.15165185686E-01  0.51100000000E-03 0.  1.
</event>
<event>
 8    1  0.1183092E+005  0.1043930E+01  0.7957747E-01            NaN
         13   -1    0    0    0    0  0.00000000000E+00  0.00000000000E+00  0.74505805969E-08  0.10566000000E+00  0.10566000000E+00 0.  1.
     999900   -1    0    0    0    0 -0.00000000000E+00 -0.00000000000E+00 -0.74505805969E-08  0.93827000000E+00  0.93827000000E+00 0. -1.
     999902    2    1    2    0    0 -0.12052983600E-02 -0.90908705274E-02  0.20622862993E-01  0.10213601274E+01  0.10211107240E+01 0.  0.
     999903    2    3    3    0    0 -0.34075496199E-01 -0.88065388711E-01  0.93162991195E-01  0.13424147997E+00  0.20610188867E-01 0.  0.
         14    1    1    2    0    0  0.12052983600E-02  0.90908705274E-02 -0.20622862993E-01  0.22569872598E-01  0.00000000000E+00 0.  1.
     999901    1    3    3    0    0  0.32870197839E-01  0.78974518184E-01 -0.72540128202E-01  0.88711864744E+00  0.88000000000E+00 0.  1.
        -11    1    4    4    0    0 -0.33684505812E-02 -0.35163758836E-01  0.37780699465E-01  0.51725030381E-01  0.51100000000E-03 0. -1.
         11    1    4    4    0    0 -0.30707045618E-01 -0.52901629875E-01  0.55382291729E-01  0.82516449585E-01  0.51100000000E-03 0.  1.
</event>
<event>
 8    1  0.1183092E+005  0.1043930E+01  0.7957747E-01            NaN
         13   -1    0    0    0    0  0.00000000000E+00  0.00000000000E+00  0.74505805969E-08  0.10566000000E+00  0.10566000000E+00 0. -1.
     999900   -1    0    0    0    0 -0.00000000000E+00 -0.00000000000E+00 -0.74505805969E-08  0.93827000000E+00  0.93827000000E+00 0.  1.
     999902    2    1    2    0    0 -0.96112687334E-02 -0.12913631120E-01 -0.22998935175E-02  0.10276687619E+01  0.10275400996E+01 0.  0.
     999903    2    3    3    0    0  0.10325494864E+00 -0.87501278491E-01  0.69592837626E-02  0.13728242295E+00  0.21908305835E-01 0.  0.
         14    1    1    2    0    0  0.96112687334E-02  0.12913631120E-01  0.22998935175E-02  0.16261238132E-01  0.00000000000E+00 0. -1.
     999901    1    3    3    0    0 -0.11286621738E+00  0.74587647371E-01 -0.92591772800E-02  0.89038633892E+00  0.88000000000E+00 0.  1.
        -11    1    4    4    0    0  0.87256438112E-01 -0.65778778881E-01 -0.54526377399E-03  0.10927530451E+00  0.51100000000E-03 0.  1.
         11    1    4    4    0    0  0.15998510530E-01 -0.21722499610E-01  0.75045475366E-02  0.28007118438E-01  0.51100000000E-03 0. -1.
</event>
<event>
 8    1  0.1183092E+005  0.1043930E+01  0.7957747E-01            NaN
         13   -1    0    0    0    0  0.00000000000E+00  0.00000000000E+00  0.74505805969E-08  0.10566000000E+00  0.10566000000E+00 0. -1.
     999900   -1    0    0    0    0 -0.00000000000E+00 -0.00000000000E+00 -0.74505805969E-08  0.93827000000E+00  0.93827000000E+00 0. -1.
     999902    2    1    2    0    0  0.13165520722E-01 -0.11459114257E-01 -0.15379992834E-01  0.10206665863E+01  0.10204014377E+01 0.  0.
     999903    2    3    3    0    0  0.63188480481E-01 -0.11445944280E+00  0.11129845301E-01  0.13285234017E+00  0.20787561685E-01 0.  0.
         14    1    1    2    0    0 -0.13165520722E-01  0.11459114257E-01  0.15379992834E-01  0.23263413658E-01  0.00000000000E+00 0. -1.
     999901    1    3    3    0    0 -0.50022959759E-01  0.10300032854E+00 -0.26509838135E-01  0.88781424617E+00  0.88000000000E+00 0.  1.
        -11    1    4    4    0    0  0.53838268775E-01 -0.78243083741E-01  0.79413180792E-02  0.95309312199E-01  0.51100000000E-03 0. -1.
         11    1    4    4    0    0  0.93502117064E-02 -0.36216359060E-01  0.31885272217E-02  0.37543027973E-01  0.51100000000E-03 0.  1.
</event>
<event>
 8    1  0.1183092E+005  0.1043930E+01  0.7957747E-01            NaN
         13   -1    0    0    0    0  0.00000000000E+00  0.00000000000E+00  0.74505805969E-08  0.10566000000E+00  0.10566000000E+00 0. -1.
     999900   -1    0    0    0    0 -0.00000000000E+00 -0.00000000000E+00 -0.74505805969E-08  0.93827000000E+00  0.93827000000E+00 0. -1.
     999902    2    1    2    0    0  0.21928012861E-01  0.91961979754E-02 -0.16072788104E-02  0.10200974351E+01  0.10198189966E+01 0.  0.
     999903    2    3    3    0    0 -0.15725849765E-01 -0.58421515585E-02  0.12593853018E+00  0.12997839882E+00  0.27430597731E-01 0.  0.
         14    1    1    2    0    0 -0.21928012861E-01 -0.91961979754E-02  0.16072788104E-02  0.23832564915E-01  0.00000000000E+00 0. -1.
     999901    1    3    3    0    0  0.37653862626E-01  0.15038349534E-01 -0.12754580899E+00  0.89011903626E+00  0.88000000000E+00 0. -1.
        -11    1    4    4    0    0 -0.56815203237E-02 -0.15931770870E-01  0.52137767497E-01  0.54815225228E-01  0.51100000000E-03 0.  1.
         11    1    4    4    0    0 -0.10044329441E-01  0.10089619311E-01  0.73800762679E-01  0.75163173594E-01  0.51100000000E-03 0. -1.
</event>
<event>
 8    1  0.1183092E+005  0.1043930E+01  0.7957747E-01            NaN
         13   -1    0    0    0    0  0.00000000000E+00  0.00000000000E+00  0.74505805969E-08  0.10566000000E+00  0.10566000000E+00 0. -1.
     999900   -1    0    0    0    0 -0.00000000000E+00 -0.00000000000E+00 -0.74505805969E-08  0.93827000000E+00  0.93827000000E+00 0. -1.
     999902    2    1    2    0    0  0.21745745414E-01  0.53448476329E-02 -0.55747562019E-02  0.10208535456E+01  0.10205926900E+01 0.  0.
     999903    2    3    3    0    0 -0.72219199437E-01  0.75904795468E-01  0.73497667350E-01  0.12952837193E+00  0.19963498838E-01 0.  0.
         14    1    1    2    0    0 -0.21745745414E-01 -0.53448476329E-02  0.55747562019E-02  0.23076454376E-01  0.00000000000E+00 0. -1.
     999901    1    3    3    0    0  0.93964944851E-01 -0.70559947835E-01 -0.79072423552E-01  0.89132517370E+00  0.88000000000E+00 0. -1.
        -11    1    4    4    0    0 -0.46228034956E-01  0.53188639562E-01  0.59664210785E-01  0.92337109354E-01  0.51100000000E-03 0. -1.
         11    1    4    4    0    0 -0.25991164481E-01  0.22716155906E-01  0.13833456566E-01  0.37191262573E-01  0.51100000000E-03 0.  1.
</event>
<event>
 8    1  0.1183092E+005  0.1043930E+01  0.7957747E-01            NaN
         13   -1    0    0    0    0  0.00000000000E+00  0.00000000000E+00  0.74505805969E-08  0.10566000000E+00  0.10566000000E+00 0.  1.
     999900   -1    0    0    0    0 -0.00000000000E+00 -0.00000000000E+00 -0.74505805969E-08  0.93827000000E+00  0.93827000000E+00 0.  1.
     999902    2    1    2    0    0  0.29621371851E-02  0.15777955032E-01 -0.17124734817E-01  0.10204571505E+01  0.10201871501E+01 0.  0.
     999903    2    3    3    0    0  0.65077069977E-01  0.11221329755E-01 -0.11405074407E+00  0.13294733140E+00  0.17506496638E-01 0.  0.
         14    1    1    2    0    0 -0.29621371851E-02 -0.15777955032E-01  0.17124734817E-01  0.23472849513E-01  0.00000000000E+00 0.  1.
     999901    1    3    3    0    0 -0.62114932792E-01  0.45566252769E-02  0.96926009253E-01  0.88750981909E+00  0.88000000000E+00 0.  1.
        -11    1    4    4    0    0  0.56887576696E-01  0.34612696073E-02 -0.96613983861E-01  0.11217263378E+00  0.51100000000E-03 0.  1.
         11    1    4    4    0    0  0.81894932804E-02  0.77600601479E-02 -0.17436760209E-01  0.20774697622E-01  0.51100000000E-03 0. -1.
</event>
<event>
 8    1  0.1183092E+005  0.1043930E+01  0.7957747E-01            NaN
         13   -1    0    0    0    0  0.00000000000E+00  0.00000000000E+00  0.74505805969E-08  0.10566000000E+00  0.10566000000E+00 0.  1.
     999900   -1    0    0    0    0 -0.00000000000E+00 -0.00000000000E+00 -0.74505805969E-08  0.93827000000E+00  0.93827000000E+00 0.  1.
     999902    2    1    2    0    0  0.16357727879E-01  0.12584254195E-01  0.11176366825E-01  0.10204598085E+01  0.10201898700E+01 0.  0.
     999903    2    3    3    0    0 -0.26866392373E-01  0.11718556493E+00  0.51339477134E-01  0.13230282110E+00  0.20347847387E-01 0.  0.
         14    1    1    2    0    0 -0.16357727879E-01 -0.12584254195E-01 -0.11176366825E-01  0.23470191529E-01  0.00000000000E+00 0.  1.
     999901    1    3    3    0    0  0.43224120252E-01 -0.10460131073E+00 -0.40163110309E-01  0.88815698737E+00  0.88000000000E+00 0. -1.
        -11    1    4    4    0    0 -0.62254143572E-02  0.71824394787E-01  0.30606366178E-01  0.78323114354E-01  0.51100000000E-03 0.  1.
         11    1    4    4    0    0 -0.20640978016E-01  0.45361170140E-01  0.20733110956E-01  0.53979706750E-01  0.51100000000E-03 0. -1.
</event>
<event>
 8    1  0.1183092E+005  0.1043930E+01  0.7957747E-01            NaN
         13   -1    0    0    0    0  0.00000000000E+00  0.00000000000E+00  0.74505805969E-08  0.10566000000E+00  0.10566000000E+00 0. -1.
     999900   -1    0    0    0    0 -0.00000000000E+00 -0.00000000000E+00 -0.74505805969E-08  0.93827000000E+00  0.93827000000E+00 0. -1.
     999902    2    1    2    0    0 -0.14013097077E-01  0.11470858497E-01 -0.14885492054E-01  0.10204880428E+01  0.10202187609E+01 0.  0.
     999903    2    3    3    0    0 -0.58114185807E-01  0.93847042128E-01  0.68854267695E-01  0.13158811084E+00  0.19748286645E-01 0.  0.
         14    1    1    2    0    0  0.14013097077E-01 -0.11470858497E-01  0.14885492054E-01  0.23441957214E-01  0.00000000000E+00 0.  1.
     999901    1    3    3    0    0  0.44101088730E-01 -0.82376183632E-01 -0.83739759749E-01  0.88889993195E+00  0.88000000000E+00 0. -1.
        -11    1    4    4    0    0 -0.11693199029E-01  0.35144807516E-01  0.18690235338E-01  0.41490654572E-01  0.51100000000E-03 0. -1.
         11    1    4    4    0    0 -0.46420986778E-01  0.58702234613E-01  0.50164032357E-01  0.90097456264E-01  0.51100000000E-03 0.  1.
</event>
<event>
 8    1  0.1183092E+005  0.1043930E+01  0.7957747E-01            NaN
         13   -1    0    0    0    0  0.00000000000E+00  0.00000000000E+00  0.74505805969E-08  0.10566000000E+00  0.10566000000E+00 0. -1.
     999900   -1    0    0    0    0 -0.00000000000E+00 -0.00000000000E+00 -0.74505805969E-08  0.93827000000E+00  0.93827000000E+00 0. -1.
     999902    2    1    2    0    0  0.30403640099E-02 -0.22097408257E-01 -0.11340210518E-01  0.10189072176E+01  0.10185999109E+01 0.  0.
     999903    2    3    3    0    0  0.38939616452E-01  0.10444823405E+00 -0.58797249033E-01  0.12786584570E+00  0.21606264763E-01 0.  0.
         14    1    1    2    0    0 -0.30403640099E-02  0.22097408257E-01  0.11340210518E-01  0.25022782411E-01  0.00000000000E+00 0. -1.
     999901    1    3    3    0    0 -0.35899252442E-01 -0.12654564231E+00  0.47457038515E-01  0.89104137189E+00  0.88000000000E+00 0. -1.
        -11    1    4    4    0    0  0.12998681415E-01  0.52438155879E-01 -0.18366627725E-01  0.57064174799E-01  0.51100000000E-03 0. -1.
         11    1    4    4    0    0  0.25940935037E-01  0.52010078172E-01 -0.40430621308E-01  0.70801670901E-01  0.51100000000E-03 0.  1.
</event>
<event>
 8    1  0.1183092E+005  0.1043930E+01  0.7957747E-01            NaN
         13   -1    0    0    0    0  0.00000000000E+00  0.00000000000E+00  0.74505805969E-08  0.10566000000E+00  0.10566000000E+00 0. -1.
     999900   -1    0    0    0    0 -0.00000000000E+00 -0.00000000000E+00 -0.74505805969E-08  0.93827000000E+00  0.93827000000E+00 0. -1.
     999902    2    1    2    0    0  0.26047447545E-02 -0.16778447648E-02 -0.19460875744E-01  0.10242240227E+01  0.10240344345E+01 0.  0.
     999903    2    3    3    0    0  0.94446214186E-01 -0.92424394611E-01  0.18191925364E-01  0.13400633847E+00  0.12821720136E-01 0.  0.
         14    1    1    2    0    0 -0.26047447545E-02  0.16778447648E-02  0.19460875744E-01  0.19705977342E-01  0.00000000000E+00 0. -1.
     999901    1    3    3    0    0 -0.91841469432E-01  0.90746549847E-01 -0.37652801108E-01  0.89021768419E+00  0.88000000000E+00 0.  1.
        -11    1    4    4    0    0  0.48746773051E-01 -0.52980803643E-01  0.15065819100E-01  0.73555784706E-01  0.51100000000E-03 0.  1.
         11    1    4    4    0    0  0.45699441135E-01 -0.39443590969E-01  0.31261062641E-02  0.60450553760E-01  0.51100000000E-03 0. -1.
</event>
<event>
 8    1  0.1183092E+005  0.1043930E+01  0.7957747E-01            NaN
         13   -1    0    0    0    0  0.00000000000E+00  0.00000000000E+00  0.74505805969E-08  0.10566000000E+00  0.10566000000E+00 0.  1.
     999900   -1    0    0    0    0 -0.00000000000E+00 -0.00000000000E+00 -0.74505805969E-08  0.93827000000E+00  0.93827000000E+00 0.  1.
     999902    2    1    2    0    0 -0.14849077454E-01  0.83502980363E-02  0.19146110182E-01  0.10183019663E+01  0.10179794194E+01 0.  0.
     999903    2    3    3    0    0 -0.70411929108E-01  0.10680389182E+00 -0.17423676433E-01  0.13031678062E+00  0.17719134920E-01 0.  0.
         14    1    1    2    0    0  0.14849077454E-01 -0.83502980363E-02 -0.19146110182E-01  0.25628033745E-01  0.00000000000E+00 0. -1.
     999901    1    3    3    0    0  0.55562851654E-01 -0.98453593784E-01  0.36569786615E-01  0.88798518563E+00  0.88000000000E+00 0.  1.
        -11    1    4    4    0    0 -0.37752606898E-01  0.60832681723E-01 -0.18366477332E-01  0.73915242703E-01  0.51100000000E-03 0. -1.
         11    1    4    4    0    0 -0.32659322210E-01  0.45971210097E-01  0.94280089891E-03  0.56401537918E-01  0.51100000000E-03 0.  1.
</event>
<event>
 8    1  0.1183092E+005  0.1043930E+01  0.7957747E-01            NaN
         13   -1    0    0    0    0  0.00000000000E+00  0.00000000000E+00  0.74505805969E-08  0.10566000000E+00  0.10566000000E+00 0. -1.
     999900   -1    0    0    0    0 -0.00000000000E+00 -0.00000000000E+00 -0.74505805969E-08  0.93827000000E+00  0.93827000000E+00 0. -1.
     999902    2    1    2    0    0  0.23275180633E-01 -0.50573749090E-02  0.88698771546E-04  0.10201115420E+01  0.10198334370E+01 0.  0.
     999903    2    3    3    0    0  0.11807115997E+00  0.47484157659E-01  0.32793498381E-01  0.13285932629E+00  0.19510074376E-01 0.  0.
         14    1    1    2    0    0 -0.23275180633E-01  0.50573749090E-02 -0.88698771546E-04  0.23818458009E-01  0.00000000000E+00 0. -1.
     999901    1    3    3    0    0 -0.94795979336E-01 -0.52541532567E-01 -0.32704799610E-01  0.88725221570E+00  0.88000000000E+00 0. -1.
        -11    1    4    4    0    0  0.69125938155E-01  0.25063696562E-01  0.28460049326E-01  0.78846811855E-01  0.51100000000E-03 0. -1.
         11    1    4    4    0    0  0.48945221814E-01  0.22420461096E-01  0.43334490552E-02  0.54012514438E-01  0.51100000000E-03 0.  1.
</event>
<event>
 8    1  0.1183092E+005  0.1043930E+01  0.7957747E-01            NaN
         13   -1    0    0    0    0  0.00000000000E+00  0.00000000000E+00  0.74505805969E-08  0.10566000000E+00  0.10566000000E+00 0. -1.
     999900   -1    0    0    0    0 -0.00000000000E+00 -0.00000000000E+00 -0.74505805969E-08  0.93827000000E+00  0.93827000000E+00 0.  1.
     999902    2    1    2    0    0  0.66804485535E-02  0.19210991860E-01  0.15554875139E-01  0.10183244392E+01  0.10180024650E+01 0.  0.
     999903    2    3    3    0    0 -0.71136759832E-01  0.10631840629E+00  0.17254636551E-01  0.13060482768E+00  0.19896140707E-01 0.  0.
         14    1    1    2    0    0 -0.66804485535E-02 -0.19210991860E-01 -0.15554875139E-01  0.25605560757E-01  0.00000000000E+00 0.  1.
     999901    1    3    3    0    0  0.77817208386E-01 -0.87107414428E-01 -0.16997614119E-02  0.88771961157E+00  0.88000000000E+00 0. -1.
        -11    1    4    4    0    0 -0.41520197883E-01  0.66226029150E-01  0.99857003531E-03  0.78173346048E-01  0.51100000000E-03 0.  1.
         11    1    4    4    0    0 -0.29616561949E-01  0.40092377138E-01  0.16256066516E-01  0.52431481629E-01  0.51100000000E-03 0. -1.
</event>
<event>
 8    1  0.1183092E+005  0.1043930E+01  0.7957747E-01            NaN
         13   -1    0    0    0    0  0.00000000000E+00  0.00000000000E+00  0.74505805969E-08  0.10566000000E+00  0.10566000000E+00 0.  1.
     999900   -1    0    0    0    0 -0.00000000000E+00 -0.00000000000E+00 -0.74505805969E-08  0.93827000000E+00  0.93827000000E+00 0.  1.
     999902    2    1    2    0    0 -0.39737540242E-02 -0.24268609109E-01 -0.47039975096E-02  0.10188923543E+01  0.10185846779E+01 0.  0.
     999903    2    3    3    0    0 -0.44691889952E-01 -0.14873225959E-02 -0.12057666755E+00  0.13007098347E+00  0.19497456945E-01 0.  0.
         14    1    1    2    0    0  0.39737540242E-02  0.24268609109E-01  0.47039975096E-02  0.25037645690E-01  0.00000000000E+00 0.  1.
     999901    1    3    3    0    0  0.40718135928E-01 -0.22781286513E-01  0.11587267004E+00  0.88882137084E+00  0.88000000000E+00 0. -1.
        -11    1    4    4    0    0 -0.17918735639E-01 -0.72046116478E-03 -0.75784926555E-01  0.77879499004E-01  0.51100000000E-03 0. -1.
         11    1    4    4    0    0 -0.26773154313E-01 -0.76686143115E-03 -0.44791740990E-01  0.52191484461E-01  0.51100000000E-03 0.  1.
</event>
<event>
 8    1  0.1183092E+005  0.1043930E+01  0.7957747E-01            NaN
         13   -1    0    0    0    0  0.00000000000E+00  0.00000000000E+00  0.74505805969E-08  0.10566000000E+00  0.10566000000E+00 0. -1.
     999900   -1    0    0    0    0 -0.00000000000E+00 -0.00000000000E+00 -0.74505805969E-08  0.93827000000E+00  0.93827000000E+00 0. -1.
     999902    2    1    2    0    0 -0.85772075437E-02  0.75656531712E-04 -0.22035573235E-01  0.10202838438E+01  0.10200097947E+01 0.  0.
     999903    2    3    3    0    0 -0.44325778897E-01  0.31829439839E-01 -0.12021859848E+00  0.13353350155E+00  0.20019907590E-01 0.  0.
         14    1    1    2    0    0  0.85772075437E-02 -0.75656531712E-04  0.22035573235E-01  0.23646156156E-01  0.00000000000E+00 0. -1.
     999901    1    3    3    0    0  0.35748571353E-01 -0.31753783307E-01  0.98183025249E-01  0.88675034229E+00  0.88000000000E+00 0.  1.
        -11    1    4    4    0    0 -0.11476235250E-01  0.12318605050E-01 -0.59101732318E-01  0.61455088397E-01  0.51100000000E-03 0.  1.
         11    1    4    4    0    0 -0.32849543647E-01  0.19510834788E-01 -0.61116866166E-01  0.72078413155E-01  0.51100000000E-03 0. -1.
</event>
<event>
 8    1  0.1183092E+005  0.1043930E+01  0.7957747E-01            NaN
         13   -1    0    0    0    0  0.00000000000E+00  0.00000000000E+00  0.74505805969E-08  0.10566000000E+00  0.10566000000E+00 0. -1.
     999900   -1    0    0    0    0 -0.00000000000E+00 -0.00000000000E+00 -0.74505805969E-08  0.93827000000E+00  0.93827000000E+00 0. -1.
     999902    2    1    2    0    0  0.14363082704E-01 -0.11476435757E-02  0.17799588663E-01  0.10210293322E+01  0.10207724803E+01 0.  0.
     999903    2    3    3    0    0  0.38790751209E-01 -0.12272569848E+00 -0.17915048460E-01  0.13161746485E+00  0.20877946409E-01 0.  0.
         14    1    1    2    0    0 -0.14363082704E-01  0.11476435757E-02 -0.17799588663E-01  0.22900667831E-01  0.00000000000E+00 0.  1.
     999901    1    3    3    0    0 -0.24427668505E-01  0.12157805490E+00  0.35714637123E-01  0.88941186732E+00  0.88000000000E+00 0.  1.
        -11    1    4    4    0    0  0.72887163893E-02 -0.53427498851E-01 -0.12141202312E-01  0.55274704293E-01  0.51100000000E-03 0.  1.
         11    1    4    4    0    0  0.31502034819E-01 -0.69298199626E-01 -0.57738461475E-02  0.76342760557E-01  0.51100000000E-03 0. -1.
</event>
<event>
 8    1  0.1183092E+005  0.1043930E+01  0.7957747E-01            NaN
         13   -1    0    0    0    0  0.00000000000E+00  0.00000000000E+00  0.74505805969E-08  0.10566000000E+00  0.10566000000E+00 0.  1.
     999900   -1    0    0    0    0 -0.00000000000E+00 -0.00000000000E+00 -0.74505805969E-08  0.93827000000E+00  0.93827000000E+00 0.  1.
     999902    2    1    2    0    0 -0.19239358349E-01  0.34121799625E-02  0.14469022640E-01  0.10196164544E+01  0.10193265255E+01 0.  0.
     999903    2    3    3    0    0  0.22151851943E-01 -0.40694286932E-01  0.12111490134E+00  0.13111661979E+00  0.19391212582E-01 0.  0.
         14    1    1    2    0    0  0.19239358349E-01 -0.34121799625E-02 -0.14469022640E-01  0.24313545565E-01  0.00000000000E+00 0. -1.
     999901    1    3    3    0    0 -0.41391210292E-01  0.44106466895E-01 -0.10664587870E+00  0.88849983464E+00  0.88000000000E+00 0.  1.
        -11    1    4    4    0    0  0.13279375894E-01 -0.72120240923E-02  0.45441383907E-01  0.47890871865E-01  0.51100000000E-03 0. -1.
         11    1    4    4    0    0  0.88724760490E-02 -0.33482262840E-01  0.75673517437E-01  0.83225747930E-01  0.51100000000E-03 0.  1.
</event>
<event>
 8    1  0.1183092E+005  0.1043930E+01  0.7957747E-01            NaN
         13   -1    0    0    0    0  0.00000000000E+00  0.00000000000E+00  0.74505805969E-08  0.10566000000E+00  0.10566000000E+00 0. -1.
     999900   -1    0    0    0    0 -0.00000000000E+00 -0.00000000000E+00 -0.74505805969E-08  0.93827000000E+00  0.93827000000E+00 0. -1.
     999902    2    1    2    0    0  0.54114443158E-02  0.18437301523E-01  0.13663965433E-01  0.10203520067E+01  0.10200795537E+01 0.  0.
     999903    2    3    3    0    0  0.80637372033E-01  0.10054953230E+00  0.26118247013E-01  0.13324633780E+00  0.21443635348E-01 0.  0.
         14    1    1    2    0    0 -0.54114443158E-02 -0.18437301523E-01 -0.13663965433E-01  0.23577993307E-01  0.00000000000E+00 0. -1.
     999901    1    3    3    0    0 -0.75225927718E-01 -0.82112230778E-01 -0.12454281580E-01  0.88710566889E+00  0.88000000000E+00 0. -1.
        -11    1    4    4    0    0  0.44078761671E-01  0.42686346927E-01  0.47682008205E-02  0.61547203872E-01  0.51100000000E-03 0. -1.
         11    1    4    4    0    0  0.36558610363E-01  0.57863185374E-01  0.21350046192E-01  0.71699133933E-01  0.51100000000E-03 0.  1.
</event>
<event>
 8    1  0.1183092E+005  0.1043930E+01  0.7957747E-01            NaN
         13   -1    0    0    0    0  0.00000000000E+00  0.00000000000E+00  0.74505805969E-08  0.10566000000E+00  0.10566000000E+00 0.  1.
     999900   -1    0    0    0    0 -0.00000000000E+00 -0.00000000000E+00 -0.74505805969E-08  0.93827000000E+00  0.93827000000E+00 0.  1.
     999902    2    1    2    0    0 -0.21019217105E-01 -0.10512081601E-01 -0.61222981066E-02  0.10196443277E+01  0.10193550711E+01 0.  0.
     999903    2    3    3    0    0 -0.72272173390E-01  0.10132458174E+00  0.32841993818E-01  0.13023299377E+00  0.19801469537E-01 0.  0.
         14    1    1    2    0    0  0.21019217105E-01  0.10512081601E-01  0.61222981066E-02  0.24285672348E-01  0.00000000000E+00 0.  1.
     999901    1    3    3    0    0  0.51252956285E-01 -0.11183666334E+00 -0.38964291925E-01  0.88941133388E+00  0.88000000000E+00 0.  1.
        -11    1    4    4    0    0 -0.65177185745E-02  0.45397308090E-02 -0.18840084069E-02  0.81792676880E-02  0.51100000000E-03 0. -1.
         11    1    4    4    0    0 -0.65754454816E-01  0.96784850934E-01  0.34726002225E-01  0.12205372608E+00  0.51100000000E-03 0.  1.
</event>
<event>
 8    1  0.1183092E+005  0.1043930E+01  0.7957747E-01            NaN
         13   -1    0    0    0    0  0.00000000000E+00  0.00000000000E+00  0.74505805969E-08  0.10566000000E+00  0.10566000000E+00 0. -1.
     999900   -1    0    0    0    0 -0.00000000000E+00 -0.00000000000E+00 -0.74505805969E-08  0.93827000000E+00  0.93827000000E+00 0. -1.
     999902    2    1    2    0    0 -0.61800942485E-03 -0.29341560147E-01  0.50099723683E-02  0.10141573798E+01  0.10137202682E+01 0.  0.
     999903    2    3    3    0    0  0.21396251027E-01 -0.44886506536E-01  0.11490652860E+00  0.12691247223E+00  0.20752524332E-01 0.  0.
         14    1    1    2    0    0  0.61800942485E-03  0.29341560147E-01 -0.50099723683E-02  0.29772620151E-01  0.00000000000E+00 0.  1.
     999901    1    3    3    0    0 -0.22014260452E-01  0.15544946388E-01 -0.10989655623E+00  0.88724490762E+00  0.88000000000E+00 0. -1.
        -11    1    4    4    0    0  0.63905754908E-02 -0.35237392797E-01  0.81917072013E-01  0.89404592244E-01  0.51100000000E-03 0.  1.
         11    1    4    4    0    0  0.15005675536E-01 -0.96491137382E-02  0.32989456587E-01  0.37507879987E-01  0.51100000000E-03 0. -1.
</event>
<event>
 8    1  0.1183092E+005  0.1043930E+01  0.7957747E-01            NaN
         13   -1    0    0    0    0  0.00000000000E+00  0.00000000000E+00  0.74505805969E-08  0.10566000000E+00  0.10566000000E+00 0.  1.
     999900   -1    0    0    0    0 -0.00000000000E+00 -0.00000000000E+00 -0.74505805969E-08  0.93827000000E+00  0.93827000000E+00 0.  1.
     999902    2    1    2    0    0  0.95325461237E-02  0.88086456746E-02 -0.12901326619E-01  0.10256295655E+01  0.10254662841E+01 0.  0.
     999903    2    3    3    0    0 -0.92895286703E-01  0.95688113412E-01 -0.12730418000E-01  0.13543883759E+00  0.19896377694E-01 0.  0.
         14    1    1    2    0    0 -0.95325461237E-02 -0.88086456746E-02  0.12901326619E-01  0.18300434497E-01  0.00000000000E+00 0. -1.
     999901    1    3    3    0    0  0.10242783283E+00 -0.86879467738E-01 -0.17090861899E-03  0.89019072791E+00  0.88000000000E+00 0.  1.
        -11    1    4    4    0    0 -0.34277948064E-01  0.47030333908E-01 -0.11043719064E-01  0.59237276125E-01  0.51100000000E-03 0. -1.
         11    1    4    4    0    0 -0.58617338640E-01  0.48657779504E-01 -0.16866989367E-02  0.76201561466E-01  0.51100000000E-03 0.  1.
</event>
<event>
 8    1  0.1183092E+005  0.1043930E+01  0.7957747E-01            NaN
         13   -1    0    0    0    0  0.00000000000E+00  0.00000000000E+00  0.74505805969E-08  0.10566000000E+00  0.10566000000E+00 0.  1.
     999900   -1    0    0    0    0 -0.00000000000E+00 -0.00000000000E+00 -0.74505805969E-08  0.93827000000E+00  0.93827000000E+00 0. -1.
     999902    2    1    2    0    0 -0.89549219322E-03 -0.94503738003E-02 -0.22110642628E-01  0.10198677476E+01  0.10195838517E+01 0.  0.
     999903    2    3    3    0    0  0.87723811897E-01 -0.69882535656E-01 -0.67304019564E-01  0.13220347070E+00  0.19206526260E-01 0.  0.
         14    1    1    2    0    0  0.89549219322E-03  0.94503738003E-02  0.22110642628E-01  0.24062252360E-01  0.00000000000E+00 0.  1.
     999901    1    3    3    0    0 -0.88619304090E-01  0.60432161856E-01  0.45193376936E-01  0.88766427694E+00  0.88000000000E+00 0.  1.
        -11    1    4    4    0    0  0.32105597544E-01 -0.33189753124E-01 -0.19158290471E-01  0.49996303072E-01  0.51100000000E-03 0.  1.
         11    1    4    4    0    0  0.55618214354E-01 -0.36692782532E-01 -0.48145729093E-01  0.82207167624E-01  0.51100000000E-03 0. -1.
</event>
<event>
 8    1  0.1183092E+005  0.1043930E+01  0.7957747E-01            NaN
         13   -1    0    0    0    0  0.00000000000E+00  0.00000000000E+00  0.74505805969E-08  0.10566000000E+00  0.10566000000E+00 0. -1.
     999900   -1    0    0    0    0 -0.00000000000E+00 -0.00000000000E+00 -0.74505805969E-08  0.93827000000E+00  0.93827000000E+00 0.  1.
     999902    2    1    2    0    0 -0.27170892936E-02 -0.10813183670E-01  0.20798713426E-01  0.10203313984E+01  0.10200584634E+01 0.  0.
     999903    2    3    3    0    0  0.55954768709E-01  0.11299919429E+00 -0.16006232741E-01  0.12896924089E+00  0.21842883466E-01 0.  0.
         14    1    1    2    0    0  0.27170892936E-02  0.10813183670E-01 -0.20798713426E-01  0.23598601557E-01  0.00000000000E+00 0.  1.
     999901    1    3    3    0    0 -0.58671858003E-01 -0.12381237796E+00  0.36804946167E-01  0.89136215755E+00  0.88000000000E+00 0. -1.
        -11    1    4    4    0    0  0.54973825682E-01  0.95279603514E-01 -0.16354438563E-01  0.11121174910E+00  0.51100000000E-03 0.  1.
         11    1    4    4    0    0  0.98094302701E-03  0.17719590773E-01  0.34820582221E-03  0.17757491790E-01  0.51100000000E-03 0. -1.
</event>
<event>
 8    1  0.1183092E+005  0.1043930E+01  0.7957747E-01            NaN
         13   -1    0    0    0    0  0.00000000000E+00  0.00000000000E+00  0.74505805969E-08  0.10566000000E+00  0.10566000000E+00 0.  1.
     999900   -1    0    0    0    0 -0.00000000000E+00 -0.00000000000E+00 -0.74505805969E-08  0.93827000000E+00  0.93827000000E+00 0.  1.
     999902    2    1    2    0    0 -0.11292015402E-01  0.19284608184E-01  0.63607887689E-02  0.10206949971E+01  0.10204305032E+01 0.  0.
     999903    2    3    3    0    0 -0.62748246702E-02  0.32545668692E-01 -0.12556310658E+00  0.13074840205E+00  0.15180807885E-01 0.  0.
         14    1    1    2    0    0  0.11292015402E-01 -0.19284608184E-01 -0.63607887689E-02  0.23235002871E-01  0.00000000000E+00 0. -1.
     999901    1    3    3    0    0 -0.50171907317E-02 -0.13261060508E-01  0.13192389535E+00  0.88994659508E+00  0.88000000000E+00 0. -1.
        -11    1    4    4    0    0  0.20792417982E-02  0.23678695427E-01 -0.92564940338E-01  0.95569520059E-01  0.51100000000E-03 0. -1.
         11    1    4    4    0    0 -0.83540664684E-02  0.88669732649E-02 -0.32998166247E-01  0.35178881991E-01  0.51100000000E-03 0.  1.
</event>
<event>
 8    1  0.1183092E+005  0.1043930E+01  0.7957747E-01            NaN
         13   -1    0    0    0    0  0.00000000000E+00  0.00000000000E+00  0.74505805969E-08  0.10566000000E+00  0.10566000000E+00 0.  1.
     999900   -1    0    0    0    0 -0.00000000000E+00 -0.00000000000E+00 -0.74505805969E-08  0.93827000000E+00  0.93827000000E+00 0.  1.
     999902    2    1    2    0    0  0.23289638503E-01  0.32540699584E-02  0.69384000578E-02  0.10194118918E+01  0.10191170039E+01 0.  0.
     999903    2    3    3    0    0  0.89974994213E-01  0.72152157150E-01 -0.61206182075E-01  0.13158444961E+00  0.16335155034E-01 0.  0.
         14    1    1    2    0    0 -0.23289638503E-01 -0.32540699584E-02 -0.69384000578E-02  0.24518108170E-01  0.00000000000E+00 0. -1.
     999901    1    3    3    0    0 -0.66685355710E-01 -0.68898087192E-01  0.68144582132E-01  0.88782744222E+00  0.88000000000E+00 0. -1.
        -11    1    4    4    0    0  0.61437607347E-02  0.15452561223E-02 -0.64790929742E-02  0.90759781411E-02  0.51100000000E-03 0.  1.
         11    1    4    4    0    0  0.83831233478E-01  0.70606901028E-01 -0.54727089100E-01  0.12250847147E+00  0.51100000000E-03 0. -1.
</event>
<event>
 8    1  0.1183092E+005  0.1043930E+01  0.7957747E-01            NaN
         13   -1    0    0    0    0  0.00000000000E+00  0.00000000000E+00  0.74505805969E-08  0.10566000000E+00  0.10566000000E+00 0. -1.
     999900   -1    0    0    0    0 -0.00000000000E+00 -0.00000000000E+00 -0.74505805969E-08  0.93827000000E+00  0.93827000000E+00 0.  1.
     999902    2    1    2    0    0 -0.12471425333E-01 -0.19166532754E-01 -0.86436124309E-02  0.10194840502E+01  0.10191909164E+01 0.  0.
     999903    2    3    3    0    0 -0.85739420853E-01 -0.75162856079E-01  0.62797901493E-01  0.13178608503E+00  0.20574074764E-01 0.  0.
         14    1    1    2    0    0  0.12471425333E-01  0.19166532754E-01  0.86436124309E-02  0.24445949839E-01  0.00000000000E+00 0. -1.
     999901    1    3    3    0    0  0.73267995520E-01  0.55996323324E-01 -0.71441513924E-01  0.88769796514E+00  0.88000000000E+00 0.  1.
        -11    1    4    4    0    0 -0.22183347097E-01 -0.14544284213E-01  0.60330309503E-02  0.27208375092E-01  0.51100000000E-03 0.  1.
         11    1    4    4    0    0 -0.63556073756E-01 -0.60618571866E-01  0.56764870542E-01  0.10457770993E+00  0.51100000000E-03 0. -1.
</event>
<event>
 8    1  0.1183092E+005  0.1043930E+01  0.7957747E-01            NaN
         13   -1    0    0    0    0  0.00000000000E+00  0.00000000000E+00  0.74505805969E-08  0.10566000000E+00  0.10566000000E+00 0. -1.
     999900   -1    0    0    0    0 -0.00000000000E+00 -0.00000000000E+00 -0.74505805969E-08  0.93827000000E+00  0.93827000000E+00 0.  1.
     999902    2    1    2    0    0  0.50905144734E-02 -0.46735062668E-02 -0.23745943237E-01  0.10191989503E+01  0.10188988544E+01 0.  0.
     999903    2    3    3    0    0  0.42314752324E-02 -0.11493665205E+00 -0.61017510354E-01  0.13153467313E+00  0.18705461720E-01 0.  0.
         14    1    1    2    0    0 -0.50905144734E-02  0.46735062668E-02  0.23745943237E-01  0.24731049688E-01  0.00000000000E+00 0. -1.
     999901    1    3    3    0    0  0.85903924104E-03  0.11026314579E+00  0.37271567117E-01  0.88766427718E+00  0.88000000000E+00 0.  1.
        -11    1    4    4    0    0 -0.64911780109E-03 -0.10741281562E+00 -0.57895060491E-01  0.12202472481E+00  0.51100000000E-03 0.  1.
         11    1    4    4    0    0  0.48805930335E-02 -0.75238364294E-02 -0.31224498636E-02  0.95099483240E-02  0.51100000000E-03 0. -1.
</event>
<event>
 8    1  0.1183092E+005  0.1043930E+01  0.7957747E-01            NaN
         13   -1    0    0    0    0  0.00000000000E+00  0.00000000000E+00  0.74505805969E-08  0.10566000000E+00  0.10566000000E+00 0.  1.
     999900   -1    0    0    0    0 -0.00000000000E+00 -0.00000000000E+00 -0.74505805969E-08  0.93827000000E+00  0.93827000000E+00 0.  1.
     999902    2    1    2    0    0  0.22862997615E-01  0.72616878359E-02 -0.53885698808E-02  0.10193437141E+01  0.10190471638E+01 0.  0.
     999903    2    3    3    0    0 -0.11873522585E-01 -0.79860121773E-01  0.97830943958E-01  0.12836049112E+00  0.19669837254E-01 0.  0.
         14    1    1    2    0    0 -0.22862997615E-01 -0.72616878359E-02  0.53885698808E-02  0.24586285924E-01  0.00000000000E+00 0.  1.
     999901    1    3    3    0    0  0.34736520200E-01  0.87121809609E-01 -0.10321951384E+00  0.89098322295E+00  0.88000000000E+00 0.  1.
        -11    1    4    4    0    0  0.93620633048E-03 -0.51492148280E-01  0.67420940962E-01  0.84841983817E-01  0.51100000000E-03 0.  1.
         11    1    4    4    0    0 -0.12809728915E-01 -0.28367973494E-01  0.30410002996E-01  0.43518507307E-01  0.51100000000E-03 0. -1.
</event>
<event>
 8    1  0.1183092E+005  0.1043930E+01  0.7957747E-01            NaN
         13   -1    0    0    0    0  0.00000000000E+00  0.00000000000E+00  0.74505805969E-08  0.10566000000E+00  0.10566000000E+00 0.  1.
     999900   -1    0    0    0    0 -0.00000000000E+00 -0.00000000000E+00 -0.74505805969E-08  0.93827000000E+00  0.93827000000E+00 0. -1.
     999902    2    1    2    0    0 -0.34905766237E-02  0.20821027624E-01 -0.14024214502E-02  0.10227718786E+01  0.10225530057E+01 0.  0.
     999903    2    3    3    0    0 -0.25721979487E-01  0.22958064571E-01  0.12723876870E+00  0.13313860693E+00  0.18641122217E-01 0.  0.
         14    1    1    2    0    0  0.34905766237E-02 -0.20821027624E-01  0.14024214502E-02  0.21158121429E-01  0.00000000000E+00 0.  1.
     999901    1    3    3    0    0  0.22231402863E-01 -0.21370369469E-02 -0.12864119015E+00  0.88963327164E+00  0.88000000000E+00 0. -1.
        -11    1    4    4    0    0 -0.12478219006E-01  0.78001750682E-02  0.85947132744E-01  0.87199308647E-01  0.51100000000E-03 0.  1.
         11    1    4    4    0    0 -0.13243760480E-01  0.15157889502E-01  0.41291635960E-01  0.45939298286E-01  0.51100000000E-03 0. -1.
</event>
<event>
 8    1  0.1183092E+005  0.1043930E+01  0.7957747E-01            NaN
         13   -1    0    0    0    0  0.00000000000E+00  0.00000000000E+00  0.74505805969E-08  0.10566000000E+00  0.10566000000E+00 0.  1.
     999900   -1    0    0    0    0 -0.00000000000E+00 -0.00000000000E+00 -0.74505805969E-08  0.93827000000E+00  0.93827000000E+00 0. -1.
     999902    2    1    2    0    0 -0.21422504342E-01 -0.10607007254E-01  0.28941534598E-02  0.10198507886E+01  0.10195664876E+01 0.  0.
     999903    2    3    3    0    0 -0.77759902577E-01  0.95829375794E-01 -0.37917083662E-01  0.13071178762E+00  0.20444913178E-01 0.  0.
         14    1    1    2    0    0  0.21422504342E-01  0.10607007254E-01 -0.28941534598E-02  0.24079211353E-01  0.00000000000E+00 0.  1.
     999901    1    3    3    0    0  0.56337398235E-01 -0.10643638305E+00  0.40811237122E-01  0.88913900103E+00  0.88000000000E+00 0. -1.
        -11    1    4    4    0    0 -0.36460116057E-01  0.36578165730E-01 -0.69009081251E-02  0.52107445965E-01  0.51100000000E-03 0.  1.
         11    1    4    4    0    0 -0.41299786520E-01  0.59251210063E-01 -0.31016175537E-01  0.78604341652E-01  0.51100000000E-03 0. -1.
</event>
<event>
 8    1  0.1183092E+005  0.1043930E+01  0.7957747E-01            NaN
         13   -1    0    0    0    0  0.00000000000E+00  0.00000000000E+00  0.74505805969E-08  0.10566000000E+00  0.10566000000E+00 0. -1.
     999900   -1    0    0    0    0 -0.00000000000E+00 -0.00000000000E+00 -0.74505805969E-08  0.93827000000E+00  0.93827000000E+00 0.  1.
     999902    2    1    2    0    0 -0.76480621526E-02 -0.19921501411E-01  0.10243792129E-01  0.10202594624E+01  0.10199848412E+01 0.  0.
     999903    2    3    3    0    0 -0.27210437355E-01 -0.20263074589E-01 -0.12370700834E+00  0.12990805978E+00  0.20534848175E-01 0.  0.
         14    1    1    2    0    0  0.76480621526E-02  0.19921501411E-01 -0.10243792129E-01  0.23670537602E-01  0.00000000000E+00 0.  1.
     999901    1    3    3    0    0  0.19562375203E-01  0.34157317818E-03  0.13395080047E+00  0.89035140262E+00  0.88000000000E+00 0. -1.
        -11    1    4    4    0    0 -0.42344379345E-02 -0.37431643762E-04 -0.48806801570E-01  0.48992824640E-01  0.51100000000E-03 0.  1.
         11    1    4    4    0    0 -0.22975999421E-01 -0.20225642945E-01 -0.74900206774E-01  0.80915235140E-01  0.51100000000E-03 0. -1.
</event>
<event>
 8    1  0.1183092E+005  0.1043930E+01  0.7957747E-01            NaN
         13   -1    0    0    0    0  0.00000000000E+00  0.00000000000E+00  0.74505805969E-08  0.10566000000E+00  0.10566000000E+00 0.  1.
     999900   -1    0    0    0    0 -0.00000000000E+00 -0.00000000000E+00 -0.74505805969E-08  0.93827000000E+00  0.93827000000E+00 0. -1.
     999902    2    1    2    0    0  0.77386466574E-02 -0.29513898858E-02  0.22034481446E-01  0.10203903372E+01  0.10201187796E+01 0.  0.
     999903    2    3    3    0    0 -0.15981735692E-01 -0.50754131081E-01  0.12056744705E+00  0.13328464789E+00  0.19922107768E-01 0.  0.
         14    1    1    2    0    0 -0.77386466574E-02  0.29513898858E-02 -0.22034481446E-01  0.23539662847E-01  0.00000000000E+00 0. -1.
     999901    1    3    3    0    0  0.23720382349E-01  0.47802741195E-01 -0.98532965607E-01  0.88710568926E+00  0.88000000000E+00 0. -1.
        -11    1    4    4    0    0 -0.34515900292E-02 -0.31535044181E-01  0.51339038732E-01  0.60351723291E-01  0.51100000000E-03 0. -1.
         11    1    4    4    0    0 -0.12530145663E-01 -0.19219086900E-01  0.69228408320E-01  0.72932924603E-01  0.51100000000E-03 0.  1.
</event>
<event>
 8    1  0.1183092E+005  0.1043930E+01  0.7957747E-01            NaN
         13   -1    0    0    0    0  0.00000000000E+00  0.00000000000E+00  0.74505805969E-08  0.10566000000E+00  0.10566000000E+00 0.  1.
     999900   -1    0    0    0    0 -0.00000000000E+00 -0.00000000000E+00 -0.74505805969E-08  0.93827000000E+00  0.93827000000E+00 0. -1.
     999902    2    1    2    0    0  0.18066768218E-03  0.22499356407E-01 -0.28240423193E-02  0.10212533844E+01  0.10210015898E+01 0.  0.
     999903    2    3    3    0    0 -0.82987090304E-01  0.25829969120E-02  0.99625140239E-01  0.13119194139E+00  0.19814840099E-01 0.  0.
         14    1    1    2    0    0 -0.18066768218E-03 -0.22499356407E-01  0.28240423193E-02  0.22676615589E-01  0.00000000000E+00 0.  1.
     999901    1    3    3    0    0  0.83167757986E-01  0.19916359495E-01 -0.10244918256E+00  0.89006144302E+00  0.88000000000E+00 0. -1.
        -11    1    4    4    0    0 -0.32976873390E-01  0.10604813546E-01  0.38001585018E-01  0.51422931011E-01  0.51100000000E-03 0.  1.
         11    1    4    4    0    0 -0.50010216914E-01 -0.80218166336E-02  0.61623555220E-01  0.79769010379E-01  0.51100000000E-03 0. -1.
</event>
<event>
 8    1  0.1183092E+005  0.1043930E+01  0.7957747E-01            NaN
         13   -1    0    0    0    0  0.00000000000E+00  0.00000000000E+00  0.74505805969E-08  0.10566000000E+00  0.10566000000E+00 0. -1.
     999900   -1    0    0    0    0 -0.00000000000E+00 -0.00000000000E+00 -0.74505805969E-08  0.93827000000E+00  0.93827000000E+00 0. -1.
     999902    2    1    2    0    0  0.88805938863E-02 -0.14717551401E-01  0.12167940649E-01  0.10228698469E+01  0.10226530173E+01 0.  0.
     999903    2    3    3    0    0 -0.49385239617E-01 -0.10834204971E+00  0.59908832043E-01  0.13470339478E+00  0.19468815600E-01 0.  0.
         14    1    1    2    0    0 -0.88805938863E-02  0.14717551401E-01 -0.12167940649E-01  0.21060153054E-01  0.00000000000E+00 0.  1.
     999901    1    3    3    0    0  0.58265833504E-01  0.93624498313E-01 -0.47740891394E-01  0.88816645216E+00  0.88000000000E+00 0. -1.
        -11    1    4    4    0    0 -0.26006012120E-01 -0.60597326161E-01  0.43753540408E-01  0.79139004438E-01  0.51100000000E-03 0. -1.
         11    1    4    4    0    0 -0.23379227497E-01 -0.47744723553E-01  0.16155291636E-01  0.55564390344E-01  0.51100000000E-03 0.  1.
</event>
<event>
 8    1  0.1183092E+005  0.1043930E+01  0.7957747E-01            NaN
         13   -1    0    0    0    0  0.00000000000E+00  0.00000000000E+00  0.74505805969E-08  0.10566000000E+00  0.10566000000E+00 0. -1.
     999900   -1    0    0    0    0 -0.00000000000E+00 -0.00000000000E+00 -0.74505805969E-08  0.93827000000E+00  0.93827000000E+00 0. -1.
     999902    2    1    2    0    0  0.23500484270E-01 -0.10213314211E-02 -0.71062902133E-02  0.10193573477E+01  0.10190611302E+01 0.  0.
     999903    2    3    3    0    0  0.49005798195E-01  0.97242356917E-01 -0.70487434030E-01  0.13125631583E+00  0.20052377731E-01 0.  0.
         14    1    1    2    0    0 -0.23500484270E-01  0.10213314211E-02  0.71062902133E-02  0.24572652266E-01  0.00000000000E+00 0. -1.
     999901    1    3    3    0    0 -0.25505313925E-01 -0.98263688338E-01  0.63381143817E-01  0.88810103191E+00  0.88000000000E+00 0.  1.
        -11    1    4    4    0    0  0.36366750152E-01  0.52712476215E-01 -0.35442725154E-01  0.73195584243E-01  0.51100000000E-03 0. -1.
         11    1    4    4    0    0  0.12639048042E-01  0.44529880702E-01 -0.35044708876E-01  0.58060731583E-01  0.51100000000E-03 0.  1.
</event>
<event>
 8    1  0.1183092E+005  0.1043930E+01  0.7957747E-01            NaN
         13   -1    0    0    0    0  0.00000000000E+00  0.00000000000E+00  0.74505805969E-08  0.10566000000E+00  0.10566000000E+00 0.  1.
     999900   -1    0    0    0    0 -0.00000000000E+00 -0.00000000000E+00 -0.74505805969E-08  0.93827000000E+00  0.93827000000E+00 0.  1.
     999902    2    1    2    0    0  0.19092252902E-01 -0.13130329985E-01  0.49123382251E-02  0.10202434901E+01  0.10199684938E+01 0.  0.
     999903    2    3    3    0    0  0.11386568610E+00 -0.66502130763E-01  0.11440103209E-02  0.13353905618E+00  0.21058083977E-01 0.  0.
         14    1    1    2    0    0 -0.19092252902E-01  0.13130329985E-01 -0.49123382251E-02  0.23686509942E-01  0.00000000000E+00 0.  1.
     999901    1    3    3    0    0 -0.94773433194E-01  0.53371800778E-01  0.37683279041E-02  0.88670443387E+00  0.88000000000E+00 0.  1.
        -11    1    4    4    0    0  0.35940422476E-01 -0.11458396646E-01 -0.43394389876E-02  0.37975000635E-01  0.51100000000E-03 0.  1.
         11    1    4    4    0    0  0.77925263620E-01 -0.55043734117E-01  0.54834493086E-02  0.95564055549E-01  0.51100000000E-03 0. -1.
</event>
<event>
 8    1  0.1183092E+005  0.1043930E+01  0.7957747E-01            NaN
         13   -1    0    0    0    0  0.00000000000E+00  0.00000000000E+00  0.74505805969E-08  0.10566000000E+00  0.10566000000E+00 0.  1.
     999900   -1    0    0    0    0 -0.00000000000E+00 -0.00000000000E+00 -0.74505805969E-08  0.93827000000E+00  0.93827000000E+00 0.  1.
     999902    2    1    2    0    0  0.19442174917E-02 -0.22284140056E-01  0.11484864898E-02  0.10215317434E+01  0.10212861601E+01 0.  0.
     999903    2    3    3    0    0 -0.98381387831E-01  0.16856161912E-01  0.82816040016E-01  0.13121338477E+00  0.19885376384E-01 0.  0.
         14    1    1    2    0    0 -0.19442174917E-02  0.22284140056E-01 -0.11484864898E-02  0.22398256649E-01  0.00000000000E+00 0.  1.
     999901    1    3    3    0    0  0.10032560532E+00 -0.39140301968E-01 -0.81667553526E-01  0.89031835858E+00  0.88000000000E+00 0. -1.
        -11    1    4    4    0    0 -0.33322878244E-01  0.15168351904E-01  0.32297499510E-01  0.48825021347E-01  0.51100000000E-03 0. -1.
         11    1    4    4    0    0 -0.65058509586E-01  0.16878100081E-02  0.50518540506E-01  0.82388363426E-01  0.51100000000E-03 0.  1.
</event>
<event>
 8    1  0.1354906E+005  0.1043930E+01  0.7957747E-01            NaN
         13   -1    0    0    0    0  0.00000000000E+00  0.00000000000E+00  0.74505805969E-08  0.10566000000E+00  0.10566000000E+00 0. -1.
     999900   -1    0    0    0    0 -0.00000000000E+00 -0.00000000000E+00 -0.74505805969E-08  0.93827000000E+00  0.93827000000E+00 0.  1.
     999902    2    1    2    0    0 -0.12302218408E-01 -0.19911993055E-01  0.16164249760E-02  0.10204684384E+01  0.10201987006E+01 0.  0.
     999903    2    3    3    0    0  0.10486594182E+00  0.52814026660E-01  0.48335007019E-01  0.12850427000E+00  0.19770870956E-01 0.  0.
         14    1    1    2    0    0  0.12302218408E-01  0.19911993055E-01 -0.16164249760E-02  0.23461561646E-01  0.00000000000E+00 0.  1.
     999901    1    3    3    0    0 -0.11716816023E+00 -0.72726019715E-01 -0.46718582043E-01  0.89196416835E+00  0.88000000000E+00 0. -1.
        -11    1    4    4    0    0  0.53914595159E-01  0.23724063586E-01  0.34343066833E-01  0.68185937881E-01  0.51100000000E-03 0. -1.
         11    1    4    4    0    0  0.50951346666E-01  0.29089963074E-01  0.13991940186E-01  0.60318332121E-01  0.51100000000E-03 0.  1.
</event>
<event>
 8    1  0.1183092E+005  0.1043930E+01  0.7957747E-01            NaN
         13   -1    0    0    0    0  0.00000000000E+00  0.00000000000E+00  0.74505805969E-08  0.10566000000E+00  0.10566000000E+00 0.  1.
     999900   -1    0    0    0    0 -0.00000000000E+00 -0.00000000000E+00 -0.74505805969E-08  0.93827000000E+00  0.93827000000E+00 0.  1.
     999902    2    1    2    0    0 -0.70905450678E-02 -0.85896286142E-02  0.20871108989E-01  0.10202728501E+01  0.10199985431E+01 0.  0.
     999903    2    3    3    0    0  0.48755006558E-01  0.74185266621E-01  0.95030142242E-01  0.13152655837E+00  0.19697796185E-01 0.  0.
         14    1    1    2    0    0  0.70905450678E-02  0.85896286142E-02 -0.20871108989E-01  0.23657149860E-01  0.00000000000E+00 0. -1.
     999901    1    3    3    0    0 -0.55845551626E-01 -0.82774895236E-01 -0.74159033253E-01  0.88874629177E+00  0.88000000000E+00 0. -1.
        -11    1    4    4    0    0  0.49344748527E-01  0.65332698943E-01  0.83190289117E-01  0.11672253888E+00  0.51100000000E-03 0.  1.
         11    1    4    4    0    0 -0.58974196869E-03  0.88525676787E-02  0.11839853125E-01  0.14804019492E-01  0.51100000000E-03 0. -1.
</event>
<event>
 8    1  0.1183092E+005  0.1043930E+01  0.7957747E-01            NaN
         13   -1    0    0    0    0  0.00000000000E+00  0.00000000000E+00  0.74505805969E-08  0.10566000000E+00  0.10566000000E+00 0.  1.
     999900   -1    0    0    0    0 -0.00000000000E+00 -0.00000000000E+00 -0.74505805969E-08  0.93827000000E+00  0.93827000000E+00 0. -1.
     999902    2    1    2    0    0 -0.16725539636E-01 -0.16340478238E-01 -0.44347060528E-02  0.10201303882E+01  0.10198527283E+01 0.  0.
     999903    2    3    3    0    0  0.57409700435E-01 -0.91774149375E-01 -0.71459837101E-01  0.13126670867E+00  0.20151235397E-01 0.  0.
         14    1    1    2    0    0  0.16725539636E-01  0.16340478238E-01  0.44347060528E-02  0.23799611823E-01  0.00000000000E+00 0.  1.
     999901    1    3    3    0    0 -0.74135240071E-01  0.75433671137E-01  0.67025131048E-01  0.88886367951E+00  0.88000000000E+00 0.  1.
        -11    1    4    4    0    0  0.11086442303E-01 -0.32719245426E-01 -0.16815756006E-01  0.38425108916E-01  0.51100000000E-03 0.  1.
         11    1    4    4    0    0  0.46323258132E-01 -0.59054903949E-01 -0.54644081095E-01  0.92841599750E-01  0.51100000000E-03 0. -1.
</event>
<event>
 8    1  0.1183092E+005  0.1043930E+01  0.7957747E-01            NaN
         13   -1    0    0    0    0  0.00000000000E+00  0.00000000000E+00  0.74505805969E-08  0.10566000000E+00  0.10566000000E+00 0.  1.
     999900   -1    0    0    0    0 -0.00000000000E+00 -0.00000000000E+00 -0.74505805969E-08  0.93827000000E+00  0.93827000000E+00 0. -1.
     999902    2    1    2    0    0  0.19852875767E-01 -0.10272996863E-01  0.94888031288E-02  0.10196460850E+01  0.10193568709E+01 0.  0.
     999903    2    3    3    0    0  0.97066841867E-01  0.48386973277E-01  0.72675328884E-01  0.13206762333E+00  0.19921915855E-01 0.  0.
         14    1    1    2    0    0 -0.19852875767E-01  0.10272996863E-01 -0.94888031288E-02  0.24283914956E-01  0.00000000000E+00 0. -1.
     999901    1    3    3    0    0 -0.77213966100E-01 -0.58659970139E-01 -0.63186525755E-01  0.88757846171E+00  0.88000000000E+00 0. -1.
        -11    1    4    4    0    0  0.15489151923E-01  0.14690725552E-01  0.20130757771E-01  0.29346886955E-01  0.51100000000E-03 0. -1.
         11    1    4    4    0    0  0.81577689944E-01  0.33696247724E-01  0.52544571113E-01  0.10272073638E+00  0.51100000000E-03 0.  1.
</event>
<event>
 8    1  0.1183092E+005  0.1043930E+01  0.7957747E-01            NaN
         13   -1    0    0    0    0  0.00000000000E+00  0.00000000000E+00  0.74505805969E-08  0.10566000000E+00  0.10566000000E+00 0.  1.
     999900   -1    0    0    0    0 -0.00000000000E+00 -0.00000000000E+00 -0.74505805969E-08  0.93827000000E+00  0.93827000000E+00 0.  1.
     999902    2    1    2    0    0 -0.14401410118E-01 -0.15347941304E-01  0.28446598557E-02  0.10226920150E+01  0.10224714693E+01 0.  0.
     999903    2    3    3    0    0 -0.10979324368E+00  0.56103858612E-01 -0.46812061815E-01  0.13327043242E+00  0.19168717118E-01 0.  0.
         14    1    1    2    0    0  0.14401410118E-01  0.15347941304E-01 -0.28446598557E-02  0.21237984965E-01  0.00000000000E+00 0. -1.
     999901    1    3    3    0    0  0.95391833562E-01 -0.71451799916E-01  0.49656721671E-01  0.88942158262E+00  0.88000000000E+00 0.  1.
        -11    1    4    4    0    0 -0.66843008561E-01  0.42327283441E-01 -0.23741144100E-01  0.82604417323E-01  0.51100000000E-03 0. -1.
         11    1    4    4    0    0 -0.42950235119E-01  0.13776575171E-01 -0.23070917715E-01  0.50666015094E-01  0.51100000000E-03 0.  1.
</event>
<event>
 8    1  0.1183092E+005  0.1043930E+01  0.7957747E-01            NaN
         13   -1    0    0    0    0  0.00000000000E+00  0.00000000000E+00  0.74505805969E-08  0.10566000000E+00  0.10566000000E+00 0. -1.
     999900   -1    0    0    0    0 -0.00000000000E+00 -0.00000000000E+00 -0.74505805969E-08  0.93827000000E+00  0.93827000000E+00 0.  1.
     999902    2    1    2    0    0 -0.16769549391E-01  0.13216116440E-01 -0.70048964960E-02  0.10214588608E+01  0.10212116589E+01 0.  0.
     999903    2    3    3    0    0  0.18584019791E-01 -0.73639428924E-01 -0.10528688490E+00  0.13103586593E+00  0.17802773494E-01 0.  0.
         14    1    1    2    0    0  0.16769549391E-01 -0.13216116440E-01  0.70048964960E-02  0.22471139167E-01  0.00000000000E+00 0. -1.
     999901    1    3    3    0    0 -0.35353569182E-01  0.86855545364E-01  0.98281988401E-01  0.89042299491E+00  0.88000000000E+00 0. -1.
        -11    1    4    4    0    0  0.14395417844E-01 -0.23243726878E-01 -0.39983725290E-01  0.48440254987E-01  0.51100000000E-03 0.  1.
         11    1    4    4    0    0  0.41886019471E-02 -0.50395702046E-01 -0.65303159606E-01  0.82595610940E-01  0.51100000000E-03 0. -1.
</event>
<event>
 8    1  0.1183092E+005  0.1043930E+01  0.7957747E-01            NaN
         13   -1    0    0    0    0  0.00000000000E+00  0.00000000000E+00  0.74505805969E-08  0.10566000000E+00  0.10566000000E+00 0. -1.
     999900   -1    0    0    0    0 -0.00000000000E+00 -0.00000000000E+00 -0.74505805969E-08  0.93827000000E+00  0.93827000000E+00 0.  1.
     999902    2    1    2    0    0  0.22114860005E-01  0.84259874087E-02  0.32871698090E-02  0.10200371186E+01  0.10197572522E+01 0.  0.
     999903    2    3    3    0    0 -0.44101241723E-01  0.83110124219E-01 -0.87171340474E-01  0.12978713431E+00  0.19840498076E-01 0.  0.
         14    1    1    2    0    0 -0.22114860005E-01 -0.84259874087E-02 -0.32871698090E-02  0.23892881413E-01  0.00000000000E+00 0. -1.
     999901    1    3    3    0    0  0.66216101727E-01 -0.74684136810E-01  0.90458510283E-01  0.89024998427E+00  0.88000000000E+00 0. -1.
        -11    1    4    4    0    0 -0.19177894264E-01  0.20428149855E-01 -0.18841593722E-01  0.33769330907E-01  0.51100000000E-03 0. -1.
         11    1    4    4    0    0 -0.24923347458E-01  0.62681974363E-01 -0.68329746752E-01  0.96017803405E-01  0.51100000000E-03 0.  1.
</event>
<event>
 8    1  0.1183092E+005  0.1043930E+01  0.7957747E-01            NaN
         13   -1    0    0    0    0  0.00000000000E+00  0.00000000000E+00  0.74505805969E-08  0.10566000000E+00  0.10566000000E+00 0. -1.
     999900   -1    0    0    0    0 -0.00000000000E+00 -0.00000000000E+00 -0.74505805969E-08  0.93827000000E+00  0.93827000000E+00 0.  1.
     999902    2    1    2    0    0 -0.22698873860E-01  0.30852719441E-03 -0.58588614196E-02  0.10204851643E+01  0.10202158155E+01 0.  0.
     999903    2    3    3    0    0  0.12332049763E+00 -0.27306181231E-01 -0.73044611239E-02  0.12802434235E+00  0.19578161633E-01 0.  0.
         14    1    1    2    0    0  0.22698873860E-01 -0.30852719441E-03  0.58588614196E-02  0.23444835693E-01  0.00000000000E+00 0. -1.
     999901    1    3    3    0    0 -0.14601937149E+00  0.27614708425E-01  0.14455997043E-02  0.89246082196E+00  0.88000000000E+00 0.  1.
        -11    1    4    4    0    0  0.26244831761E-01 -0.13478646537E-01 -0.50807132886E-02  0.29942275718E-01  0.51100000000E-03 0. -1.
         11    1    4    4    0    0  0.97075665867E-01 -0.13827534694E-01 -0.22237478353E-02  0.98082066631E-01  0.51100000000E-03 0.  1.
</event>
<event>
 8    1  0.1183092E+005  0.1043930E+01  0.7957747E-01            NaN
         13   -1    0    0    0    0  0.00000000000E+00  0.00000000000E+00  0.74505805969E-08  0.10566000000E+00  0.10566000000E+00 0.  1.
     999900   -1    0    0    0    0 -0.00000000000E+00 -0.00000000000E+00 -0.74505805969E-08  0.93827000000E+00  0.93827000000E+00 0. -1.
     999902    2    1    2    0    0 -0.26173441737E-02  0.22892317668E-01  0.11737995937E-02  0.10208586649E+01  0.10205979263E+01 0.  0.
     999903    2    3    3    0    0  0.40585842147E-01  0.39428645902E-01 -0.11740861616E+00  0.13170077407E+00  0.18933622023E-01 0.  0.
         14    1    1    2    0    0  0.26173441737E-02 -0.22892317668E-01 -0.11737995937E-02  0.23071335120E-01  0.00000000000E+00 0. -1.
     999901    1    3    3    0    0 -0.43203186320E-01 -0.16536328234E-01  0.11858241575E+00  0.88915789081E+00  0.88000000000E+00 0.  1.
        -11    1    4    4    0    0  0.16158068351E-01  0.11018172804E-01 -0.23410270810E-01  0.30508772594E-01  0.51100000000E-03 0. -1.
         11    1    4    4    0    0  0.24427773795E-01  0.28410473098E-01 -0.93998345347E-01  0.10119200148E+00  0.51100000000E-03 0.  1.
</event>
<event>
 8    1  0.1183092E+005  0.1043930E+01  0.7957747E-01            NaN
         13   -1    0    0    0    0  0.00000000000E+00  0.00000000000E+00  0.74505805969E-08  0.10566000000E+00  0.10566000000E+00 0. -1.
     999900   -1    0    0    0    0 -0.00000000000E+00 -0.00000000000E+00 -0.74505805969E-08  0.93827000000E+00  0.93827000000E+00 0.  1.
     999902    2    1    2    0    0 -0.18392136417E-01  0.19238775962E-01  0.87634238759E-02  0.10159086014E+01  0.10155220764E+01 0.  0.
     999903    2    3    3    0    0 -0.12547670103E+00 -0.13439562203E-02 -0.20971887734E-01  0.12867980248E+00  0.19299294559E-01 0.  0.
         14    1    1    2    0    0  0.18392136417E-01 -0.19238775962E-01 -0.87634238759E-02  0.28021398618E-01  0.00000000000E+00 0. -1.
     999901    1    3    3    0    0  0.10708456462E+00  0.20582732182E-01  0.29735311610E-01  0.88722879890E+00  0.88000000000E+00 0. -1.
        -11    1    4    4    0    0 -0.22468975464E-01  0.65616819678E-02 -0.86239688032E-03  0.23428943170E-01  0.51100000000E-03 0.  1.
         11    1    4    4    0    0 -0.10300772557E+00 -0.79056381882E-02 -0.20109490854E-01  0.10525085931E+00  0.51100000000E-03 0. -1.
</event>
<event>
 8    1  0.1183092E+005  0.1043930E+01  0.7957747E-01            NaN
         13   -1    0    0    0    0  0.00000000000E+00  0.00000000000E+00  0.74505805969E-08  0.10566000000E+00  0.10566000000E+00 0. -1.
     999900   -1    0    0    0    0 -0.00000000000E+00 -0.00000000000E+00 -0.74505805969E-08  0.93827000000E+00  0.93827000000E+00 0.  1.
     999902    2    1    2    0    0 -0.21210845044E-01 -0.86832084271E-02  0.39995815178E-02  0.10206642589E+01  0.10203990566E+01 0.  0.
     999903    2    3    3    0    0  0.70998725150E-01  0.77227907635E-01 -0.71385950515E-01  0.12849482257E+00  0.20248377871E-01 0.  0.
         14    1    1    2    0    0  0.21210845044E-01  0.86832084271E-02 -0.39995815178E-02  0.23265741088E-01  0.00000000000E+00 0.  1.
     999901    1    3    3    0    0 -0.92209570193E-01 -0.85911116062E-01  0.75385532033E-01  0.89216943634E+00  0.88000000000E+00 0. -1.
        -11    1    4    4    0    0  0.28354061343E-02  0.34664618968E-02 -0.95234470740E-02  0.10536273117E-01  0.51100000000E-03 0.  1.
         11    1    4    4    0    0  0.68163319015E-01  0.73761445738E-01 -0.61862503441E-01  0.11795854946E+00  0.51100000000E-03 0. -1.
</event>
<event>
 8    1  0.1183092E+005  0.1043930E+01  0.7957747E-01            NaN
         13   -1    0    0    0    0  0.00000000000E+00  0.00000000000E+00  0.74505805969E-08  0.10566000000E+00  0.10566000000E+00 0. -1.
     999900   -1    0    0    0    0 -0.00000000000E+00 -0.00000000000E+00 -0.74505805969E-08  0.93827000000E+00  0.93827000000E+00 0. -1.
     999902    2    1    2    0    0  0.28570164400E-02 -0.10917393795E-01  0.17604797068E-01  0.10230187372E+01  0.10228049940E+01 0.  0.
     999903    2    3    3    0    0  0.28563356961E-01 -0.12705774360E+00 -0.24581720575E-01  0.13401418210E+00  0.19899860493E-01 0.  0.
         14    1    1    2    0    0 -0.28570164400E-02  0.10917393795E-01 -0.17604797068E-01  0.20911262755E-01  0.00000000000E+00 0.  1.
     999901    1    3    3    0    0 -0.25706340521E-01  0.11614034981E+00  0.42186517643E-01  0.88900455514E+00  0.88000000000E+00 0. -1.
        -11    1    4    4    0    0  0.80604893022E-02 -0.78095440280E-01 -0.17736110411E-01  0.80490372181E-01  0.51100000000E-03 0. -1.
         11    1    4    4    0    0  0.20502867659E-01 -0.48962303322E-01 -0.68456101642E-02  0.53523809920E-01  0.51100000000E-03 0.  1.
</event>
<event>
 8    1  0.1183092E+005  0.1043930E+01  0.7957747E-01            NaN
         13   -1    0    0    0    0  0.00000000000E+00  0.00000000000E+00  0.74505805969E-08  0.10566000000E+00  0.10566000000E+00 0. -1.
     999900   -1    0    0    0    0 -0.00000000000E+00 -0.00000000000E+00 -0.74505805969E-08  0.93827000000E+00  0.93827000000E+00 0.  1.
     999902    2    1    2    0    0 -0.21066156790E-01 -0.93839164047E-03  0.87046027684E-02  0.10211169851E+01  0.10208621178E+01 0.  0.
     999903    2    3    3    0    0  0.37299172848E-01 -0.84924095399E-02 -0.12200497630E+00  0.12951810163E+00  0.20648852138E-01 0.  0.
         14    1    1    2    0    0  0.21066156790E-01  0.93839164047E-03 -0.87046027684E-02  0.22813014929E-01  0.00000000000E+00 0.  1.
     999901    1    3    3    0    0 -0.58365329639E-01  0.75540178994E-02  0.13070957906E+00  0.89159888344E+00  0.88000000000E+00 0. -1.
        -11    1    4    4    0    0  0.16497347408E-01  0.58335443519E-02 -0.38885394048E-01  0.42644198931E-01  0.51100000000E-03 0.  1.
         11    1    4    4    0    0  0.20801825441E-01 -0.14325953892E-01 -0.83119582248E-01  0.86873902702E-01  0.51100000000E-03 0. -1.
</event>
<event>
 8    1  0.1183092E+005  0.1043930E+01  0.7957747E-01            NaN
         13   -1    0    0    0    0  0.00000000000E+00  0.00000000000E+00  0.74505805969E-08  0.10566000000E+00  0.10566000000E+00 0.  1.
     999900   -1    0    0    0    0 -0.00000000000E+00 -0.00000000000E+00 -0.74505805969E-08  0.93827000000E+00  0.93827000000E+00 0.  1.
     999902    2    1    2    0    0  0.99197781875E-02  0.98058311917E-02  0.19004345364E-01  0.10203562547E+01  0.10200839010E+01 0.  0.
     999903    2    3    3    0    0  0.69666504395E-01  0.11037460245E+00  0.10819975333E-01  0.13257771646E+00  0.20586508587E-01 0.  0.
         14    1    1    2    0    0 -0.99197781875E-02 -0.98058311917E-02 -0.19004345364E-01  0.23573745298E-01  0.00000000000E+00 0. -1.
     999901    1    3    3    0    0 -0.59746726207E-01 -0.10056877126E+00  0.81843700319E-02  0.88777853824E+00  0.88000000000E+00 0. -1.
        -11    1    4    4    0    0  0.13982711030E-01  0.35890920209E-01 -0.26293018814E-02  0.38611510079E-01  0.51100000000E-03 0. -1.
         11    1    4    4    0    0  0.55683793364E-01  0.74483682241E-01  0.13449277214E-01  0.93966206384E-01  0.51100000000E-03 0.  1.
</event>
<event>
 8    1  0.1183092E+005  0.1043930E+01  0.7957747E-01            NaN
         13   -1    0    0    0    0  0.00000000000E+00  0.00000000000E+00  0.74505805969E-08  0.10566000000E+00  0.10566000000E+00 0. -1.
     999900   -1    0    0    0    0 -0.00000000000E+00 -0.00000000000E+00 -0.74505805969E-08  0.93827000000E+00  0.93827000000E+00 0. -1.
     999902    2    1    2    0    0 -0.15802938944E-01 -0.31116951517E-02 -0.11006150850E-01  0.10244222866E+01  0.10242365305E+01 0.  0.
     999903    2    3    3    0    0 -0.44948349088E-01  0.12176053239E+00  0.27969640788E-01  0.13427530969E+00  0.20039377610E-01 0.  0.
         14    1    1    2    0    0  0.15802938944E-01  0.31116951517E-02  0.11006150850E-01  0.19507713411E-01  0.00000000000E+00 0. -1.
     999901    1    3    3    0    0  0.29145410143E-01 -0.12487222754E+00 -0.38975791638E-01  0.89014697690E+00  0.88000000000E+00 0. -1.
        -11    1    4    4    0    0 -0.81891265367E-02  0.45489578435E-01  0.15142024972E-01  0.48640575458E-01  0.51100000000E-03 0.  1.
         11    1    4    4    0    0 -0.36759222551E-01  0.76270953950E-01  0.12827615816E-01  0.85634734235E-01  0.51100000000E-03 0. -1.
</event>
<event>
 8    1  0.1183092E+005  0.1043930E+01  0.7957747E-01            NaN
         13   -1    0    0    0    0  0.00000000000E+00  0.00000000000E+00  0.74505805969E-08  0.10566000000E+00  0.10566000000E+00 0.  1.
     999900   -1    0    0    0    0 -0.00000000000E+00 -0.00000000000E+00 -0.74505805969E-08  0.93827000000E+00  0.93827000000E+00 0.  1.
     999902    2    1    2    0    0  0.18979243226E-01 -0.15541257077E-02 -0.13837863393E-01  0.10203903857E+01  0.10201188292E+01 0.  0.
     999903    2    3    3    0    0  0.11200878715E+00 -0.22775035522E-01  0.62806156209E-01  0.13192027991E+00  0.19841278990E-01 0.  0.
         14    1    1    2    0    0 -0.18979243226E-01  0.15541257077E-02  0.13837863393E-01  0.23539614344E-01  0.00000000000E+00 0.  1.
     999901    1    3    3    0    0 -0.93029543928E-01  0.21220909815E-01 -0.76644019602E-01  0.88847010574E+00  0.88000000000E+00 0.  1.
        -11    1    4    4    0    0  0.20617268362E-01  0.29960842747E-02  0.83029442389E-02  0.22433195932E-01  0.51100000000E-03 0. -1.
         11    1    4    4    0    0  0.91391518792E-01 -0.25771119797E-01  0.54503211970E-01  0.10948708398E+00  0.51100000000E-03 0.  1.
</event>
<event>
 8    1  0.1183092E+005  0.1043930E+01  0.7957747E-01            NaN
         13   -1    0    0    0    0  0.00000000000E+00  0.00000000000E+00  0.74505805969E-08  0.10566000000E+00  0.10566000000E+00 0.  1.
     999900   -1    0    0    0    0 -0.00000000000E+00 -0.00000000000E+00 -0.74505805969E-08  0.93827000000E+00  0.93827000000E+00 0.  1.
     999902    2    1    2    0    0  0.57468957068E-03 -0.14476455016E-01 -0.18914437687E-01  0.10201045101E+01  0.10198262389E+01 0.  0.
     999903    2    3    3    0    0  0.79191575952E-01 -0.96779709268E-01  0.33448775754E-01  0.13123087078E+00  0.21566247195E-01 0.  0.
         14    1    1    2    0    0 -0.57468957068E-03  0.14476455016E-01  0.18914437687E-01  0.23825489942E-01  0.00000000000E+00 0.  1.
     999901    1    3    3    0    0 -0.78616886381E-01  0.82303254252E-01 -0.52363213441E-01  0.88887363928E+00  0.88000000000E+00 0.  1.
        -11    1    4    4    0    0  0.38581725629E-01 -0.34115322173E-01  0.20541833317E-01  0.55449371471E-01  0.51100000000E-03 0. -1.
         11    1    4    4    0    0  0.40609850323E-01 -0.62664387095E-01  0.12906942437E-01  0.75781499308E-01  0.51100000000E-03 0.  1.
</event>
<event>
 8    1  0.1183092E+005  0.1043930E+01  0.7957747E-01            NaN
         13   -1    0    0    0    0  0.00000000000E+00  0.00000000000E+00  0.74505805969E-08  0.10566000000E+00  0.10566000000E+00 0.  1.
     999900   -1    0    0    0    0 -0.00000000000E+00 -0.00000000000E+00 -0.74505805969E-08  0.93827000000E+00  0.93827000000E+00 0. -1.
     999902    2    1    2    0    0  0.70441550994E-03 -0.82259570841E-02  0.24748160369E-01  0.10178410366E+01  0.10175066298E+01 0.  0.
     999903    2    3    3    0    0  0.45947749924E-01 -0.10398822741E+00 -0.54971887721E-01  0.12791258001E+00  0.20370874343E-01 0.  0.
         14    1    1    2    0    0 -0.70441550994E-03  0.82259570841E-02 -0.24748160369E-01  0.26088963430E-01  0.00000000000E+00 0. -1.
     999901    1    3    3    0    0 -0.45243334414E-01  0.95762270330E-01  0.79720048091E-01  0.88992845656E+00  0.88000000000E+00 0.  1.
        -11    1    4    4    0    0  0.31007460317E-01 -0.65779795484E-01 -0.45566360131E-01  0.85819568781E-01  0.51100000000E-03 0. -1.
         11    1    4    4    0    0  0.14940289606E-01 -0.38208431930E-01 -0.94055275909E-02  0.42093011229E-01  0.51100000000E-03 0.  1.
</event>
<event>
 8    1  0.1183092E+005  0.1043930E+01  0.7957747E-01            NaN
         13   -1    0    0    0    0  0.00000000000E+00  0.00000000000E+00  0.74505805969E-08  0.10566000000E+00  0.10566000000E+00 0. -1.
     999900   -1    0    0    0    0 -0.00000000000E+00 -0.00000000000E+00 -0.74505805969E-08  0.93827000000E+00  0.93827000000E+00 0. -1.
     999902    2    1    2    0    0 -0.12234694087E-01 -0.16066079569E-01  0.12368033621E-01  0.10202493136E+01  0.10199744541E+01 0.  0.
     999903    2    3    3    0    0  0.11896316622E+00  0.29118402257E-01  0.35631674128E-01  0.12907272454E+00  0.19749322827E-01 0.  0.
         14    1    1    2    0    0  0.12234694087E-01  0.16066079569E-01 -0.12368033621E-01  0.23680686387E-01  0.00000000000E+00 0.  1.
     999901    1    3    3    0    0 -0.13119786030E+00 -0.45184481827E-01 -0.23263640507E-01  0.89117658908E+00  0.88000000000E+00 0. -1.
        -11    1    4    4    0    0  0.58897449773E-01  0.96745697126E-02  0.82577960654E-02  0.60257441082E-01  0.51100000000E-03 0.  1.
         11    1    4    4    0    0  0.60065716443E-01  0.19443832545E-01  0.27373878063E-01  0.68815283456E-01  0.51100000000E-03 0. -1.
</event>
<event>
 8    1  0.1183092E+005  0.1043930E+01  0.7957747E-01            NaN
         13   -1    0    0    0    0  0.00000000000E+00  0.00000000000E+00  0.74505805969E-08  0.10566000000E+00  0.10566000000E+00 0. -1.
     999900   -1    0    0    0    0 -0.00000000000E+00 -0.00000000000E+00 -0.74505805969E-08  0.93827000000E+00  0.93827000000E+00 0. -1.
     999902    2    1    2    0    0  0.31237664104E-02  0.16075060598E-01 -0.14946192453E-01  0.10217589793E+01  0.10215184079E+01 0.  0.
     999903    2    3    3    0    0  0.39421616840E-02 -0.75013134787E-01 -0.10701469763E+00  0.13227916573E+00  0.20077877064E-01 0.  0.
         14    1    1    2    0    0 -0.31237664104E-02 -0.16075060598E-01  0.14946192453E-01  0.22171020695E-01  0.00000000000E+00 0. -1.
     999901    1    3    3    0    0 -0.81839527354E-03  0.91088195386E-01  0.92068505180E-01  0.88947981357E+00  0.88000000000E+00 0. -1.
        -11    1    4    4    0    0  0.91525713348E-02 -0.39832324443E-01 -0.45026434708E-01  0.60811385251E-01  0.51100000000E-03 0. -1.
         11    1    4    4    0    0 -0.52104096509E-02 -0.35180810344E-01 -0.61988262925E-01  0.71467780480E-01  0.51100000000E-03 0.  1.
</event>
<event>
 8    1  0.1183092E+005  0.1043930E+01  0.7957747E-01            NaN
         13   -1    0    0    0    0  0.00000000000E+00  0.00000000000E+00  0.74505805969E-08  0.10566000000E+00  0.10566000000E+00 0. -1.
     999900   -1    0    0    0    0 -0.00000000000E+00 -0.00000000000E+00 -0.74505805969E-08  0.93827000000E+00  0.93827000000E+00 0. -1.
     999902    2    1    2    0    0 -0.13203580161E-01 -0.35177684296E-02 -0.18935637390E-01  0.10205790346E+01  0.10203118632E+01 0.  0.
     999903    2    3    3    0    0 -0.23004111792E-01 -0.93354547497E-01  0.85097197337E-01  0.12985487524E+00  0.19403477276E-01 0.  0.
         14    1    1    2    0    0  0.13203580161E-01  0.35177684296E-02  0.18935637390E-01  0.23350965444E-01  0.00000000000E+00 0. -1.
     999901    1    3    3    0    0  0.98005316310E-02  0.89836779067E-01 -0.10403283473E+00  0.89072415932E+00  0.88000000000E+00 0. -1.
        -11    1    4    4    0    0 -0.19848825475E-01 -0.40841937296E-01  0.41750541554E-01  0.61687993612E-01  0.51100000000E-03 0. -1.
         11    1    4    4    0    0 -0.31552863173E-02 -0.52512610201E-01  0.43346655784E-01  0.68166881625E-01  0.51100000000E-03 0.  1.
</event>
<event>
 8    1  0.1183092E+005  0.1043930E+01  0.7957747E-01            NaN
         13   -1    0    0    0    0  0.00000000000E+00  0.00000000000E+00  0.74505805969E-08  0.10566000000E+00  0.10566000000E+00 0.  1.
     999900   -1    0    0    0    0 -0.00000000000E+00 -0.00000000000E+00 -0.74505805969E-08  0.93827000000E+00  0.93827000000E+00 0. -1.
     999902    2    1    2    0    0 -0.15642274808E-01 -0.12722411081E-01  0.12735869099E-01  0.10200816695E+01  0.10198028582E+01 0.  0.
     999903    2    3    3    0    0  0.25245071715E-01  0.97659480782E-01  0.79208498278E-01  0.12975894849E+00  0.19715747034E-01 0.  0.
         14    1    1    2    0    0  0.15642274808E-01  0.12722411081E-01 -0.12735869099E-01  0.23848330478E-01  0.00000000000E+00 0.  1.
     999901    1    3    3    0    0 -0.40887346523E-01 -0.11038189186E+00 -0.66472629179E-01  0.89032272103E+00  0.88000000000E+00 0. -1.
        -11    1    4    4    0    0  0.62501815275E-02  0.43358690990E-01  0.23669452534E-01  0.49795029449E-01  0.51100000000E-03 0.  1.
         11    1    4    4    0    0  0.18994890188E-01  0.54300789792E-01  0.55539045744E-01  0.79963919041E-01  0.51100000000E-03 0. -1.
</event>
<event>
 8    1  0.1183092E+005  0.1043930E+01  0.7957747E-01            NaN
         13   -1    0    0    0    0  0.00000000000E+00  0.00000000000E+00  0.74505805969E-08  0.10566000000E+00  0.10566000000E+00 0. -1.
     999900   -1    0    0    0    0 -0.00000000000E+00 -0.00000000000E+00 -0.74505805969E-08  0.93827000000E+00  0.93827000000E+00 0.  1.
     999902    2    1    2    0    0  0.64477600511E-02  0.33301602498E-02  0.22564615838E-01  0.10202271423E+01  0.10199517618E+01 0.  0.
     999903    2    3    3    0    0 -0.93144149706E-01 -0.39696023473E-01  0.81467812365E-01  0.13161058405E+00  0.20802270977E-01 0.  0.
         14    1    1    2    0    0 -0.64477600511E-02 -0.33301602498E-02 -0.22564615838E-01  0.23702857736E-01  0.00000000000E+00 0.  1.
     999901    1    3    3    0    0  0.99591909757E-01  0.43026183723E-01 -0.58903196528E-01  0.88861655822E+00  0.88000000000E+00 0.  1.
        -11    1    4    4    0    0 -0.38470967380E-01 -0.55970272044E-02  0.28713906475E-01  0.48333131398E-01  0.51100000000E-03 0. -1.
         11    1    4    4    0    0 -0.54673182326E-01 -0.34098996268E-01  0.52753905890E-01  0.83277452650E-01  0.51100000000E-03 0.  1.
</event>
<event>
 8    1  0.1183092E+005  0.1043930E+01  0.7957747E-01            NaN
         13   -1    0    0    0    0  0.00000000000E+00  0.00000000000E+00  0.74505805969E-08  0.10566000000E+00  0.10566000000E+00 0. -1.
     999900   -1    0    0    0    0 -0.00000000000E+00 -0.00000000000E+00 -0.74505805969E-08  0.93827000000E+00  0.93827000000E+00 0. -1.
     999902    2    1    2    0    0  0.19698869229E-01 -0.92294829042E-02 -0.10677899333E-01  0.10196968339E+01  0.10194088418E+01 0.  0.
     999903    2    3    3    0    0  0.79268173166E-02  0.19357284461E-01 -0.12782504924E+00  0.13139551163E+00  0.22090685110E-01 0.  0.
         14    1    1    2    0    0 -0.19698869229E-01  0.92294829042E-02  0.10677899333E-01  0.24233166069E-01  0.00000000000E+00 0.  1.
     999901    1    3    3    0    0  0.11772051912E-01 -0.28586767365E-01  0.11714714991E+00  0.88830132230E+00  0.88000000000E+00 0.  1.
        -11    1    4    4    0    0 -0.74558411646E-02  0.96770417714E-02 -0.53328822030E-01  0.54712513057E-01  0.51100000000E-03 0.  1.
         11    1    4    4    0    0  0.15382658481E-01  0.96802426894E-02 -0.74496227208E-01  0.76682998570E-01  0.51100000000E-03 0. -1.
</event>
<event>
 8    1  0.1183092E+005  0.1043930E+01  0.7957747E-01            NaN
         13   -1    0    0    0    0  0.00000000000E+00  0.00000000000E+00  0.74505805969E-08  0.10566000000E+00  0.10566000000E+00 0. -1.
     999900   -1    0    0    0    0 -0.00000000000E+00 -0.00000000000E+00 -0.74505805969E-08  0.93827000000E+00  0.93827000000E+00 0. -1.
     999902    2    1    2    0    0 -0.70182628585E-02  0.20488415814E-01 -0.10234645530E-01  0.10199763121E+01  0.10196950025E+01 0.  0.
     999903    2    3    3    0    0 -0.11036167005E+00  0.47392452945E-01  0.49845092933E-01  0.13148699757E+00  0.19456475187E-01 0.  0.
         14    1    1    2    0    0  0.70182628585E-02 -0.20488415814E-01  0.10234645530E-01  0.23953687925E-01  0.00000000000E+00 0. -1.
     999901    1    3    3    0    0  0.10334340719E+00 -0.26904037131E-01 -0.60079738463E-01  0.88848931451E+00  0.88000000000E+00 0. -1.
        -11    1    4    4    0    0 -0.72285804100E-01  0.30575507140E-01  0.22383255803E-01  0.81617218604E-01  0.51100000000E-03 0.  1.
         11    1    4    4    0    0 -0.38075865950E-01  0.16816945805E-01  0.27461837131E-01  0.49869778961E-01  0.51100000000E-03 0. -1.
</event>
<event>
 8    1  0.1183092E+005  0.1043930E+01  0.7957747E-01            NaN
         13   -1    0    0    0    0  0.00000000000E+00  0.00000000000E+00  0.74505805969E-08  0.10566000000E+00  0.10566000000E+00 0. -1.
     999900   -1    0    0    0    0 -0.00000000000E+00 -0.00000000000E+00 -0.74505805969E-08  0.93827000000E+00  0.93827000000E+00 0.  1.
     999902    2    1    2    0    0  0.50629101579E-02  0.19320886592E-01 -0.11460392715E-01  0.10209024009E+01  0.10206426612E+01 0.  0.
     999903    2    3    3    0    0 -0.10744607138E+00  0.31377190433E-01 -0.66621537262E-01  0.13194437196E+00  0.21016701244E-01 0.  0.
         14    1    1    2    0    0 -0.50629101579E-02 -0.19320886592E-01  0.11460392715E-01  0.23027599075E-01  0.00000000000E+00 0. -1.
     999901    1    3    3    0    0  0.11250898154E+00 -0.12056303841E-01  0.55161144547E-01  0.88895802896E+00  0.88000000000E+00 0.  1.
        -11    1    4    4    0    0 -0.44376138092E-01  0.55722788141E-02 -0.17919398426E-01  0.48183585214E-01  0.51100000000E-03 0. -1.
         11    1    4    4    0    0 -0.63069933287E-01  0.25804911619E-01 -0.48702138836E-01  0.83760786748E-01  0.51100000000E-03 0.  1.
</event>
<event>
 8    1  0.1183092E+005  0.1043930E+01  0.7957747E-01            NaN
         13   -1    0    0    0    0  0.00000000000E+00  0.00000000000E+00  0.74505805969E-08  0.10566000000E+00  0.10566000000E+00 0. -1.
     999900   -1    0    0    0    0 -0.00000000000E+00 -0.00000000000E+00 -0.74505805969E-08  0.93827000000E+00  0.93827000000E+00 0. -1.
     999902    2    1    2    0    0 -0.13383073434E-02 -0.12990863395E-01  0.19164857689E-01  0.10207385065E+01  0.10204750136E+01 0.  0.
     999903    2    3    3    0    0 -0.94822890587E-01  0.43052934559E-01 -0.73758190034E-01  0.12915846674E+00  0.19917408944E-01 0.  0.
         14    1    1    2    0    0  0.13383073434E-02  0.12990863395E-01 -0.19164857689E-01  0.23191493452E-01  0.00000000000E+00 0.  1.
     999901    1    3    3    0    0  0.93484583243E-01 -0.56043797954E-01  0.92923047723E-01  0.89158003981E+00  0.88000000000E+00 0.  1.
        -11    1    4    4    0    0 -0.44965652880E-01  0.10013833070E-01 -0.28773513202E-01  0.54317243806E-01  0.51100000000E-03 0.  1.
         11    1    4    4    0    0 -0.49857237706E-01  0.33039101489E-01 -0.44984676832E-01  0.74841222929E-01  0.51100000000E-03 0. -1.
</event>
<event>
 8    1  0.1183092E+005  0.1043930E+01  0.7957747E-01            NaN
         13   -1    0    0    0    0  0.00000000000E+00  0.00000000000E+00  0.74505805969E-08  0.10566000000E+00  0.10566000000E+00 0. -1.
     999900   -1    0    0    0    0 -0.00000000000E+00 -0.00000000000E+00 -0.74505805969E-08  0.93827000000E+00  0.93827000000E+00 0. -1.
     999902    2    1    2    0    0 -0.11270796837E-02  0.64975952791E-02  0.23054188156E-01  0.10199511626E+01  0.10196692549E+01 0.  0.
     999903    2    3    3    0    0 -0.94650229710E-02  0.98653300219E-01  0.86667908221E-01  0.13281594140E+00  0.17512500433E-01 0.  0.
         14    1    1    2    0    0  0.11270796837E-02 -0.64975952791E-02 -0.23054188156E-01  0.23978837431E-01  0.00000000000E+00 0.  1.
     999901    1    3    3    0    0  0.83379432873E-02 -0.92155704940E-01 -0.63613720065E-01  0.88713522117E+00  0.88000000000E+00 0. -1.
        -11    1    4    4    0    0 -0.38656184190E-02  0.22142487377E-01  0.29750176969E-01  0.37290305760E-01  0.51100000000E-03 0.  1.
         11    1    4    4    0    0 -0.55994045520E-02  0.76510812842E-01  0.56917731252E-01  0.95525635643E-01  0.51100000000E-03 0. -1.
</event>
<event>
 8    1  0.1183092E+005  0.1043930E+01  0.7957747E-01            NaN
         13   -1    0    0    0    0  0.00000000000E+00  0.00000000000E+00  0.74505805969E-08  0.10566000000E+00  0.10566000000E+00 0. -1.
     999900   -1    0    0    0    0 -0.00000000000E+00 -0.00000000000E+00 -0.74505805969E-08  0.93827000000E+00  0.93827000000E+00 0.  1.
     999902    2    1    2    0    0  0.66189426904E-02 -0.23632568753E-01 -0.41601186750E-03  0.10193844958E+01  0.10190889405E+01 0.  0.
     999903    2    3    3    0    0 -0.11581935114E-01  0.12238840081E+00  0.23628486416E-01  0.12684232127E+00  0.20435440293E-01 0.  0.
         14    1    1    2    0    0 -0.66189426904E-02  0.23632568753E-01  0.41601186750E-03  0.24545504152E-01  0.00000000000E+00 0. -1.
     999901    1    3    3    0    0  0.18200877804E-01 -0.14602096957E+00 -0.24044498284E-01  0.89254217458E+00  0.88000000000E+00 0.  1.
        -11    1    4    4    0    0  0.56922989688E-02  0.22145750900E-01  0.32751887485E-02  0.23104643100E-01  0.51100000000E-03 0.  1.
         11    1    4    4    0    0 -0.17274234082E-01  0.10024264991E+00  0.20353297668E-01  0.10373767817E+00  0.51100000000E-03 0. -1.
</event>
<event>
 8    1  0.1183092E+005  0.1043930E+01  0.7957747E-01            NaN
         13   -1    0    0    0    0  0.00000000000E+00  0.00000000000E+00  0.74505805969E-08  0.10566000000E+00  0.10566000000E+00 0. -1.
     999900   -1    0    0    0    0 -0.00000000000E+00 -0.00000000000E+00 -0.74505805969E-08  0.93827000000E+00  0.93827000000E+00 0.  1.
     999902    2    1    2    0    0 -0.73987820416E-02 -0.85714774293E-02  0.19186913507E-01  0.10216510895E+01  0.10214081451E+01 0.  0.
     999903    2    3    3    0    0 -0.87412468512E-01  0.49886422754E-01 -0.80712042597E-01  0.13047247807E+00  0.19468921088E-01 0.  0.
         14    1    1    2    0    0  0.73987820416E-02  0.85714774293E-02 -0.19186913507E-01  0.22278910452E-01  0.00000000000E+00 0.  1.
     999901    1    3    3    0    0  0.80013686470E-01 -0.58457900184E-01  0.99898956104E-01  0.89117861147E+00  0.88000000000E+00 0. -1.
        -11    1    4    4    0    0 -0.54819058239E-01  0.29881043664E-01 -0.61630113581E-01  0.87729914725E-01  0.51100000000E-03 0.  1.
         11    1    4    4    0    0 -0.32593410273E-01  0.20005379090E-01 -0.19081929016E-01  0.42742563350E-01  0.51100000000E-03 0. -1.
</event>
<event>
 8    1  0.1183092E+005  0.1043930E+01  0.7957747E-01            NaN
         13   -1    0    0    0    0  0.00000000000E+00  0.00000000000E+00  0.74505805969E-08  0.10566000000E+00  0.10566000000E+00 0. -1.
     999900   -1    0    0    0    0 -0.00000000000E+00 -0.00000000000E+00 -0.74505805969E-08  0.93827000000E+00  0.93827000000E+00 0. -1.
     999902    2    1    2    0    0 -0.35803392838E-02 -0.34696333829E-02 -0.23190242974E-01  0.10202098703E+01  0.10199340836E+01 0.  0.
     999903    2    3    3    0    0 -0.10611783247E+00 -0.49537192043E-01 -0.58334948096E-01  0.13236342647E+00  0.20054494104E-01 0.  0.
         14    1    1    2    0    0  0.35803392838E-02  0.34696333829E-02  0.23190242974E-01  0.23720129730E-01  0.00000000000E+00 0. -1.
     999901    1    3    3    0    0  0.10253749319E+00  0.46067558660E-01  0.35144705122E-01  0.88784644380E+00  0.88000000000E+00 0. -1.
        -11    1    4    4    0    0 -0.56884499767E-01 -0.35191114536E-01 -0.26177279347E-01  0.71831552475E-01  0.51100000000E-03 0. -1.
         11    1    4    4    0    0 -0.49233332704E-01 -0.14346077508E-01 -0.32157668749E-01  0.60531873995E-01  0.51100000000E-03 0.  1.
</event>
<event>
 8    1  0.1183092E+005  0.1043930E+01  0.7957747E-01            NaN
         13   -1    0    0    0    0  0.00000000000E+00  0.00000000000E+00  0.74505805969E-08  0.10566000000E+00  0.10566000000E+00 0.  1.
     999900   -1    0    0    0    0 -0.00000000000E+00 -0.00000000000E+00 -0.74505805969E-08  0.93827000000E+00  0.93827000000E+00 0. -1.
     999902    2    1    2    0    0 -0.76330280009E-02  0.16361175499E-01 -0.16032931393E-01  0.10197844814E+01  0.10194985936E+01 0.  0.
     999903    2    3    3    0    0 -0.95417043746E-01 -0.79894012856E-01 -0.32195937897E-01  0.13004725193E+00  0.19703902889E-01 0.  0.
         14    1    1    2    0    0  0.76330280009E-02 -0.16361175499E-01  0.16032931393E-01  0.24145518615E-01  0.00000000000E+00 0.  1.
     999901    1    3    3    0    0  0.87784015745E-01  0.96255188354E-01  0.16163006504E-01  0.88973722946E+00  0.88000000000E+00 0.  1.
        -11    1    4    4    0    0 -0.51982258837E-01 -0.31287104461E-01 -0.12490700758E-01  0.61946080310E-01  0.51100000000E-03 0.  1.
         11    1    4    4    0    0 -0.43434784909E-01 -0.48606908395E-01 -0.19705237139E-01  0.68101171616E-01  0.51100000000E-03 0. -1.
</event>
<event>
 8    1  0.1183092E+005  0.1043930E+01  0.7957747E-01            NaN
         13   -1    0    0    0    0  0.00000000000E+00  0.00000000000E+00  0.74505805969E-08  0.10566000000E+00  0.10566000000E+00 0. -1.
     999900   -1    0    0    0    0 -0.00000000000E+00 -0.00000000000E+00 -0.74505805969E-08  0.93827000000E+00  0.93827000000E+00 0.  1.
     999902    2    1    2    0    0  0.12220581794E-02 -0.22757778279E-01  0.94941509006E-02  0.10192409579E+01  0.10189418931E+01 0.  0.
     999903    2    3    3    0    0 -0.40863021294E-01  0.10373164070E+00 -0.56304302378E-01  0.12677237947E+00  0.21703039886E-01 0.  0.
         14    1    1    2    0    0 -0.12220581794E-02  0.22757778279E-01 -0.94941509006E-02  0.24689042098E-01  0.00000000000E+00 0. -1.
     999901    1    3    3    0    0  0.42085079473E-01 -0.12648941898E+00  0.65798453279E-01  0.89246857843E+00  0.88000000000E+00 0. -1.
        -11    1    4    4    0    0 -0.93144447264E-02  0.43697774649E-01 -0.13935019366E-01  0.46804917216E-01  0.51100000000E-03 0. -1.
         11    1    4    4    0    0 -0.31548576567E-01  0.60033866047E-01 -0.42369283012E-01  0.79967462258E-01  0.51100000000E-03 0.  1.
</event>
<event>
 8    1  0.1183092E+005  0.1043930E+01  0.7957747E-01            NaN
         13   -1    0    0    0    0  0.00000000000E+00  0.00000000000E+00  0.74505805969E-08  0.10566000000E+00  0.10566000000E+00 0.  1.
     999900   -1    0    0    0    0 -0.00000000000E+00 -0.00000000000E+00 -0.74505805969E-08  0.93827000000E+00  0.93827000000E+00 0. -1.
     999902    2    1    2    0    0 -0.14261631299E-01 -0.91553993273E-02 -0.16598801306E-01  0.10202079497E+01  0.10199321179E+01 0.  0.
     999903    2    3    3    0    0  0.11610674618E+00  0.39439762609E-01 -0.35168692007E-01  0.12908380325E+00  0.19736260527E-01 0.  0.
         14    1    1    2    0    0  0.14261631299E-01  0.91553993273E-02  0.16598801306E-01  0.23722050269E-01  0.00000000000E+00 0.  1.
     999901    1    3    3    0    0 -0.13036837748E+00 -0.48595161936E-01  0.18569890701E-01  0.89112414649E+00  0.88000000000E+00 0. -1.
        -11    1    4    4    0    0  0.10544743397E-01  0.99188220769E-02 -0.58049885812E-02  0.15605564973E-01  0.51100000000E-03 0.  1.
         11    1    4    4    0    0  0.10556200278E+00  0.29520940532E-01 -0.29363703426E-01  0.11347823827E+00  0.51100000000E-03 0. -1.
</event>
<event>
 8    1  0.1183092E+005  0.1043930E+01  0.7957747E-01            NaN
         13   -1    0    0    0    0  0.00000000000E+00  0.00000000000E+00  0.74505805969E-08  0.10566000000E+00  0.10566000000E+00 0.  1.
     999900   -1    0    0    0    0 -0.00000000000E+00 -0.00000000000E+00 -0.74505805969E-08  0.93827000000E+00  0.93827000000E+00 0. -1.
     999902    2    1    2    0    0  0.19239416197E-01  0.12276815210E-01 -0.84880904786E-02  0.10195799896E+01  0.10192891798E+01 0.  0.
     999903    2    3    3    0    0 -0.73255883409E-01  0.53734717567E-01  0.88525456356E-01  0.12846508881E+00  0.20314484810E-01 0.  0.
         14    1    1    2    0    0 -0.19239416197E-01 -0.12276815210E-01  0.84880904786E-02  0.24350010416E-01  0.00000000000E+00 0.  1.
     999901    1    3    3    0    0  0.92495299606E-01 -0.41457902357E-01 -0.97013546834E-01  0.89111490078E+00  0.88000000000E+00 0. -1.
        -11    1    4    4    0    0 -0.52750392207E-01  0.49033038887E-01  0.67156523248E-01  0.98473867174E-01  0.51100000000E-03 0.  1.
         11    1    4    4    0    0 -0.20505491202E-01  0.47016786799E-02  0.21368933107E-01  0.29991221632E-01  0.51100000000E-03 0. -1.
</event>
<event>
 8    1  0.1183092E+005  0.1043930E+01  0.7957747E-01            NaN
         13   -1    0    0    0    0  0.00000000000E+00  0.00000000000E+00  0.74505805969E-08  0.10566000000E+00  0.10566000000E+00 0.  1.
     999900   -1    0    0    0    0 -0.00000000000E+00 -0.00000000000E+00 -0.74505805969E-08  0.93827000000E+00  0.93827000000E+00 0.  1.
     999902    2    1    2    0    0 -0.19231086668E-01  0.13133646936E-01  0.74781838506E-02  0.10194708379E+01  0.10191773834E+01 0.  0.
     999903    2    3    3    0    0 -0.14077300464E-01  0.67818130147E-01  0.11038022191E+00  0.13177393939E+00  0.19573158827E-01 0.  0.
         14    1    1    2    0    0  0.19231086668E-01 -0.13133646936E-01 -0.74781838506E-02  0.24459162087E-01  0.00000000000E+00 0.  1.
     999901    1    3    3    0    0 -0.51537862046E-02 -0.54684483211E-01 -0.10290203806E+00  0.88769689853E+00  0.88000000000E+00 0. -1.
        -11    1    4    4    0    0  0.25588752983E-02  0.19171398000E-01  0.20233086189E-01  0.27995164614E-01  0.51100000000E-03 0.  1.
         11    1    4    4    0    0 -0.16636175762E-01  0.48646732148E-01  0.90147135726E-01  0.10377877477E+00  0.51100000000E-03 0. -1.
</event>
<event>
 8    1  0.1183092E+005  0.1043930E+01  0.7957747E-01            NaN
         13   -1    0    0    0    0  0.00000000000E+00  0.00000000000E+00  0.74505805969E-08  0.10566000000E+00  0.10566000000E+00 0. -1.
     999900   -1    0    0    0    0 -0.00000000000E+00 -0.00000000000E+00 -0.74505805969E-08  0.93827000000E+00  0.93827000000E+00 0.  1.
     999902    2    1    2    0    0  0.61374839184E-02 -0.40106472343E-03 -0.24266780816E-01  0.10188958990E+01  0.10185883107E+01 0.  0.
     999903    2    3    3    0    0  0.10099462867E+00 -0.20665180263E-01  0.73578701667E-01  0.12817582471E+00  0.19704111394E-01 0.  0.
         14    1    1    2    0    0 -0.61374839184E-02  0.40106472343E-03  0.24266780816E-01  0.25034101002E-01  0.00000000000E+00 0. -1.
     999901    1    3    3    0    0 -0.94857144756E-01  0.20264115539E-01 -0.97845482484E-01  0.89072007428E+00  0.88000000000E+00 0.  1.
        -11    1    4    4    0    0  0.44491609612E-01 -0.19027602839E-01  0.32358991954E-01  0.58214418119E-01  0.51100000000E-03 0.  1.
         11    1    4    4    0    0  0.56503019063E-01 -0.16375774241E-02  0.41219709713E-01  0.69961406595E-01  0.51100000000E-03 0. -1.
</event>
<event>
 8    1  0.1183092E+005  0.1043930E+01  0.7957747E-01            NaN
         13   -1    0    0    0    0  0.00000000000E+00  0.00000000000E+00  0.74505805969E-08  0.10566000000E+00  0.10566000000E+00 0. -1.
     999900   -1    0    0    0    0 -0.00000000000E+00 -0.00000000000E+00 -0.74505805969E-08  0.93827000000E+00  0.93827000000E+00 0. -1.
     999902    2    1    2    0    0 -0.12708563434E-02 -0.33087393753E-02 -0.23310017882E-01  0.10203520492E+01  0.10200795971E+01 0.  0.
     999903    2    3    3    0    0 -0.25064116822E-01  0.12602555580E+00 -0.11623025789E-01  0.13050371099E+00  0.19633471096E-01 0.  0.
         14    1    1    2    0    0  0.12708563434E-02  0.33087393753E-02  0.23310017882E-01  0.23577950839E-01  0.00000000000E+00 0. -1.
     999901    1    3    3    0    0  0.23793260478E-01 -0.12933429518E+00 -0.11686992093E-01  0.88984833817E+00  0.88000000000E+00 0.  1.
        -11    1    4    4    0    0 -0.11077031451E-01  0.97710590799E-01 -0.10522371494E-01  0.98899148646E-01  0.51100000000E-03 0. -1.
         11    1    4    4    0    0 -0.13987085371E-01  0.28314965005E-01 -0.11006542952E-02  0.31604562349E-01  0.51100000000E-03 0.  1.
</event>
<event>
 8    1  0.1183092E+005  0.1043930E+01  0.7957747E-01            NaN
         13   -1    0    0    0    0  0.00000000000E+00  0.00000000000E+00  0.74505805969E-08  0.10566000000E+00  0.10566000000E+00 0.  1.
     999900   -1    0    0    0    0 -0.00000000000E+00 -0.00000000000E+00 -0.74505805969E-08  0.93827000000E+00  0.93827000000E+00 0. -1.
     999902    2    1    2    0    0  0.19686096289E-01 -0.10601649637E-01 -0.15295551635E-01  0.10168395725E+01  0.10164786397E+01 0.  0.
     999903    2    3    3    0    0 -0.91866966472E-01  0.79704076106E-01  0.17751622449E-01  0.12460007235E+00  0.20439634394E-01 0.  0.
         14    1    1    2    0    0 -0.19686096289E-01  0.10601649637E-01  0.15295551635E-01  0.27090427497E-01  0.00000000000E+00 0.  1.
     999901    1    3    3    0    0  0.11155306276E+00 -0.90305725743E-01 -0.33047174084E-01  0.89223950015E+00  0.88000000000E+00 0. -1.
        -11    1    4    4    0    0 -0.26947125163E-01  0.36256034640E-01  0.51034956705E-02  0.45463770097E-01  0.51100000000E-03 0.  1.
         11    1    4    4    0    0 -0.64919841309E-01  0.43448041466E-01  0.12648126778E-01  0.79136302257E-01  0.51100000000E-03 0. -1.
</event>
<event>
 8    1  0.1183092E+005  0.1043930E+01  0.7957747E-01            NaN
         13   -1    0    0    0    0  0.00000000000E+00  0.00000000000E+00  0.74505805969E-08  0.10566000000E+00  0.10566000000E+00 0.  1.
     999900   -1    0    0    0    0 -0.00000000000E+00 -0.00000000000E+00 -0.74505805969E-08  0.93827000000E+00  0.93827000000E+00 0.  1.
     999902    2    1    2    0    0  0.14148985393E-01 -0.16967730652E-01  0.62983526629E-02  0.10209568218E+01  0.10206983222E+01 0.  0.
     999903    2    3    3    0    0  0.16754420107E-01  0.64919507267E-01 -0.10739725145E+00  0.12986816266E+00  0.28919146522E-01 0.  0.
         14    1    1    2    0    0 -0.14148985393E-01  0.16967730652E-01 -0.62983526629E-02  0.22973178218E-01  0.00000000000E+00 0. -1.
     999901    1    3    3    0    0 -0.26054347131E-02 -0.81887237920E-01  0.11369560412E+00  0.89108865912E+00  0.88000000000E+00 0. -1.
        -11    1    4    4    0    0  0.18871601960E-01  0.66941850934E-01 -0.99242076510E-01  0.12118828177E+00  0.51100000000E-03 0.  1.
         11    1    4    4    0    0 -0.21171818533E-02 -0.20223436665E-02 -0.81551749431E-02  0.86798808896E-02  0.51100000000E-03 0. -1.
</event>
<event>
 8    1  0.1183092E+005  0.1043930E+01  0.7957747E-01            NaN
         13   -1    0    0    0    0  0.00000000000E+00  0.00000000000E+00  0.74505805969E-08  0.10566000000E+00  0.10566000000E+00 0. -1.
     999900   -1    0    0    0    0 -0.00000000000E+00 -0.00000000000E+00 -0.74505805969E-08  0.93827000000E+00  0.93827000000E+00 0. -1.
     999902    2    1    2    0    0 -0.21392190931E-01  0.67835240033E-02  0.95987514219E-02  0.10195214347E+01  0.10192292077E+01 0.  0.
     999903    2    3    3    0    0 -0.68216889984E-01  0.95991657736E-01 -0.49298395913E-01  0.13181680054E+00  0.32823690076E-01 0.  0.
         14    1    1    2    0    0  0.21392190931E-01 -0.67835240033E-02 -0.95987514219E-02  0.24408565292E-01  0.00000000000E+00 0.  1.
     999901    1    3    3    0    0  0.46824699053E-01 -0.89208133732E-01  0.58897147335E-01  0.88770463417E+00  0.88000000000E+00 0.  1.
        -11    1    4    4    0    0 -0.22245275525E-01  0.49726092703E-01 -0.35866462159E-01  0.65224234817E-01  0.51100000000E-03 0. -1.
         11    1    4    4    0    0 -0.45971614459E-01  0.46265565032E-01 -0.13431933755E-01  0.66592565719E-01  0.51100000000E-03 0.  1.
</event>
<event>
 8    1  0.1183092E+005  0.1043930E+01  0.7957747E-01            NaN
         13   -1    0    0    0    0  0.00000000000E+00  0.00000000000E+00  0.74505805969E-08  0.10566000000E+00  0.10566000000E+00 0. -1.
     999900   -1    0    0    0    0 -0.00000000000E+00 -0.00000000000E+00 -0.74505805969E-08  0.93827000000E+00  0.93827000000E+00 0. -1.
     999902    2    1    2    0    0  0.13441952502E-01 -0.16882544555E-01 -0.98553743972E-02  0.10202058603E+01  0.10199299793E+01 0.  0.
     999903    2    3    3    0    0 -0.95704198419E-01 -0.86703952125E-01 -0.28677353020E-02  0.13069097103E+00  0.19875540100E-01 0.  0.
         14    1    1    2    0    0 -0.13441952502E-01  0.16882544555E-01  0.98553743972E-02  0.23724139652E-01  0.00000000000E+00 0.  1.
     999901    1    3    3    0    0  0.10914615092E+00  0.69821407571E-01 -0.69876390951E-02  0.88951488932E+00  0.88000000000E+00 0.  1.
        -11    1    4    4    0    0 -0.28756913454E-01 -0.36933254348E-01  0.40264602789E-02  0.46984027621E-01  0.51100000000E-03 0.  1.
         11    1    4    4    0    0 -0.66947284965E-01 -0.49770697778E-01 -0.68941955809E-02  0.83706943410E-01  0.51100000000E-03 0. -1.
</event>
<event>
 8    1  0.1183092E+005  0.1043930E+01  0.7957747E-01            NaN
         13   -1    0    0    0    0  0.00000000000E+00  0.00000000000E+00  0.74505805969E-08  0.10566000000E+00  0.10566000000E+00 0.  1.
     999900   -1    0    0    0    0 -0.00000000000E+00 -0.00000000000E+00 -0.74505805969E-08  0.93827000000E+00  0.93827000000E+00 0.  1.
     999902    2    1    2    0    0 -0.46208074458E-02  0.22582051578E-01 -0.34023176564E-02  0.10206302858E+01  0.10203642995E+01 0.  0.
     999903    2    3    3    0    0 -0.88028371678E-01  0.35618368625E-01 -0.89975250752E-01  0.13236138506E+00  0.20157581778E-01 0.  0.
         14    1    1    2    0    0  0.46208074458E-02 -0.22582051578E-01  0.34023176564E-02  0.23299714169E-01  0.00000000000E+00 0. -1.
     999901    1    3    3    0    0  0.83407564232E-01 -0.13036317047E-01  0.86572933095E-01  0.88826890077E+00  0.88000000000E+00 0. -1.
        -11    1    4    4    0    0 -0.60677597730E-01  0.23727756372E-01 -0.48267029782E-01  0.81084798660E-01  0.51100000000E-03 0.  1.
         11    1    4    4    0    0 -0.27350773948E-01  0.11890612253E-01 -0.41708220970E-01  0.51276586399E-01  0.51100000000E-03 0. -1.
</event>
<event>
 8    1  0.1183092E+005  0.1043930E+01  0.7957747E-01            NaN
         13   -1    0    0    0    0  0.00000000000E+00  0.00000000000E+00  0.74505805969E-08  0.10566000000E+00  0.10566000000E+00 0.  1.
     999900   -1    0    0    0    0 -0.00000000000E+00 -0.00000000000E+00 -0.74505805969E-08  0.93827000000E+00  0.93827000000E+00 0.  1.
     999902    2    1    2    0    0 -0.17263200091E-01 -0.13957660892E-02  0.16323979189E-01  0.10201300307E+01  0.10198523624E+01 0.  0.
     999903    2    3    3    0    0  0.10669315669E+00  0.56394151169E-01 -0.37497795321E-01  0.12794079278E+00  0.19975781136E-01 0.  0.
         14    1    1    2    0    0  0.17263200091E-01  0.13957660892E-02 -0.16323979189E-01  0.23799969263E-01  0.00000000000E+00 0. -1.
     999901    1    3    3    0    0 -0.12395635678E+00 -0.57789917258E-01  0.53821774510E-01  0.89218923796E+00  0.88000000000E+00 0. -1.
        -11    1    4    4    0    0  0.86630265538E-01  0.43904682291E-01 -0.21721346779E-01  0.99521364847E-01  0.51100000000E-03 0.  1.
         11    1    4    4    0    0  0.20062891150E-01  0.12489468878E-01 -0.15776448542E-01  0.28419427928E-01  0.51100000000E-03 0. -1.
</event>
<event>
 8    1  0.1183092E+005  0.1043930E+01  0.7957747E-01            NaN
         13   -1    0    0    0    0  0.00000000000E+00  0.00000000000E+00  0.74505805969E-08  0.10566000000E+00  0.10566000000E+00 0.  1.
     999900   -1    0    0    0    0 -0.00000000000E+00 -0.00000000000E+00 -0.74505805969E-08  0.93827000000E+00  0.93827000000E+00 0.  1.
     999902    2    1    2    0    0 -0.19064542144E-01  0.11638689926E-01 -0.56050963793E-02  0.10209010405E+01  0.10206412697E+01 0.  0.
     999903    2    3    3    0    0 -0.98631584597E-01  0.86077616345E-01 -0.20250122745E-01  0.13406027418E+00  0.20604468576E-01 0.  0.
         14    1    1    2    0    0  0.19064542144E-01 -0.11638689926E-01  0.56050963793E-02  0.23028959503E-01  0.00000000000E+00 0.  1.
     999901    1    3    3    0    0  0.79567042453E-01 -0.74438926419E-01  0.14645026366E-01  0.88684076632E+00  0.88000000000E+00 0.  1.
        -11    1    4    4    0    0 -0.49893146819E-01  0.48490914662E-01 -0.20412958820E-01  0.72509619452E-01  0.51100000000E-03 0. -1.
         11    1    4    4    0    0 -0.48738437778E-01  0.37586701683E-01  0.16283607410E-03  0.61550654725E-01  0.51100000000E-03 0.  1.
</event>
<event>
 8    1  0.1183092E+005  0.1043930E+01  0.7957747E-01            NaN
         13   -1    0    0    0    0  0.00000000000E+00  0.00000000000E+00  0.74505805969E-08  0.10566000000E+00  0.10566000000E+00 0. -1.
     999900   -1    0    0    0    0 -0.00000000000E+00 -0.00000000000E+00 -0.74505805969E-08  0.93827000000E+00  0.93827000000E+00 0.  1.
     999902    2    1    2    0    0 -0.10082070528E-01 -0.10612229404E-01  0.19520098386E-01  0.10195311927E+01  0.10192392020E+01 0.  0.
     999903    2    3    3    0    0 -0.98247980278E-01 -0.25769785151E-01  0.82646802001E-01  0.13274601018E+00  0.21777554564E-01 0.  0.
         14    1    1    2    0    0  0.10082070528E-01  0.10612229404E-01 -0.19520098386E-01  0.24398807349E-01  0.00000000000E+00 0.  1.
     999901    1    3    3    0    0  0.88165909750E-01  0.15157555746E-01 -0.63126703614E-01  0.88678518247E+00  0.88000000000E+00 0.  1.
        -11    1    4    4    0    0 -0.98015857493E-02  0.27386313295E-02  0.38014558669E-02  0.10875815945E-01  0.51100000000E-03 0.  1.
         11    1    4    4    0    0 -0.88446394528E-01 -0.28508416480E-01  0.78845346134E-01  0.12187019424E+00  0.51100000000E-03 0. -1.
</event>
<event>
 8    1  0.1183092E+005  0.1043930E+01  0.7957747E-01            NaN
         13   -1    0    0    0    0  0.00000000000E+00  0.00000000000E+00  0.74505805969E-08  0.10566000000E+00  0.10566000000E+00 0. -1.
     999900   -1    0    0    0    0 -0.00000000000E+00 -0.00000000000E+00 -0.74505805969E-08  0.93827000000E+00  0.93827000000E+00 0. -1.
     999902    2    1    2    0    0 -0.18992918050E-01  0.82447485614E-02 -0.10679619769E-01  0.10206327664E+01  0.10203668373E+01 0.  0.
     999903    2    3    3    0    0  0.58833593257E-01 -0.54936944329E-01  0.97929374934E-01  0.12830726194E+00  0.19827542578E-01 0.  0.
         14    1    1    2    0    0  0.18992918050E-01 -0.82447485614E-02  0.10679619769E-01  0.23297233597E-01  0.00000000000E+00 0.  1.
     999901    1    3    3    0    0 -0.77826511307E-01  0.63181692890E-01 -0.10860899470E+00  0.89232550446E+00  0.88000000000E+00 0. -1.
        -11    1    4    4    0    0  0.45202780803E-01 -0.35042384531E-01  0.79565852521E-01  0.97991051195E-01  0.51100000000E-03 0.  1.
         11    1    4    4    0    0  0.13630812454E-01 -0.19894559798E-01  0.18363522413E-01  0.30316210748E-01  0.51100000000E-03 0. -1.
</event>
<event>
 8    1  0.1183092E+005  0.1043930E+01  0.7957747E-01            NaN
         13   -1    0    0    0    0  0.00000000000E+00  0.00000000000E+00  0.74505805969E-08  0.10566000000E+00  0.10566000000E+00 0. -1.
     999900   -1    0    0    0    0 -0.00000000000E+00 -0.00000000000E+00 -0.74505805969E-08  0.93827000000E+00  0.93827000000E+00 0. -1.
     999902    2    1    2    0    0 -0.97640752239E-02  0.16039365286E-01  0.13897438787E-01  0.10205689810E+01  0.10203015769E+01 0.  0.
     999903    2    3    3    0    0 -0.34204619382E-01 -0.10974020889E+00 -0.53680129494E-01  0.12872562636E+00  0.21814241832E-01 0.  0.
         14    1    1    2    0    0  0.97640752239E-02 -0.16039365286E-01 -0.13897438787E-01  0.23361018997E-01  0.00000000000E+00 0.  1.
     999901    1    3    3    0    0  0.24440544158E-01  0.12577957417E+00  0.67577568281E-01  0.89184335464E+00  0.88000000000E+00 0.  1.
        -11    1    4    4    0    0 -0.22184514774E-01 -0.96200023824E-01 -0.42871631487E-01  0.10763287224E+00  0.51100000000E-03 0.  1.
         11    1    4    4    0    0 -0.12020104608E-01 -0.13540185063E-01 -0.10808498007E-01  0.21092754123E-01  0.51100000000E-03 0. -1.
</event>
<event>
 8    1  0.1183092E+005  0.1043930E+01  0.7957747E-01            NaN
         13   -1    0    0    0    0  0.00000000000E+00  0.00000000000E+00  0.74505805969E-08  0.10566000000E+00  0.10566000000E+00 0. -1.
     999900   -1    0    0    0    0 -0.00000000000E+00 -0.00000000000E+00 -0.74505805969E-08  0.93827000000E+00  0.93827000000E+00 0. -1.
     999902    2    1    2    0    0  0.18803758942E-01 -0.14722566792E-01  0.11071892147E-02  0.10200226540E+01  0.10197424447E+01 0.  0.
     999903    2    3    3    0    0  0.95759606746E-01  0.13625177200E-01 -0.86526057909E-01  0.13187549106E+00  0.23427306849E-01 0.  0.
         14    1    1    2    0    0 -0.18803758942E-01  0.14722566792E-01 -0.11071892147E-02  0.23907345968E-01  0.00000000000E+00 0. -1.
     999901    1    3    3    0    0 -0.76955847804E-01 -0.28347743992E-01  0.87633247124E-01  0.88814716298E+00  0.88000000000E+00 0.  1.
        -11    1    4    4    0    0  0.15340533321E-01 -0.49668004403E-02 -0.21030679144E-01  0.26505691001E-01  0.51100000000E-03 0.  1.
         11    1    4    4    0    0  0.80419073425E-01  0.18591977641E-01 -0.65495378765E-01  0.10536980006E+00  0.51100000000E-03 0. -1.
</event>
<event>
 8    1  0.1183092E+005  0.1043930E+01  0.7957747E-01            NaN
         13   -1    0    0    0    0  0.00000000000E+00  0.00000000000E+00  0.74505805969E-08  0.10566000000E+00  0.10566000000E+00 0.  1.
     999900   -1    0    0    0    0 -0.00000000000E+00 -0.00000000000E+00 -0.74505805969E-08  0.93827000000E+00  0.93827000000E+00 0. -1.
     999902    2    1    2    0    0  0.56601220545E-02  0.24619237089E-01 -0.44412307596E-02  0.10182810556E+01  0.10179579755E+01 0.  0.
     999903    2    3    3    0    0 -0.88189647360E-02 -0.11673523976E-01 -0.12676887235E+00  0.12896060700E+00  0.18613056184E-01 0.  0.
         14    1    1    2    0    0 -0.56601220545E-02 -0.24619237089E-01  0.44412307596E-02  0.25648944368E-01  0.00000000000E+00 0. -1.
     999901    1    3    3    0    0  0.14479086791E-01  0.36292761065E-01  0.12232764159E+00  0.88932044863E+00  0.88000000000E+00 0.  1.
        -11    1    4    4    0    0 -0.11563079047E-01 -0.15174508910E-01 -0.10724428502E+00  0.10892918943E+00  0.51100000000E-03 0. -1.
         11    1    4    4    0    0  0.27441143113E-02  0.35009849342E-02 -0.19524587323E-01  0.20031417574E-01  0.51100000000E-03 0.  1.
</event>
<event>
 8    1  0.1183092E+005  0.1043930E+01  0.7957747E-01            NaN
         13   -1    0    0    0    0  0.00000000000E+00  0.00000000000E+00  0.74505805969E-08  0.10566000000E+00  0.10566000000E+00 0. -1.
     999900   -1    0    0    0    0 -0.00000000000E+00 -0.00000000000E+00 -0.74505805969E-08  0.93827000000E+00  0.93827000000E+00 0.  1.
     999902    2    1    2    0    0 -0.89427880441E-02  0.10679431081E-01  0.18801531845E-01  0.10205308268E+01  0.10202625384E+01 0.  0.
     999903    2    3    3    0    0 -0.11555748750E+00  0.14897532163E-01  0.61079883224E-01  0.13307832357E+00  0.20090263469E-01 0.  0.
         14    1    1    2    0    0  0.89427880441E-02 -0.10679431081E-01 -0.18801531845E-01  0.23399173189E-01  0.00000000000E+00 0.  1.
     999901    1    3    3    0    0  0.10661469946E+00 -0.42181010817E-02 -0.42278351379E-01  0.88745250324E+00  0.88000000000E+00 0.  1.
        -11    1    4    4    0    0 -0.74748578594E-01  0.19108755211E-01  0.38019539112E-01  0.86013028099E-01  0.51100000000E-03 0.  1.
         11    1    4    4    0    0 -0.40808908909E-01 -0.42112230485E-02  0.23060344112E-01  0.47065295468E-01  0.51100000000E-03 0. -1.
</event>
<event>
 8    1  0.1183092E+005  0.1043930E+01  0.7957747E-01            NaN
         13   -1    0    0    0    0  0.00000000000E+00  0.00000000000E+00  0.74505805969E-08  0.10566000000E+00  0.10566000000E+00 0.  1.
     999900   -1    0    0    0    0 -0.00000000000E+00 -0.00000000000E+00 -0.74505805969E-08  0.93827000000E+00  0.93827000000E+00 0. -1.
     999902    2    1    2    0    0 -0.13157130354E-01  0.82574497199E-02 -0.17092842025E-01  0.10208332296E+01  0.10205719092E+01 0.  0.
     999903    2    3    3    0    0  0.24795478207E-02  0.33068640934E-01 -0.12774054591E+00  0.13341956320E+00  0.19581869253E-01 0.  0.
         14    1    1    2    0    0  0.13157130354E-01 -0.82574497199E-02  0.17092842025E-01  0.23096770413E-01  0.00000000000E+00 0.  1.
     999901    1    3    3    0    0 -0.15636678175E-01 -0.24811191215E-01  0.11064770389E+00  0.88741366639E+00  0.88000000000E+00 0.  1.
        -11    1    4    4    0    0 -0.40947295449E-02  0.19701922191E-01 -0.44307781177E-01  0.48665934100E-01  0.51100000000E-03 0.  1.
         11    1    4    4    0    0  0.65742773656E-02  0.13366718744E-01 -0.83432764737E-01  0.84753629100E-01  0.51100000000E-03 0. -1.
</event>
<event>
 7    1  0.1183092E+005  0.1043930E+01  0.7957747E-01            NaN
         13   -1    0    0    0    0  0.00000000000E+00  0.00000000000E+00  0.74505805969E-08  0.10566000000E+00  0.10566000000E+00 0.  1.
     999900   -1    0    0    0    0 -0.00000000000E+00 -0.00000000000E+00 -0.74505805969E-08  0.93827000000E+00  0.93827000000E+00 0.  1.
     999903    2    1    2    0    0  0.87288834717E-01 -0.74728319191E-01 -0.33348866896E-01  0.12115610973E+00  0.19052392171E-01 0.  0.
         14    1    1    2    0    0 -0.15076584703E-01  0.35069441531E-01 -0.19340196908E-02  0.38221846734E-01  0.00000000000E+00 0. -1.
     999901    1    1    2    0    0 -0.72212250015E-01  0.39658877660E-01  0.35282886587E-01  0.88455204353E+00  0.88000000000E+00 0. -1.
        -11    1    3    3    0    0  0.52267254101E-01 -0.35901881837E-01 -0.11316411296E-01  0.64413766047E-01  0.51100000000E-03 0. -1.
         11    1    3    3    0    0  0.35021580616E-01 -0.38826437354E-01 -0.22032455600E-01  0.56742343688E-01  0.51100000000E-03 0.  1.
</event>
<event>
 8    1  0.1183092E+005  0.1043930E+01  0.7957747E-01            NaN
         13   -1    0    0    0    0  0.00000000000E+00  0.00000000000E+00  0.74505805969E-08  0.10566000000E+00  0.10566000000E+00 0. -1.
     999900   -1    0    0    0    0 -0.00000000000E+00 -0.00000000000E+00 -0.74505805969E-08  0.93827000000E+00  0.93827000000E+00 0. -1.
     999902    2    1    2    0    0 -0.15819462831E-01  0.36006006659E-02 -0.17859866976E-01  0.10198012914E+01  0.10195158064E+01 0.  0.
     999903    2    3    3    0    0 -0.11384516048E+00 -0.30184005533E-01 -0.57963668777E-01  0.13280706825E+00  0.20152809345E-01 0.  0.
         14    1    1    2    0    0  0.15819462831E-01 -0.36006006659E-02  0.17859866976E-01  0.24128708581E-01  0.00000000000E+00 0. -1.
     999901    1    3    3    0    0  0.98025697649E-01  0.33784606199E-01  0.40103801801E-01  0.88699422317E+00  0.88000000000E+00 0.  1.
        -11    1    4    4    0    0 -0.57097283061E-01 -0.72082759336E-02 -0.35335439910E-01  0.67534534939E-01  0.51100000000E-03 0. -1.
         11    1    4    4    0    0 -0.56747877418E-01 -0.22975729599E-01 -0.22628228868E-01  0.65272533311E-01  0.51100000000E-03 0.  1.
</event>
<event>
 8    1  0.1183092E+005  0.1043930E+01  0.7957747E-01            NaN
         13   -1    0    0    0    0  0.00000000000E+00  0.00000000000E+00  0.74505805969E-08  0.10566000000E+00  0.10566000000E+00 0. -1.
     999900   -1    0    0    0    0 -0.00000000000E+00 -0.00000000000E+00 -0.74505805969E-08  0.93827000000E+00  0.93827000000E+00 0.  1.
     999902    2    1    2    0    0  0.44093666210E-02 -0.21718617325E-01 -0.13054227511E-01  0.10182093136E+01  0.10178844004E+01 0.  0.
     999903    2    3    3    0    0 -0.43568480728E-01  0.11656467546E+00 -0.66349890904E-03  0.12603350523E+00  0.19961666536E-01 0.  0.
         14    1    1    2    0    0 -0.44093666210E-02  0.21718617325E-01  0.13054227511E-01  0.25720686391E-01  0.00000000000E+00 0.  1.
     999901    1    3    3    0    0  0.47977847349E-01 -0.13828329279E+00 -0.12390728602E-01  0.89217580838E+00  0.88000000000E+00 0. -1.
        -11    1    4    4    0    0 -0.36777039777E-01  0.71462571651E-01  0.12133157006E-02  0.80381484545E-01  0.51100000000E-03 0. -1.
         11    1    4    4    0    0 -0.67914409511E-02  0.45102103813E-01 -0.18768146096E-02  0.45652020685E-01  0.51100000000E-03 0.  1.
</event>
<event>
 8    1  0.1183092E+005  0.1043930E+01  0.7957747E-01            NaN
         13   -1    0    0    0    0  0.00000000000E+00  0.00000000000E+00  0.74505805969E-08  0.10566000000E+00  0.10566000000E+00 0.  1.
     999900   -1    0    0    0    0 -0.00000000000E+00 -0.00000000000E+00 -0.74505805969E-08  0.93827000000E+00  0.93827000000E+00 0. -1.
     999902    2    1    2    0    0  0.31476327272E-02  0.23420566116E-01 -0.10286972602E-01  0.10181569072E+01  0.10178306516E+01 0.  0.
     999903    2    3    3    0    0  0.28618066028E-01  0.85995604861E-01  0.90632295690E-01  0.12981627590E+00  0.20586760494E-01 0.  0.
         14    1    1    2    0    0 -0.31476327272E-02 -0.23420566116E-01  0.10286972602E-01  0.25773092835E-01  0.00000000000E+00 0. -1.
     999901    1    3    3    0    0 -0.25470433301E-01 -0.62575038745E-01 -0.10091926829E+00  0.88834063127E+00  0.88000000000E+00 0. -1.
        -11    1    4    4    0    0  0.24210052119E-01  0.48857160339E-01  0.44198455789E-01  0.70191975005E-01  0.51100000000E-03 0.  1.
         11    1    4    4    0    0  0.44080139090E-02  0.37138444522E-01  0.46433839900E-01  0.59624300893E-01  0.51100000000E-03 0. -1.
</event>
<event>
 8    1  0.1183092E+005  0.1043930E+01  0.7957747E-01            NaN
         13   -1    0    0    0    0  0.00000000000E+00  0.00000000000E+00  0.74505805969E-08  0.10566000000E+00  0.10566000000E+00 0.  1.
     999900   -1    0    0    0    0 -0.00000000000E+00 -0.00000000000E+00 -0.74505805969E-08  0.93827000000E+00  0.93827000000E+00 0.  1.
     999902    2    1    2    0    0  0.86270095294E-02 -0.21357099116E-01 -0.25663550716E-02  0.10207537804E+01  0.10204906384E+01 0.  0.
     999903    2    3    3    0    0  0.37314344181E-01  0.26417443581E-01 -0.12102574727E+00  0.13106956806E+00  0.21018053254E-01 0.  0.
         14    1    1    2    0    0 -0.86270095294E-02  0.21357099116E-01  0.25663550716E-02  0.23176219589E-01  0.00000000000E+00 0.  1.
     999901    1    3    3    0    0 -0.28687334651E-01 -0.47774542697E-01  0.11845939220E+00  0.88968421235E+00  0.88000000000E+00 0. -1.
        -11    1    4    4    0    0  0.16566647141E-01 -0.12300516290E-03 -0.37138198883E-01  0.40669102092E-01  0.51100000000E-03 0. -1.
         11    1    4    4    0    0  0.20747697040E-01  0.26540448744E-01 -0.83887548390E-01  0.90400465972E-01  0.51100000000E-03 0.  1.
</event>
<event>
 8    1  0.1183092E+005  0.1043930E+01  0.7957747E-01            NaN
         13   -1    0    0    0    0  0.00000000000E+00  0.00000000000E+00  0.74505805969E-08  0.10566000000E+00  0.10566000000E+00 0. -1.
     999900   -1    0    0    0    0 -0.00000000000E+00 -0.00000000000E+00 -0.74505805969E-08  0.93827000000E+00  0.93827000000E+00 0. -1.
     999902    2    1    2    0    0 -0.75119204050E-02 -0.12979829208E-01 -0.18491250609E-01  0.10201217816E+01  0.10198439185E+01 0.  0.
     999903    2    3    3    0    0 -0.36691712203E-01 -0.11485945121E+00  0.48914264031E-01  0.13120422578E+00  0.16821663466E-01 0.  0.
         14    1    1    2    0    0  0.75119204050E-02  0.12979829208E-01  0.18491250609E-01  0.23808218403E-01  0.00000000000E+00 0.  1.
     999901    1    3    3    0    0  0.29179791798E-01  0.10187962200E+00 -0.67405514640E-01  0.88891755581E+00  0.88000000000E+00 0. -1.
        -11    1    4    4    0    0  0.50496581637E-03 -0.33503987186E-02  0.42384442377E-02  0.54502928917E-02  0.51100000000E-03 0. -1.
         11    1    4    4    0    0 -0.37196678019E-01 -0.11150905249E+00  0.44675819793E-01  0.12575393289E+00  0.51100000000E-03 0.  1.
</event>
<event>
 8    1  0.1183092E+005  0.1043930E+01  0.7957747E-01            NaN
         13   -1    0    0    0    0  0.00000000000E+00  0.00000000000E+00  0.74505805969E-08  0.10566000000E+00  0.10566000000E+00 0. -1.
     999900   -1    0    0    0    0 -0.00000000000E+00 -0.00000000000E+00 -0.74505805969E-08  0.93827000000E+00  0.93827000000E+00 0.  1.
     999902    2    1    2    0    0 -0.96413502539E-02  0.20898975016E-01 -0.27697339610E-02  0.10207482352E+01  0.10204849658E+01 0.  0.
     999903    2    3    3    0    0  0.79561506228E-01 -0.96699538963E-01  0.14957527586E-01  0.12827929130E+00  0.23473705179E-01 0.  0.
         14    1    1    2    0    0  0.96413502539E-02 -0.20898975016E-01  0.27697339610E-02  0.23181764766E-01  0.00000000000E+00 0.  1.
     999901    1    3    3    0    0 -0.89202856482E-01  0.11759851398E+00 -0.17727261547E-01  0.89246894394E+00  0.88000000000E+00 0. -1.
        -11    1    4    4    0    0  0.42670597027E-01 -0.50209393429E-01 -0.38868012557E-02  0.66008570536E-01  0.51100000000E-03 0.  1.
         11    1    4    4    0    0  0.36890909201E-01 -0.46490145533E-01  0.18844328842E-01  0.62270720759E-01  0.51100000000E-03 0. -1.
</event>
<event>
 8    1  0.1183092E+005  0.1043930E+01  0.7957747E-01            NaN
         13   -1    0    0    0    0  0.00000000000E+00  0.00000000000E+00  0.74505805969E-08  0.10566000000E+00  0.10566000000E+00 0.  1.
     999900   -1    0    0    0    0 -0.00000000000E+00 -0.00000000000E+00 -0.74505805969E-08  0.93827000000E+00  0.93827000000E+00 0.  1.
     999902    2    1    2    0    0  0.13005188131E-01  0.11106158834E-01 -0.29758754396E-01  0.10096070464E+01  0.10090234501E+01 0.  0.
     999903    2    3    3    0    0 -0.19181520210E-01 -0.19601664327E-01  0.11157910927E+00  0.11721960456E+00  0.23203062461E-01 0.  0.
         14    1    1    2    0    0 -0.13005188131E-01 -0.11106158834E-01  0.29758754396E-01  0.34322953626E-01  0.00000000000E+00 0.  1.
     999901    1    3    3    0    0  0.32186708341E-01  0.30707823161E-01 -0.14133786366E+00  0.89238744181E+00  0.88000000000E+00 0.  1.
        -11    1    4    4    0    0 -0.14256882447E-02 -0.17546544189E-01  0.64422638268E-01  0.66786609753E-01  0.51100000000E-03 0.  1.
         11    1    4    4    0    0 -0.17755831965E-01 -0.20551201377E-02  0.47156470998E-01  0.50432994810E-01  0.51100000000E-03 0. -1.
</event>
<event>
 8    1  0.1183092E+005  0.1043930E+01  0.7957747E-01            NaN
         13   -1    0    0    0    0  0.00000000000E+00  0.00000000000E+00  0.74505805969E-08  0.10566000000E+00  0.10566000000E+00 0. -1.
     999900   -1    0    0    0    0 -0.00000000000E+00 -0.00000000000E+00 -0.74505805969E-08  0.93827000000E+00  0.93827000000E+00 0. -1.
     999902    2    1    2    0    0  0.19064160580E-01 -0.10862334314E-01 -0.70948200222E-02  0.10208698830E+01  0.10206094008E+01 0.  0.
     999903    2    3    3    0    0 -0.97819326210E-01 -0.76611543123E-01  0.31384994760E-01  0.12987863495E+00  0.21106700355E-01 0.  0.
         14    1    1    2    0    0 -0.19064160580E-01  0.10862334314E-01  0.70948200222E-02  0.23060117010E-01  0.00000000000E+00 0. -1.
     999901    1    3    3    0    0  0.11688348679E+00  0.65749208809E-01 -0.38479814782E-01  0.89099124804E+00  0.88000000000E+00 0. -1.
        -11    1    4    4    0    0 -0.80991745822E-01 -0.63782191326E-01  0.33992312914E-01  0.10855215005E+00  0.51100000000E-03 0. -1.
         11    1    4    4    0    0 -0.16827580388E-01 -0.12829351797E-01 -0.26073181541E-02  0.21326484900E-01  0.51100000000E-03 0.  1.
</event>
<event>
 8    1  0.1183092E+005  0.1043930E+01  0.7957747E-01            NaN
         13   -1    0    0    0    0  0.00000000000E+00  0.00000000000E+00  0.74505805969E-08  0.10566000000E+00  0.10566000000E+00 0. -1.
     999900   -1    0    0    0    0 -0.00000000000E+00 -0.00000000000E+00 -0.74505805969E-08  0.93827000000E+00  0.93827000000E+00 0. -1.
     999902    2    1    2    0    0  0.19112660308E-01  0.16712090525E-01  0.51254382892E-02  0.10180290759E+01  0.10176995340E+01 0.  0.
     999903    2    3    3    0    0  0.41445813958E-01  0.96852864981E-01 -0.74425849063E-01  0.13053275429E+00  0.20033970733E-01 0.  0.
         14    1    1    2    0    0 -0.19112660308E-01 -0.16712090525E-01 -0.51254382892E-02  0.25900924142E-01  0.00000000000E+00 0.  1.
     999901    1    3    3    0    0 -0.22333153650E-01 -0.80140774456E-01  0.79551287352E-01  0.88749632157E+00  0.88000000000E+00 0. -1.
        -11    1    4    4    0    0  0.26225679149E-01  0.44108073075E-01 -0.44951397158E-01  0.68221679726E-01  0.51100000000E-03 0. -1.
         11    1    4    4    0    0  0.15220134808E-01  0.52744791906E-01 -0.29474451905E-01  0.62311074560E-01  0.51100000000E-03 0.  1.
</event>
<event>
 8    1  0.1183092E+005  0.1043930E+01  0.7957747E-01            NaN
         13   -1    0    0    0    0  0.00000000000E+00  0.00000000000E+00  0.74505805969E-08  0.10566000000E+00  0.10566000000E+00 0.  1.
     999900   -1    0    0    0    0 -0.00000000000E+00 -0.00000000000E+00 -0.74505805969E-08  0.93827000000E+00  0.93827000000E+00 0. -1.
     999902    2    1    2    0    0 -0.55324057652E-02  0.10530054931E-01  0.19949084262E-01  0.10207038179E+01  0.10204395271E+01 0.  0.
     999903    2    3    3    0    0 -0.34713449146E-01 -0.91202850345E-01  0.86391855802E-01  0.13187551101E+00  0.20115024027E-01 0.  0.
         14    1    1    2    0    0  0.55324057652E-02 -0.10530054931E-01 -0.19949084262E-01  0.23226182064E-01  0.00000000000E+00 0. -1.
     999901    1    3    3    0    0  0.29181043381E-01  0.10173290528E+00 -0.66442771540E-01  0.88882830693E+00  0.88000000000E+00 0.  1.
        -11    1    4    4    0    0 -0.18718416642E-01 -0.73135437993E-01  0.66130384625E-01  0.10036264396E+00  0.51100000000E-03 0. -1.
         11    1    4    4    0    0 -0.15995032504E-01 -0.18067412352E-01  0.20261471177E-01  0.31512867041E-01  0.51100000000E-03 0.  1.
</event>
<event>
 8    1  0.1183092E+005  0.1043930E+01  0.7957747E-01            NaN
         13   -1    0    0    0    0  0.00000000000E+00  0.00000000000E+00  0.74505805969E-08  0.10566000000E+00  0.10566000000E+00 0.  1.
     999900   -1    0    0    0    0 -0.00000000000E+00 -0.00000000000E+00 -0.74505805969E-08  0.93827000000E+00  0.93827000000E+00 0. -1.
     999902    2    1    2    0    0 -0.19330515225E-01 -0.94439116588E-02  0.97070954706E-02  0.10203273733E+01  0.10200543440E+01 0.  0.
     999903    2    3    3    0    0  0.51334850669E-01  0.10668691082E+00 -0.45011035969E-01  0.12820964798E+00  0.19858414861E-01 0.  0.
         14    1    1    2    0    0  0.19330515225E-01  0.94439116588E-02 -0.97070954706E-02  0.23602626735E-01  0.00000000000E+00 0.  1.
     999901    1    3    3    0    0 -0.70665365894E-01 -0.11613082248E+00  0.54718131439E-01  0.89211772529E+00  0.88000000000E+00 0.  1.
        -11    1    4    4    0    0  0.37975421945E-01  0.69123109987E-01 -0.38659954566E-01  0.87835017016E-01  0.51100000000E-03 0.  1.
         11    1    4    4    0    0  0.13359428723E-01  0.37563800837E-01 -0.63510814026E-02  0.40374630960E-01  0.51100000000E-03 0. -1.
</event>
<event>
 8    1  0.1183092E+005  0.1043930E+01  0.7957747E-01            NaN
         13   -1    0    0    0    0  0.00000000000E+00  0.00000000000E+00  0.74505805969E-08  0.10566000000E+00  0.10566000000E+00 0. -1.
     999900   -1    0    0    0    0 -0.00000000000E+00 -0.00000000000E+00 -0.74505805969E-08  0.93827000000E+00  0.93827000000E+00 0.  1.
     999902    2    1    2    0    0 -0.11798308819E-01  0.38983570204E-02 -0.15076296913E-01  0.10243930604E+01  0.10242067420E+01 0.  0.
     999903    2    3    3    0    0  0.45406645414E-01  0.11120531210E+00 -0.58194054587E-01  0.13498520664E+00  0.20151256400E-01 0.  0.
         14    1    1    2    0    0  0.11798308819E-01 -0.38983570204E-02  0.15076296913E-01  0.19536939552E-01  0.00000000000E+00 0. -1.
     999901    1    3    3    0    0 -0.57204954233E-01 -0.10730695508E+00  0.43117757674E-01  0.88940785381E+00  0.88000000000E+00 0. -1.
        -11    1    4    4    0    0  0.38270107842E-01  0.87807180859E-01 -0.54600659820E-01  0.11025513747E+00  0.51100000000E-03 0. -1.
         11    1    4    4    0    0  0.71365375720E-02  0.23398131239E-01 -0.35933947673E-02  0.24730069166E-01  0.51100000000E-03 0.  1.
</event>
<event>
 8    1  0.1183092E+005  0.1043930E+01  0.7957747E-01            NaN
         13   -1    0    0    0    0  0.00000000000E+00  0.00000000000E+00  0.74505805969E-08  0.10566000000E+00  0.10566000000E+00 0.  1.
     999900   -1    0    0    0    0 -0.00000000000E+00 -0.00000000000E+00 -0.74505805969E-08  0.93827000000E+00  0.93827000000E+00 0.  1.
     999902    2    1    2    0    0 -0.53972507940E-02 -0.34731337865E-01  0.14592828666E-01  0.10058728483E+01  0.10051526452E+01 0.  0.
     999903    2    3    3    0    0  0.99278169424E-02 -0.63028008533E-01 -0.97470000214E-01  0.11818279154E+00  0.19891703451E-01 0.  0.
         14    1    1    2    0    0  0.53972507940E-02  0.34731337865E-01 -0.14592828666E-01  0.38057151687E-01  0.00000000000E+00 0. -1.
     999901    1    3    3    0    0 -0.15325067736E-01  0.28296670668E-01  0.11206282888E+00  0.88769005677E+00  0.88000000000E+00 0. -1.
        -11    1    4    4    0    0 -0.54505836492E-02 -0.10004208564E-01 -0.20501624717E-01  0.23459982697E-01  0.51100000000E-03 0. -1.
         11    1    4    4    0    0  0.15378400592E-01 -0.53023799970E-01 -0.76968375497E-01  0.94722808846E-01  0.51100000000E-03 0.  1.
</event>
<event>
 8    1  0.1183092E+005  0.1043930E+01  0.7957747E-01            NaN
         13   -1    0    0    0    0  0.00000000000E+00  0.00000000000E+00  0.74505805969E-08  0.10566000000E+00  0.10566000000E+00 0.  1.
     999900   -1    0    0    0    0 -0.00000000000E+00 -0.00000000000E+00 -0.74505805969E-08  0.93827000000E+00  0.93827000000E+00 0.  1.
     999902    2    1    2    0    0  0.29450449383E-01  0.19051001486E-01 -0.13135452306E-01  0.10064758983E+01  0.10057787650E+01 0.  0.
     999903    2    3    3    0    0  0.17765799677E-03 -0.80729276274E-01 -0.83022284189E-01  0.11760179619E+00  0.20499638640E-01 0.  0.
         14    1    1    2    0    0 -0.29450449383E-01 -0.19051001486E-01  0.13135452306E-01  0.37454101694E-01  0.00000000000E+00 0.  1.
     999901    1    3    3    0    0  0.29272791386E-01  0.99780277760E-01  0.69886831883E-01  0.88887410212E+00  0.88000000000E+00 0. -1.
        -11    1    4    4    0    0  0.53146976982E-02 -0.24437537513E-01 -0.37232523164E-01  0.44854889961E-01  0.51100000000E-03 0. -1.
         11    1    4    4    0    0 -0.51370397015E-02 -0.56291738762E-01 -0.45789761026E-01  0.72746906226E-01  0.51100000000E-03 0.  1.
</event>
<event>
 8    1  0.1183092E+005  0.1043930E+01  0.7957747E-01            NaN
         13   -1    0    0    0    0  0.00000000000E+00  0.00000000000E+00  0.74505805969E-08  0.10566000000E+00  0.10566000000E+00 0. -1.
     999900   -1    0    0    0    0 -0.00000000000E+00 -0.00000000000E+00 -0.74505805969E-08  0.93827000000E+00  0.93827000000E+00 0.  1.
     999902    2    1    2    0    0 -0.51535151539E-02 -0.19388504737E-01 -0.11955396029E-01  0.10205761068E+01  0.10203088676E+01 0.  0.
     999903    2    3    3    0    0  0.60533981459E-01  0.66369725987E-01 -0.92153773945E-01  0.13035079756E+00  0.20729421944E-01 0.  0.
         14    1    1    2    0    0  0.51535151539E-02  0.19388504737E-01  0.11955396029E-01  0.23353893221E-01  0.00000000000E+00 0. -1.
     999901    1    3    3    0    0 -0.65687496613E-01 -0.85758230724E-01  0.80198377916E-01  0.89022530922E+00  0.88000000000E+00 0. -1.
        -11    1    4    4    0    0  0.43743701232E-01  0.34303057168E-01 -0.49812979422E-01  0.74644525375E-01  0.51100000000E-03 0. -1.
         11    1    4    4    0    0  0.16790280227E-01  0.32066668819E-01 -0.42340794522E-01  0.55706272188E-01  0.51100000000E-03 0.  1.
</event>
<event>
 8    1  0.1183092E+005  0.1043930E+01  0.7957747E-01            NaN
         13   -1    0    0    0    0  0.00000000000E+00  0.00000000000E+00  0.74505805969E-08  0.10566000000E+00  0.10566000000E+00 0. -1.
     999900   -1    0    0    0    0 -0.00000000000E+00 -0.00000000000E+00 -0.74505805969E-08  0.93827000000E+00  0.93827000000E+00 0.  1.
     999902    2    1    2    0    0  0.55969501927E-02 -0.20753708418E-01 -0.10428796271E-01  0.10200385359E+01  0.10197587032E+01 0.  0.
     999903    2    3    3    0    0  0.78564265860E-01 -0.24463678728E-01  0.98992668065E-01  0.13025707404E+00  0.19913351298E-01 0.  0.
         14    1    1    2    0    0 -0.55969501927E-02  0.20753708418E-01  0.10428796271E-01  0.23891464087E-01  0.00000000000E+00 0. -1.
     999901    1    3    3    0    0 -0.72967315668E-01  0.37099703099E-02 -0.10942146434E+00  0.88978146187E+00  0.88000000000E+00 0.  1.
        -11    1    4    4    0    0  0.44190521205E-01 -0.66386273988E-02  0.41823370684E-01  0.61207262597E-01  0.51100000000E-03 0. -1.
         11    1    4    4    0    0  0.34373744655E-01 -0.17825051329E-01  0.57169297380E-01  0.69049811444E-01  0.51100000000E-03 0.  1.
</event>
<event>
 8    1  0.1183092E+005  0.1043930E+01  0.7957747E-01            NaN
         13   -1    0    0    0    0  0.00000000000E+00  0.00000000000E+00  0.74505805969E-08  0.10566000000E+00  0.10566000000E+00 0.  1.
     999900   -1    0    0    0    0 -0.00000000000E+00 -0.00000000000E+00 -0.74505805969E-08  0.93827000000E+00  0.93827000000E+00 0. -1.
     999902    2    1    2    0    0  0.96471434178E-03 -0.23372215816E-01  0.23062457385E-01  0.10110808282E+01  0.10105470663E+01 0.  0.
     999903    2    3    3    0    0 -0.20039621266E-01  0.11305454250E+00 -0.24267711357E-01  0.11906424353E+00  0.20111098245E-01 0.  0.
         14    1    1    2    0    0 -0.96471434178E-03  0.23372215816E-01 -0.23062457385E-01  0.32849171779E-01  0.00000000000E+00 0. -1.
     999901    1    3    3    0    0  0.21004335608E-01 -0.13642675831E+00  0.47330168742E-01  0.89201658469E+00  0.88000000000E+00 0.  1.
        -11    1    4    4    0    0 -0.10532984484E-01  0.78494155117E-01 -0.25476731994E-01  0.83196160631E-01  0.51100000000E-03 0. -1.
         11    1    4    4    0    0 -0.95066367828E-02  0.34560387379E-01  0.12090206371E-02  0.35868082895E-01  0.51100000000E-03 0.  1.
</event>
<event>
 8    1  0.1183092E+005  0.1043930E+01  0.7957747E-01            NaN
         13   -1    0    0    0    0  0.00000000000E+00  0.00000000000E+00  0.74505805969E-08  0.10566000000E+00  0.10566000000E+00 0. -1.
     999900   -1    0    0    0    0 -0.00000000000E+00 -0.00000000000E+00 -0.74505805969E-08  0.93827000000E+00  0.93827000000E+00 0.  1.
     999902    2    1    2    0    0 -0.13146983772E-01  0.64545258011E-02 -0.18329099965E-01  0.10204681162E+01  0.10201983710E+01 0.  0.
     999903    2    3    3    0    0 -0.56168888551E-01 -0.86125294373E-01  0.76209211325E-01  0.12953635693E+00  0.19982830201E-01 0.  0.
         14    1    1    2    0    0  0.13146983772E-01 -0.64545258011E-02  0.18329099965E-01  0.23461883793E-01  0.00000000000E+00 0. -1.
     999901    1    3    3    0    0  0.43021904779E-01  0.92579820174E-01 -0.94538311290E-01  0.89093175928E+00  0.88000000000E+00 0.  1.
        -11    1    4    4    0    0 -0.29952404552E-01 -0.28108233895E-01  0.29959459752E-01  0.50843384041E-01  0.51100000000E-03 0. -1.
         11    1    4    4    0    0 -0.26216483999E-01 -0.58017060478E-01  0.46249751573E-01  0.78692972884E-01  0.51100000000E-03 0.  1.
</event>
<event>
 8    1  0.1183092E+005  0.1043930E+01  0.7957747E-01            NaN
         13   -1    0    0    0    0  0.00000000000E+00  0.00000000000E+00  0.74505805969E-08  0.10566000000E+00  0.10566000000E+00 0. -1.
     999900   -1    0    0    0    0 -0.00000000000E+00 -0.00000000000E+00 -0.74505805969E-08  0.93827000000E+00  0.93827000000E+00 0. -1.
     999902    2    1    2    0    0  0.32434345638E-02 -0.14672525980E-01 -0.18407998372E-01  0.10201674814E+01  0.10198906965E+01 0.  0.
     999903    2    3    3    0    0  0.60157184966E-01  0.11009764862E+00  0.20279584935E-01  0.12870604052E+00  0.20337260561E-01 0.  0.
         14    1    1    2    0    0 -0.32434345638E-02  0.14672525980E-01  0.18407998372E-01  0.23762518605E-01  0.00000000000E+00 0.  1.
     999901    1    3    3    0    0 -0.56913750403E-01 -0.12477017460E+00 -0.38687583307E-01  0.89146144087E+00  0.88000000000E+00 0.  1.
        -11    1    4    4    0    0  0.57793852688E-01  0.91080910139E-01  0.15825412044E-01  0.10902553090E+00  0.51100000000E-03 0.  1.
         11    1    4    4    0    0  0.23633322779E-02  0.19016738484E-01  0.44541728904E-02  0.19680509627E-01  0.51100000000E-03 0. -1.
</event>
<event>
 8    1  0.1183092E+005  0.1043930E+01  0.7957747E-01            NaN
         13   -1    0    0    0    0  0.00000000000E+00  0.00000000000E+00  0.74505805969E-08  0.10566000000E+00  0.10566000000E+00 0. -1.
     999900   -1    0    0    0    0 -0.00000000000E+00 -0.00000000000E+00 -0.74505805969E-08  0.93827000000E+00  0.93827000000E+00 0.  1.
     999902    2    1    2    0    0  0.19462412723E-01 -0.10297864386E-02  0.10347472758E-01  0.10218638231E+01  0.10216255463E+01 0.  0.
     999903    2    3    3    0    0  0.24400682529E-01  0.84960381364E-01 -0.95091523507E-01  0.13139424061E+00  0.20208634604E-01 0.  0.
         14    1    1    2    0    0 -0.19462412723E-01  0.10297864386E-02 -0.10347472758E-01  0.22066176868E-01  0.00000000000E+00 0.  1.
     999901    1    3    3    0    0 -0.49382698063E-02 -0.85990167803E-01  0.10543899627E+00  0.89046958252E+00  0.88000000000E+00 0. -1.
        -11    1    4    4    0    0  0.36011261514E-02  0.88657345393E-02 -0.21374939916E-01  0.23424741960E-01  0.51100000000E-03 0. -1.
         11    1    4    4    0    0  0.20799556378E-01  0.76094646825E-01 -0.73716583591E-01  0.10796949865E+00  0.51100000000E-03 0.  1.
</event>
<event>
 8    1  0.1183092E+005  0.1043930E+01  0.7957747E-01            NaN
         13   -1    0    0    0    0  0.00000000000E+00  0.00000000000E+00  0.74505805969E-08  0.10566000000E+00  0.10566000000E+00 0. -1.
     999900   -1    0    0    0    0 -0.00000000000E+00 -0.00000000000E+00 -0.74505805969E-08  0.93827000000E+00  0.93827000000E+00 0. -1.
     999902    2    1    2    0    0 -0.10082850257E-01 -0.14817176600E-01  0.12424030730E-01  0.10221224524E+01  0.10218897879E+01 0.  0.
     999903    2    3    3    0    0  0.83847391981E-01 -0.75528869325E-01  0.68024047953E-01  0.13330291959E+00  0.20184202400E-01 0.  0.
         14    1    1    2    0    0  0.10082850257E-01  0.14817176600E-01 -0.12424030730E-01  0.21807547576E-01  0.00000000000E+00 0.  1.
     999901    1    3    3    0    0 -0.93930242237E-01  0.60711692725E-01 -0.55600017222E-01  0.88881953284E+00  0.88000000000E+00 0. -1.
        -11    1    4    4    0    0  0.32562708933E-01 -0.17099945503E-01  0.19120768258E-01  0.41456037547E-01  0.51100000000E-03 0.  1.
         11    1    4    4    0    0  0.51284683047E-01 -0.58428923822E-01  0.48903279695E-01  0.91846882039E-01  0.51100000000E-03 0. -1.
</event>
<event>
 8    1  0.1183092E+005  0.1043930E+01  0.7957747E-01            NaN
         13   -1    0    0    0    0  0.00000000000E+00  0.00000000000E+00  0.74505805969E-08  0.10566000000E+00  0.10566000000E+00 0. -1.
     999900   -1    0    0    0    0 -0.00000000000E+00 -0.00000000000E+00 -0.74505805969E-08  0.93827000000E+00  0.93827000000E+00 0. -1.
     999902    2    1    2    0    0 -0.31062604778E-02  0.16678063327E-01  0.16084971682E-01  0.10205519555E+01  0.10202841569E+01 0.  0.
     999903    2    3    3    0    0  0.35376851874E-01  0.11425374056E+00  0.55374645270E-01  0.13345238884E+00  0.20922472818E-01 0.  0.
         14    1    1    2    0    0  0.31062604778E-02 -0.16678063327E-01 -0.16084971682E-01  0.23378044497E-01  0.00000000000E+00 0.  1.
     999901    1    3    3    0    0 -0.38483112351E-01 -0.97575677229E-01 -0.39289673588E-01  0.88709956666E+00  0.88000000000E+00 0. -1.
        -11    1    4    4    0    0  0.31367451056E-01  0.74559629858E-01  0.43382841783E-01  0.91789909426E-01  0.51100000000E-03 0. -1.
         11    1    4    4    0    0  0.40094008174E-02  0.39694110698E-01  0.11991803486E-01  0.41662479414E-01  0.51100000000E-03 0.  1.
</event>
<event>
 8    1  0.1183092E+005  0.1043930E+01  0.7957747E-01            NaN
         13   -1    0    0    0    0  0.00000000000E+00  0.00000000000E+00  0.74505805969E-08  0.10566000000E+00  0.10566000000E+00 0. -1.
     999900   -1    0    0    0    0 -0.00000000000E+00 -0.00000000000E+00 -0.74505805969E-08  0.93827000000E+00  0.93827000000E+00 0. -1.
     999902    2    1    2    0    0 -0.20158583784E-01  0.64236061599E-02 -0.10644551026E-01  0.10202458770E+01  0.10199709368E+01 0.  0.
     999903    2    3    3    0    0  0.40544248056E-01  0.95430540593E-01 -0.77640326779E-01  0.13114773722E+00  0.20515469956E-01 0.  0.
         14    1    1    2    0    0  0.20158583784E-01 -0.64236061599E-02  0.10644551026E-01  0.23684123011E-01  0.00000000000E+00 0.  1.
     999901    1    3    3    0    0 -0.60702831840E-01 -0.89006934433E-01  0.66995775752E-01  0.88909813977E+00  0.88000000000E+00 0. -1.
        -11    1    4    4    0    0  0.12830664028E-01  0.40143338452E-01 -0.20183770179E-01  0.46730710042E-01  0.51100000000E-03 0. -1.
         11    1    4    4    0    0  0.27713584029E-01  0.55287202141E-01 -0.57456556600E-01  0.84417027178E-01  0.51100000000E-03 0.  1.
</event>
<event>
 8    1  0.1183092E+005  0.1043930E+01  0.7957747E-01            NaN
         13   -1    0    0    0    0  0.00000000000E+00  0.00000000000E+00  0.74505805969E-08  0.10566000000E+00  0.10566000000E+00 0. -1.
     999900   -1    0    0    0    0 -0.00000000000E+00 -0.00000000000E+00 -0.74505805969E-08  0.93827000000E+00  0.93827000000E+00 0.  1.
     999902    2    1    2    0    0 -0.40503207748E-02 -0.23106445944E-01  0.13595406948E-02  0.10204318874E+01  0.10201612988E+01 0.  0.
     999903    2    3    3    0    0 -0.51936934519E-01  0.78916253067E-01 -0.85335770640E-01  0.12901849519E+00  0.20937005168E-01 0.  0.
         14    1    1    2    0    0  0.40503207748E-02  0.23106445944E-01 -0.13595406948E-02  0.23498112550E-01  0.00000000000E+00 0.  1.
     999901    1    3    3    0    0  0.47886613744E-01 -0.10202269901E+00  0.86695311335E-01  0.89141339226E+00  0.88000000000E+00 0.  1.
        -11    1    4    4    0    0 -0.18749801859E-01  0.26513221418E-01 -0.16747334945E-01  0.36540940443E-01  0.51100000000E-03 0. -1.
         11    1    4    4    0    0 -0.33187132660E-01  0.52403031650E-01 -0.68588435695E-01  0.92477554749E-01  0.51100000000E-03 0.  1.
</event>
<event>
 8    1  0.1183092E+005  0.1043930E+01  0.7957747E-01            NaN
         13   -1    0    0    0    0  0.00000000000E+00  0.00000000000E+00  0.74505805969E-08  0.10566000000E+00  0.10566000000E+00 0. -1.
     999900   -1    0    0    0    0 -0.00000000000E+00 -0.00000000000E+00 -0.74505805969E-08  0.93827000000E+00  0.93827000000E+00 0. -1.
     999902    2    1    2    0    0 -0.59800289190E-02  0.16374072363E-01  0.15496332476E-01  0.10206060357E+01  0.10203394890E+01 0.  0.
     999903    2    3    3    0    0 -0.58753454304E-01 -0.77191069074E-01 -0.82150481680E-01  0.12871233661E+00  0.20192434661E-01 0.  0.
         14    1    1    2    0    0  0.59800289190E-02 -0.16374072363E-01 -0.15496332476E-01  0.23323964325E-01  0.00000000000E+00 0.  1.
     999901    1    3    3    0    0  0.52773425385E-01  0.93565141438E-01  0.97646814156E-01  0.89189369907E+00  0.88000000000E+00 0.  1.
        -11    1    4    4    0    0 -0.45256822115E-01 -0.70235341588E-01 -0.73169906228E-01  0.11106430324E+00  0.51100000000E-03 0. -1.
         11    1    4    4    0    0 -0.13496632189E-01 -0.69557274865E-02 -0.89805754515E-02  0.17648033368E-01  0.51100000000E-03 0.  1.
</event>
<event>
 8    1  0.1183092E+005  0.1043930E+01  0.7957747E-01            NaN
         13   -1    0    0    0    0  0.00000000000E+00  0.00000000000E+00  0.74505805969E-08  0.10566000000E+00  0.10566000000E+00 0.  1.
     999900   -1    0    0    0    0 -0.00000000000E+00 -0.00000000000E+00 -0.74505805969E-08  0.93827000000E+00  0.93827000000E+00 0. -1.
     999902    2    1    2    0    0 -0.22069000138E-03  0.49756351857E-02 -0.23412306330E-01  0.10199937986E+01  0.10197129044E+01 0.  0.
     999903    2    3    3    0    0  0.12178340208E+00  0.26826418955E-02 -0.44942287463E-01  0.13131286802E+00  0.19618015067E-01 0.  0.
         14    1    1    2    0    0  0.22069000138E-03 -0.49756351857E-02  0.23412306330E-01  0.23936201396E-01  0.00000000000E+00 0.  1.
     999901    1    3    3    0    0 -0.12200409208E+00  0.22929932902E-02  0.21529981133E-01  0.88868093059E+00  0.88000000000E+00 0. -1.
        -11    1    4    4    0    0  0.23294947705E-01 -0.70428903497E-02 -0.10674589194E-01  0.26579406850E-01  0.51100000000E-03 0. -1.
         11    1    4    4    0    0  0.98488454373E-01  0.97255322452E-02 -0.34267698269E-01  0.10473346117E+00  0.51100000000E-03 0.  1.
</event>
<event>
 8    1  0.1183092E+005  0.1043930E+01  0.7957747E-01            NaN
         13   -1    0    0    0    0  0.00000000000E+00  0.00000000000E+00  0.74505805969E-08  0.10566000000E+00  0.10566000000E+00 0. -1.
     999900   -1    0    0    0    0 -0.00000000000E+00 -0.00000000000E+00 -0.74505805969E-08  0.93827000000E+00  0.93827000000E+00 0.  1.
     999902    2    1    2    0    0  0.13713372773E-01  0.11292884842E-01  0.11168757408E-01  0.10229460303E+01  0.10227307828E+01 0.  0.
     999903    2    3    3    0    0  0.13230653995E+00  0.85807666205E-02 -0.14859132463E-01  0.13460536036E+00  0.17865025915E-01 0.  0.
         14    1    1    2    0    0 -0.13713372773E-01 -0.11292884842E-01 -0.11168757408E-01  0.20983969666E-01  0.00000000000E+00 0.  1.
     999901    1    3    3    0    0 -0.11859316717E+00  0.27121182218E-02  0.26027889872E-01  0.88834066998E+00  0.88000000000E+00 0. -1.
        -11    1    4    4    0    0  0.53027153886E-01  0.12215184784E-01 -0.61267458561E-02  0.54762102994E-01  0.51100000000E-03 0. -1.
         11    1    4    4    0    0  0.79279386060E-01 -0.36344181632E-02 -0.87323866073E-02  0.79843257362E-01  0.51100000000E-03 0.  1.
</event>
<event>
 8    1  0.1183092E+005  0.1043930E+01  0.7957747E-01            NaN
         13   -1    0    0    0    0  0.00000000000E+00  0.00000000000E+00  0.74505805969E-08  0.10566000000E+00  0.10566000000E+00 0. -1.
     999900   -1    0    0    0    0 -0.00000000000E+00 -0.00000000000E+00 -0.74505805969E-08  0.93827000000E+00  0.93827000000E+00 0. -1.
     999902    2    1    2    0    0  0.16597670178E-01 -0.17054075567E-01 -0.18191591636E-02  0.10200630042E+01  0.10197837511E+01 0.  0.
     999903    2    3    3    0    0 -0.47110226066E-01 -0.11198713206E+00  0.48418507938E-01  0.13124648519E+00  0.10990760545E-01 0.  0.
         14    1    1    2    0    0 -0.16597670178E-01  0.17054075567E-01  0.18191591636E-02  0.23866995807E-01  0.00000000000E+00 0. -1.
     999901    1    3    3    0    0  0.63707896245E-01  0.94933056489E-01 -0.50237667101E-01  0.88881651900E+00  0.88000000000E+00 0. -1.
        -11    1    4    4    0    0 -0.13419173302E-01 -0.43861828024E-01  0.15478174135E-01  0.48412489765E-01  0.51100000000E-03 0. -1.
         11    1    4    4    0    0 -0.33691052764E-01 -0.68125304033E-01  0.32940333802E-01  0.82833995424E-01  0.51100000000E-03 0.  1.
</event>
<event>
 8    1  0.1183092E+005  0.1043930E+01  0.7957747E-01            NaN
         13   -1    0    0    0    0  0.00000000000E+00  0.00000000000E+00  0.74505805969E-08  0.10566000000E+00  0.10566000000E+00 0.  1.
     999900   -1    0    0    0    0 -0.00000000000E+00 -0.00000000000E+00 -0.74505805969E-08  0.93827000000E+00  0.93827000000E+00 0. -1.
     999902    2    1    2    0    0  0.65701299740E-02  0.21374996827E-01 -0.69263819742E-02  0.10205199196E+01  0.10202513781E+01 0.  0.
     999903    2    3    3    0    0  0.10444548011E+00 -0.74707711165E-01  0.28536969799E-02  0.12984201997E+00  0.18992265312E-01 0.  0.
         14    1    1    2    0    0 -0.65701299740E-02 -0.21374996827E-01  0.69263819742E-02  0.23410080403E-01  0.00000000000E+00 0.  1.
     999901    1    3    3    0    0 -0.97875350131E-01  0.96082707992E-01 -0.97800789541E-02  0.89067789963E+00  0.88000000000E+00 0.  1.
        -11    1    4    4    0    0  0.59626274648E-01 -0.35390904248E-01  0.89206488508E-02  0.69911714532E-01  0.51100000000E-03 0. -1.
         11    1    4    4    0    0  0.44819205457E-01 -0.39316806916E-01 -0.60669518709E-02  0.59930305438E-01  0.51100000000E-03 0.  1.
</event>
<event>
 8    1  0.1183092E+005  0.1043930E+01  0.7957747E-01            NaN
         13   -1    0    0    0    0  0.00000000000E+00  0.00000000000E+00  0.74505805969E-08  0.10566000000E+00  0.10566000000E+00 0. -1.
     999900   -1    0    0    0    0 -0.00000000000E+00 -0.00000000000E+00 -0.74505805969E-08  0.93827000000E+00  0.93827000000E+00 0.  1.
     999902    2    1    2    0    0 -0.92668972391E-03  0.96909115047E-03 -0.23486202447E-01  0.10204055532E+01  0.10201343507E+01 0.  0.
     999903    2    3    3    0    0  0.95082279568E-01 -0.87028368546E-01 -0.53888268085E-03  0.13052474401E+00  0.20538782444E-01 0.  0.
         14    1    1    2    0    0  0.92668972391E-03 -0.96909115047E-03  0.23486202447E-01  0.23524446792E-01  0.00000000000E+00 0. -1.
     999901    1    3    3    0    0 -0.96008969292E-01  0.87997459696E-01 -0.22947319766E-01  0.88988080920E+00  0.88000000000E+00 0. -1.
        -11    1    4    4    0    0  0.57439309918E-01 -0.65562324206E-01 -0.14617543675E-02  0.87178498072E-01  0.51100000000E-03 0.  1.
         11    1    4    4    0    0  0.37642969650E-01 -0.21466044340E-01  0.92287168664E-03  0.43346245937E-01  0.51100000000E-03 0. -1.
</event>
<event>
 8    1  0.1183092E+005  0.1043930E+01  0.7957747E-01            NaN
         13   -1    0    0    0    0  0.00000000000E+00  0.00000000000E+00  0.74505805969E-08  0.10566000000E+00  0.10566000000E+00 0. -1.
     999900   -1    0    0    0    0 -0.00000000000E+00 -0.00000000000E+00 -0.74505805969E-08  0.93827000000E+00  0.93827000000E+00 0. -1.
     999902    2    1    2    0    0 -0.30727007455E-02  0.25125978445E-01  0.71395879340E-02  0.10176292396E+01  0.10172893095E+01 0.  0.
     999903    2    3    3    0    0 -0.42737120582E-01 -0.11626159215E+00 -0.14495705359E-02  0.12541991159E+00  0.19617178223E-01 0.  0.
         14    1    1    2    0    0  0.30727007455E-02 -0.25125978445E-01 -0.71395879340E-02  0.26300760418E-01  0.00000000000E+00 0.  1.
     999901    1    3    3    0    0  0.39664419836E-01  0.14138757060E+00  0.85891584699E-02  0.89220932800E+00  0.88000000000E+00 0. -1.
        -11    1    4    4    0    0 -0.12413447060E-01 -0.57486400777E-01 -0.60358744219E-02  0.59122523993E-01  0.51100000000E-03 0. -1.
         11    1    4    4    0    0 -0.30323673521E-01 -0.58775191377E-01  0.45863038860E-02  0.66297387592E-01  0.51100000000E-03 0.  1.
</event>
<event>
 8    1  0.1183092E+005  0.1043930E+01  0.7957747E-01            NaN
         13   -1    0    0    0    0  0.00000000000E+00  0.00000000000E+00  0.74505805969E-08  0.10566000000E+00  0.10566000000E+00 0.  1.
     999900   -1    0    0    0    0 -0.00000000000E+00 -0.00000000000E+00 -0.74505805969E-08  0.93827000000E+00  0.93827000000E+00 0. -1.
     999902    2    1    2    0    0  0.15435428479E-01  0.11481760097E-01 -0.15174310166E-01  0.10194281030E+01  0.10191336096E+01 0.  0.
     999903    2    3    3    0    0 -0.51700057233E-01  0.28198877366E-01  0.11142237739E+00  0.12768074150E+00  0.20478109424E-01 0.  0.
         14    1    1    2    0    0 -0.15435428479E-01 -0.11481760097E-01  0.15174310166E-01  0.24501896993E-01  0.00000000000E+00 0.  1.
     999901    1    3    3    0    0  0.67135485712E-01 -0.16717117269E-01 -0.12659668755E+00  0.89174736150E+00  0.88000000000E+00 0. -1.
        -11    1    4    4    0    0 -0.30502018443E-01  0.20565698657E-01  0.48717099595E-01  0.61048652764E-01  0.51100000000E-03 0. -1.
         11    1    4    4    0    0 -0.21198038789E-01  0.76331787088E-02  0.62705277791E-01  0.66632088738E-01  0.51100000000E-03 0.  1.
</event>
<event>
 8    1  0.1183092E+005  0.1043930E+01  0.7957747E-01            NaN
         13   -1    0    0    0    0  0.00000000000E+00  0.00000000000E+00  0.74505805969E-08  0.10566000000E+00  0.10566000000E+00 0.  1.
     999900   -1    0    0    0    0 -0.00000000000E+00 -0.00000000000E+00 -0.74505805969E-08  0.93827000000E+00  0.93827000000E+00 0.  1.
     999902    2    1    2    0    0  0.12577768285E-01  0.18824810948E-01  0.84982606627E-02  0.10197474816E+01  0.10194607065E+01 0.  0.
     999903    2    3    3    0    0 -0.35423575924E-01 -0.90600633730E-01  0.81831267429E-01  0.12864940233E+00  0.19773917838E-01 0.  0.
         14    1    1    2    0    0 -0.12577768285E-01 -0.18824810948E-01 -0.84982606627E-02  0.24182518408E-01  0.00000000000E+00 0. -1.
     999901    1    3    3    0    0  0.48001344209E-01  0.10942544468E+00 -0.73333006766E-01  0.89109807927E+00  0.88000000000E+00 0. -1.
        -11    1    4    4    0    0 -0.11646033505E-01 -0.51031126073E-01  0.35532776285E-01  0.63266462175E-01  0.51100000000E-03 0.  1.
         11    1    4    4    0    0 -0.23777542419E-01 -0.39569507657E-01  0.46298491144E-01  0.65382940152E-01  0.51100000000E-03 0. -1.
</event>
<event>
 8    1  0.1183092E+005  0.1043930E+01  0.7957747E-01            NaN
         13   -1    0    0    0    0  0.00000000000E+00  0.00000000000E+00  0.74505805969E-08  0.10566000000E+00  0.10566000000E+00 0. -1.
     999900   -1    0    0    0    0 -0.00000000000E+00 -0.00000000000E+00 -0.74505805969E-08  0.93827000000E+00  0.93827000000E+00 0.  1.
     999902    2    1    2    0    0 -0.64193990064E-02  0.20411871915E-01  0.19891428235E-02  0.10224402376E+01  0.10222143756E+01 0.  0.
     999903    2    3    3    0    0  0.16348792827E-01 -0.65727601391E-01 -0.11017298869E+00  0.13085808033E+00  0.19958685844E-01 0.  0.
         14    1    1    2    0    0  0.64193990064E-02 -0.20411871915E-01 -0.19891428235E-02  0.21489762396E-01  0.00000000000E+00 0.  1.
     999901    1    3    3    0    0 -0.22768191833E-01  0.86139473306E-01  0.11216213151E+00  0.89158215727E+00  0.88000000000E+00 0. -1.
        -11    1    4    4    0    0 -0.74402728958E-03 -0.19201404405E-01 -0.45340498779E-01  0.49247024867E-01  0.51100000000E-03 0. -1.
         11    1    4    4    0    0  0.17092820116E-01 -0.46526196986E-01 -0.64832489907E-01  0.81611055465E-01  0.51100000000E-03 0.  1.
</event>
<event>
 8    1  0.1183092E+005  0.1043930E+01  0.7957747E-01            NaN
         13   -1    0    0    0    0  0.00000000000E+00  0.00000000000E+00  0.74505805969E-08  0.10566000000E+00  0.10566000000E+00 0. -1.
     999900   -1    0    0    0    0 -0.00000000000E+00 -0.00000000000E+00 -0.74505805969E-08  0.93827000000E+00  0.93827000000E+00 0. -1.
     999902    2    1    2    0    0  0.23788273634E-01  0.30762854010E-02  0.32964259448E-03  0.10199413744E+01  0.10196592338E+01 0.  0.
     999903    2    3    3    0    0 -0.84116394338E-01 -0.93776896223E-01  0.78588122968E-02  0.12804415803E+00  0.21537674265E-01 0.  0.
         14    1    1    2    0    0 -0.23788273634E-01 -0.30762854010E-02 -0.32964259448E-03  0.23988625608E-01  0.00000000000E+00 0.  1.
     999901    1    3    3    0    0  0.10790466797E+00  0.96853181624E-01 -0.75291697023E-02  0.89189721636E+00  0.88000000000E+00 0. -1.
        -11    1    4    4    0    0 -0.38778581047E-01 -0.57201765860E-01  0.95486546298E-02  0.69765738667E-01  0.51100000000E-03 0. -1.
         11    1    4    4    0    0 -0.45337813292E-01 -0.36575130363E-01 -0.16898423330E-02  0.58278419361E-01  0.51100000000E-03 0.  1.
</event>
<event>
 8    1  0.1183092E+005  0.1043930E+01  0.7957747E-01            NaN
         13   -1    0    0    0    0  0.00000000000E+00  0.00000000000E+00  0.74505805969E-08  0.10566000000E+00  0.10566000000E+00 0.  1.
     999900   -1    0    0    0    0 -0.00000000000E+00 -0.00000000000E+00 -0.74505805969E-08  0.93827000000E+00  0.93827000000E+00 0.  1.
     999902    2    1    2    0    0 -0.17923802949E-01  0.13535449001E-01  0.71519760463E-02  0.10203583676E+01  0.10200860633E+01 0.  0.
     999903    2    3    3    0    0  0.65801578740E-01 -0.39313301058E-01  0.10266985522E+00  0.12966953578E+00  0.19942565854E-01 0.  0.
         14    1    1    2    0    0  0.17923802949E-01 -0.13535449001E-01 -0.71519760463E-02  0.23571632383E-01  0.00000000000E+00 0. -1.
     999901    1    3    3    0    0 -0.83725381689E-01  0.52848750059E-01 -0.95517879175E-01  0.89068883184E+00  0.88000000000E+00 0.  1.
        -11    1    4    4    0    0  0.17553840061E-01 -0.44654978992E-02  0.35962610141E-01  0.40269696069E-01  0.51100000000E-03 0. -1.
         11    1    4    4    0    0  0.48247738679E-01 -0.34847803159E-01  0.66707245080E-01  0.89399839708E-01  0.51100000000E-03 0.  1.
</event>
<event>
 8    1  0.1183092E+005  0.1043930E+01  0.7957747E-01            NaN
         13   -1    0    0    0    0  0.00000000000E+00  0.00000000000E+00  0.74505805969E-08  0.10566000000E+00  0.10566000000E+00 0. -1.
     999900   -1    0    0    0    0 -0.00000000000E+00 -0.00000000000E+00 -0.74505805969E-08  0.93827000000E+00  0.93827000000E+00 0. -1.
     999902    2    1    2    0    0  0.19933821340E-02  0.52770324406E-02  0.22970002608E-01  0.10202774808E+01  0.10200032824E+01 0.  0.
     999903    2    3    3    0    0  0.11110147949E+00 -0.11764145572E-01 -0.62009453481E-01  0.12931368436E+00  0.19872664014E-01 0.  0.
         14    1    1    2    0    0 -0.19933821340E-02 -0.52770324406E-02 -0.22970002608E-01  0.23652519179E-01  0.00000000000E+00 0.  1.
     999901    1    3    3    0    0 -0.10910809735E+00  0.17041178013E-01  0.84979456088E-01  0.89096379647E+00  0.88000000000E+00 0.  1.
        -11    1    4    4    0    0  0.59657667849E-01 -0.13217539624E-02 -0.23180826861E-01  0.64018717745E-01  0.51100000000E-03 0. -1.
         11    1    4    4    0    0  0.51443811639E-01 -0.10442391610E-01 -0.38828626619E-01  0.65294966610E-01  0.51100000000E-03 0.  1.
</event>
<event>
 8    1  0.1183092E+005  0.1043930E+01  0.7957747E-01            NaN
         13   -1    0    0    0    0  0.00000000000E+00  0.00000000000E+00  0.74505805969E-08  0.10566000000E+00  0.10566000000E+00 0. -1.
     999900   -1    0    0    0    0 -0.00000000000E+00 -0.00000000000E+00 -0.74505805969E-08  0.93827000000E+00  0.93827000000E+00 0.  1.
     999902    2    1    2    0    0 -0.21545909490E-01  0.52133302057E-02 -0.79166675460E-02  0.10203911247E+01  0.10201195854E+01 0.  0.
     999903    2    3    3    0    0  0.11315440746E-01  0.19468861466E-01  0.12601749456E+00  0.12953678847E+00  0.19806434944E-01 0.  0.
         14    1    1    2    0    0  0.21545909490E-01 -0.52133302057E-02  0.79166675460E-02  0.23538875348E-01  0.00000000000E+00 0. -1.
     999901    1    3    3    0    0 -0.32861350237E-01 -0.14255531260E-01 -0.13393416211E+00  0.89085433618E+00  0.88000000000E+00 0.  1.
        -11    1    4    4    0    0 -0.12470938773E-03  0.14072743564E-01  0.36393162628E-01  0.39022827562E-01  0.51100000000E-03 0.  1.
         11    1    4    4    0    0  0.11440150134E-01  0.53961179012E-02  0.89624331937E-01  0.90513960910E-01  0.51100000000E-03 0. -1.
</event>
<event>
 8    1  0.1183092E+005  0.1043930E+01  0.7957747E-01            NaN
         13   -1    0    0    0    0  0.00000000000E+00  0.00000000000E+00  0.74505805969E-08  0.10566000000E+00  0.10566000000E+00 0. -1.
     999900   -1    0    0    0    0 -0.00000000000E+00 -0.00000000000E+00 -0.74505805969E-08  0.93827000000E+00  0.93827000000E+00 0.  1.
     999902    2    1    2    0    0 -0.34920757057E-02 -0.11924074863E-01 -0.20515418502E-01  0.10199454101E+01  0.10196633656E+01 0.  0.
     999903    2    3    3    0    0  0.82987415420E-01 -0.78318526457E-02  0.95224003497E-01  0.12815448035E+00  0.20191853739E-01 0.  0.
         14    1    1    2    0    0  0.34920757057E-02  0.11924074863E-01  0.20515418502E-01  0.23984589852E-01  0.00000000000E+00 0. -1.
     999901    1    3    3    0    0 -0.86479491125E-01 -0.40922222177E-02 -0.11573942200E+00  0.89179092980E+00  0.88000000000E+00 0.  1.
        -11    1    4    4    0    0  0.44132085135E-01  0.58383556179E-02  0.47180367344E-01  0.64868910261E-01  0.51100000000E-03 0.  1.
         11    1    4    4    0    0  0.38855330284E-01 -0.13670208264E-01  0.48043636153E-01  0.63285570088E-01  0.51100000000E-03 0. -1.
</event>
<event>
 8    1  0.1183092E+005  0.1043930E+01  0.7957747E-01            NaN
         13   -1    0    0    0    0  0.00000000000E+00  0.00000000000E+00  0.74505805969E-08  0.10566000000E+00  0.10566000000E+00 0.  1.
     999900   -1    0    0    0    0 -0.00000000000E+00 -0.00000000000E+00 -0.74505805969E-08  0.93827000000E+00  0.93827000000E+00 0. -1.
     999902    2    1    2    0    0  0.43873512323E-02 -0.21674733529E-01  0.78494842302E-02  0.10204639111E+01  0.10201940681E+01 0.  0.
     999903    2    3    3    0    0  0.21564362164E-01 -0.15860416580E-01  0.12781797187E+00  0.13213891766E+00  0.20166434947E-01 0.  0.
         14    1    1    2    0    0 -0.43873512323E-02  0.21674733529E-01 -0.78494842302E-02  0.23466088875E-01  0.00000000000E+00 0. -1.
     999901    1    3    3    0    0 -0.17177010932E-01 -0.58143169490E-02 -0.11996848764E+00  0.88832499346E+00  0.88000000000E+00 0. -1.
        -11    1    4    4    0    0 -0.14015739094E-02  0.26249731590E-02  0.24838556400E-01  0.25021388821E-01  0.51100000000E-03 0.  1.
         11    1    4    4    0    0  0.22965936073E-01 -0.18485389739E-01  0.10297941547E+00  0.10711752884E+00  0.51100000000E-03 0. -1.
</event>
<event>
 8    1  0.1183092E+005  0.1043930E+01  0.7957747E-01            NaN
         13   -1    0    0    0    0  0.00000000000E+00  0.00000000000E+00  0.74505805969E-08  0.10566000000E+00  0.10566000000E+00 0. -1.
     999900   -1    0    0    0    0 -0.00000000000E+00 -0.00000000000E+00 -0.74505805969E-08  0.93827000000E+00  0.93827000000E+00 0.  1.
     999902    2    1    2    0    0  0.13626018736E-01 -0.19309872262E-01  0.38501135912E-02  0.10199850020E+01  0.10197038989E+01 0.  0.
     999903    2    3    3    0    0 -0.44821355279E-01 -0.91522026927E-01 -0.80047937934E-01  0.13112642280E+00  0.20030753532E-01 0.  0.
         14    1    1    2    0    0 -0.13626018736E-01  0.19309872262E-01 -0.38501135912E-02  0.23944997976E-01  0.00000000000E+00 0.  1.
     999901    1    3    3    0    0  0.58447374016E-01  0.72212154665E-01  0.83898051525E-01  0.88885857922E+00  0.88000000000E+00 0.  1.
        -11    1    4    4    0    0 -0.24923248734E-01 -0.61701650258E-01 -0.41229815274E-01  0.78284230599E-01  0.51100000000E-03 0.  1.
         11    1    4    4    0    0 -0.19898106545E-01 -0.29820376669E-01 -0.38818122660E-01  0.52842192201E-01  0.51100000000E-03 0. -1.
</event>
<event>
 8    1  0.1183092E+005  0.1043930E+01  0.7957747E-01            NaN
         13   -1    0    0    0    0  0.00000000000E+00  0.00000000000E+00  0.74505805969E-08  0.10566000000E+00  0.10566000000E+00 0.  1.
     999900   -1    0    0    0    0 -0.00000000000E+00 -0.00000000000E+00 -0.74505805969E-08  0.93827000000E+00  0.93827000000E+00 0.  1.
     999902    2    1    2    0    0 -0.23007776090E-01  0.48413702003E-03 -0.60356622674E-02  0.10201387964E+01  0.10198613350E+01 0.  0.
     999903    2    3    3    0    0  0.33579202954E-01 -0.11659061122E+00  0.40148243506E-01  0.12938544333E+00  0.20193513666E-01 0.  0.
         14    1    1    2    0    0  0.23007776090E-01 -0.48413702003E-03  0.60356622674E-02  0.23791203590E-01  0.00000000000E+00 0. -1.
     999901    1    3    3    0    0 -0.56586979044E-01  0.11707474824E+00 -0.46183905774E-01  0.89075335308E+00  0.88000000000E+00 0. -1.
        -11    1    4    4    0    0  0.15843745210E-01 -0.87253709152E-01  0.30269769524E-01  0.93705678009E-01  0.51100000000E-03 0. -1.
         11    1    4    4    0    0  0.17735457744E-01 -0.29336902063E-01  0.98784739819E-02  0.35679765320E-01  0.51100000000E-03 0.  1.
</event>
<event>
 8    1  0.1183092E+005  0.1043930E+01  0.7957747E-01            NaN
         13   -1    0    0    0    0  0.00000000000E+00  0.00000000000E+00  0.74505805969E-08  0.10566000000E+00  0.10566000000E+00 0.  1.
     999900   -1    0    0    0    0 -0.00000000000E+00 -0.00000000000E+00 -0.74505805969E-08  0.93827000000E+00  0.93827000000E+00 0.  1.
     999902    2    1    2    0    0 -0.12300496070E-02 -0.14002285637E-01 -0.24195095564E-01  0.10159482260E+01  0.10155628086E+01 0.  0.
     999903    2    3    3    0    0  0.11477943309E-01 -0.11892294871E+00 -0.45495369979E-01  0.12936853964E+00  0.19798470857E-01 0.  0.
         14    1    1    2    0    0  0.12300496070E-02  0.14002285637E-01  0.24195095564E-01  0.27981773969E-01  0.00000000000E+00 0.  1.
     999901    1    3    3    0    0 -0.12707992916E-01  0.10492066307E+00  0.21300274415E-01  0.88657968639E+00  0.88000000000E+00 0.  1.
        -11    1    4    4    0    0 -0.37096990938E-02 -0.64245734499E-01 -0.24350354642E-01  0.68807537093E-01  0.51100000000E-03 0. -1.
         11    1    4    4    0    0  0.15187642403E-01 -0.54677214209E-01 -0.21145015337E-01  0.60561002551E-01  0.51100000000E-03 0.  1.
</event>
<event>
 7    1  0.1183092E+005  0.1043930E+01  0.7957747E-01            NaN
         13   -1    0    0    0    0  0.00000000000E+00  0.00000000000E+00  0.74505805969E-08  0.10566000000E+00  0.10566000000E+00 0. -1.
     999900   -1    0    0    0    0 -0.00000000000E+00 -0.00000000000E+00 -0.74505805969E-08  0.93827000000E+00  0.93827000000E+00 0. -1.
     999902    2    1    2    0    0  0.18824882534E-01 -0.12673887207E-02 -0.76987728825E-02  0.10235522283E+01  0.10233493589E+01 0.  0.
         14    1    1    2    0    0 -0.18824882534E-01  0.12673887207E-02  0.76987728825E-02  0.20377771725E-01  0.00000000000E+00 0. -1.
     999901    1    3    3    0    0 -0.54664269081E-01 -0.92822896300E-01  0.24309920811E-02  0.88657215280E+00  0.88000000000E+00 0.  1.
        -11    1    3    3    0    0  0.34452285662E-01  0.97759072565E-02 -0.26936045045E-01  0.44814506509E-01  0.51100000000E-03 0.  1.
         11    1    3    3    0    0  0.39036865953E-01  0.81779600322E-01  0.16806280081E-01  0.92165568970E-01  0.51100000000E-03 0. -1.
</event>
<event>
 8    1  0.1183092E+005  0.1043930E+01  0.7957747E-01            NaN
         13   -1    0    0    0    0  0.00000000000E+00  0.00000000000E+00  0.74505805969E-08  0.10566000000E+00  0.10566000000E+00 0.  1.
     999900   -1    0    0    0    0 -0.00000000000E+00 -0.00000000000E+00 -0.74505805969E-08  0.93827000000E+00  0.93827000000E+00 0.  1.
     999902    2    1    2    0    0 -0.10992605245E-01 -0.10458476233E-01 -0.15331468546E-01  0.10223598581E+01  0.10221322852E+01 0.  0.
     999903    2    3    3    0    0  0.47206748271E-01 -0.79822465402E-01  0.90966006282E-01  0.13135049734E+00  0.19443142454E-01 0.  0.
         14    1    1    2    0    0  0.10992605245E-01  0.10458476233E-01  0.15331468546E-01  0.21570141932E-01  0.00000000000E+00 0. -1.
     999901    1    3    3    0    0 -0.58199353516E-01  0.69363989169E-01 -0.10629747483E+00  0.89100936072E+00  0.88000000000E+00 0.  1.
        -11    1    4    4    0    0  0.39348727724E-01 -0.71150072511E-01  0.69797212539E-01  0.10715674123E+00  0.51100000000E-03 0. -1.
         11    1    4    4    0    0  0.78580205462E-02 -0.86723928906E-02  0.21168793743E-01  0.24193756113E-01  0.51100000000E-03 0.  1.
</event>
<event>
 8    1  0.1183092E+005  0.1043930E+01  0.7957747E-01            NaN
         13   -1    0    0    0    0  0.00000000000E+00  0.00000000000E+00  0.74505805969E-08  0.10566000000E+00  0.10566000000E+00 0. -1.
     999900   -1    0    0    0    0 -0.00000000000E+00 -0.00000000000E+00 -0.74505805969E-08  0.93827000000E+00  0.93827000000E+00 0. -1.
     999902    2    1    2    0    0 -0.43224139125E-02 -0.12447021521E-01  0.19524280157E-01  0.10203756135E+01  0.10201037122E+01 0.  0.
     999903    2    3    3    0    0  0.56133444097E-01  0.10134455693E+00  0.56773232695E-01  0.13021219113E+00  0.17616242583E-01 0.  0.
         14    1    1    2    0    0  0.43224139125E-02  0.12447021521E-01 -0.19524280157E-01  0.23554386479E-01  0.00000000000E+00 0.  1.
     999901    1    3    3    0    0 -0.60455858009E-01 -0.11379157845E+00 -0.37248952538E-01  0.89016342239E+00  0.88000000000E+00 0. -1.
        -11    1    4    4    0    0  0.45190783311E-01  0.65877237900E-01  0.35429663471E-01  0.87393017709E-01  0.51100000000E-03 0.  1.
         11    1    4    4    0    0  0.10942660786E-01  0.35467319031E-01  0.21343569224E-01  0.42819173423E-01  0.51100000000E-03 0. -1.
</event>
<event>
 8    1  0.1183092E+005  0.1043930E+01  0.7957747E-01            NaN
         13   -1    0    0    0    0  0.00000000000E+00  0.00000000000E+00  0.74505805969E-08  0.10566000000E+00  0.10566000000E+00 0. -1.
     999900   -1    0    0    0    0 -0.00000000000E+00 -0.00000000000E+00 -0.74505805969E-08  0.93827000000E+00  0.93827000000E+00 0.  1.
     999902    2    1    2    0    0 -0.14761925207E-01  0.13505244025E-01  0.11859785116E-01  0.10206714413E+01  0.10204064045E+01 0.  0.
     999903    2    3    3    0    0  0.11883041073E-01 -0.10786211716E+00 -0.64225459708E-01  0.12869108549E+00  0.25710753120E-01 0.  0.
         14    1    1    2    0    0  0.14761925207E-01 -0.13505244025E-01 -0.11859785116E-01  0.23258558747E-01  0.00000000000E+00 0.  1.
     999901    1    3    3    0    0 -0.26644966279E-01  0.12136736119E+00  0.76085244823E-01  0.89198035576E+00  0.88000000000E+00 0. -1.
        -11    1    4    4    0    0  0.17467126544E-01 -0.59906475470E-01 -0.43937757066E-01  0.76319551427E-01  0.51100000000E-03 0.  1.
         11    1    4    4    0    0 -0.55840854715E-02 -0.47955641691E-01 -0.20287702641E-01  0.52371534062E-01  0.51100000000E-03 0. -1.
</event>
<event>
 8    1  0.1183092E+005  0.1043930E+01  0.7957747E-01            NaN
         13   -1    0    0    0    0  0.00000000000E+00  0.00000000000E+00  0.74505805969E-08  0.10566000000E+00  0.10566000000E+00 0. -1.
     999900   -1    0    0    0    0 -0.00000000000E+00 -0.00000000000E+00 -0.74505805969E-08  0.93827000000E+00  0.93827000000E+00 0. -1.
     999902    2    1    2    0    0 -0.41623212722E-03  0.12839346730E-01 -0.20172023507E-01  0.10200148875E+01  0.10197344939E+01 0.  0.
     999903    2    3    3    0    0  0.10642349916E+00  0.16119740780E-01 -0.73773779689E-01  0.13192782114E+00  0.19405468412E-01 0.  0.
         14    1    1    2    0    0  0.41623212722E-03 -0.12839346730E-01  0.20172023507E-01  0.23915112502E-01  0.00000000000E+00 0. -1.
     999901    1    3    3    0    0 -0.10683973129E+00 -0.32803940508E-02  0.53601756182E-01  0.88808706636E+00  0.88000000000E+00 0.  1.
        -11    1    4    4    0    0  0.57757257130E-01  0.49156443328E-02 -0.28835703245E-01  0.64744290969E-01  0.51100000000E-03 0.  1.
         11    1    4    4    0    0  0.48666242032E-01  0.11204096448E-01 -0.44938076444E-01  0.67183530171E-01  0.51100000000E-03 0. -1.
</event>
<event>
 8    1  0.1183092E+005  0.1043930E+01  0.7957747E-01            NaN
         13   -1    0    0    0    0  0.00000000000E+00  0.00000000000E+00  0.74505805969E-08  0.10566000000E+00  0.10566000000E+00 0. -1.
     999900   -1    0    0    0    0 -0.00000000000E+00 -0.00000000000E+00 -0.74505805969E-08  0.93827000000E+00  0.93827000000E+00 0. -1.
     999902    2    1    2    0    0  0.14237024401E-01  0.73695042813E-02  0.16774127722E-01  0.10207271162E+01  0.10204633614E+01 0.  0.
     999903    2    3    3    0    0  0.11565689268E+00  0.39928583645E-01 -0.45450046082E-01  0.13212263096E+00  0.20490834681E-01 0.  0.
         14    1    1    2    0    0 -0.14237024401E-01 -0.73695042813E-02 -0.16774127722E-01  0.23202883829E-01  0.00000000000E+00 0.  1.
     999901    1    3    3    0    0 -0.10141986828E+00 -0.32559079364E-01  0.62224173804E-01  0.88860448521E+00  0.88000000000E+00 0.  1.
        -11    1    4    4    0    0  0.49634573699E-01  0.26697259786E-01 -0.25735655683E-01  0.61959016138E-01  0.51100000000E-03 0. -1.
         11    1    4    4    0    0  0.66022318984E-01  0.13231323859E-01 -0.19714390399E-01  0.70163614822E-01  0.51100000000E-03 0.  1.
</event>
<event>
 8    1  0.1183092E+005  0.1043930E+01  0.7957747E-01            NaN
         13   -1    0    0    0    0  0.00000000000E+00  0.00000000000E+00  0.74505805969E-08  0.10566000000E+00  0.10566000000E+00 0. -1.
     999900   -1    0    0    0    0 -0.00000000000E+00 -0.00000000000E+00 -0.74505805969E-08  0.93827000000E+00  0.93827000000E+00 0. -1.
     999902    2    1    2    0    0  0.14904965567E-01 -0.11306407066E-01  0.14325306684E-01  0.10203671638E+01  0.10200950650E+01 0.  0.
     999903    2    3    3    0    0 -0.78213534187E-02  0.37297267127E-01 -0.12099271196E+00  0.12840877412E+00  0.19932817633E-01 0.  0.
         14    1    1    2    0    0 -0.14904965567E-01  0.11306407066E-01 -0.14325306684E-01  0.23562836223E-01  0.00000000000E+00 0.  1.
     999901    1    3    3    0    0  0.22726318985E-01 -0.48603674193E-01  0.13531801864E+00  0.89195838966E+00  0.88000000000E+00 0.  1.
        -11    1    4    4    0    0 -0.12822749144E-01  0.23630344801E-01 -0.60823569069E-01  0.66502509474E-01  0.51100000000E-03 0.  1.
         11    1    4    4    0    0  0.50013957249E-02  0.13666922326E-01 -0.60169142887E-01  0.61906264641E-01  0.51100000000E-03 0. -1.
</event>
<event>
 8    1  0.1183092E+005  0.1043930E+01  0.7957747E-01            NaN
         13   -1    0    0    0    0  0.00000000000E+00  0.00000000000E+00  0.74505805969E-08  0.10566000000E+00  0.10566000000E+00 0.  1.
     999900   -1    0    0    0    0 -0.00000000000E+00 -0.00000000000E+00 -0.74505805969E-08  0.93827000000E+00  0.93827000000E+00 0. -1.
     999902    2    1    2    0    0 -0.17626525048E-01  0.11945506102E-01  0.12732739643E-01  0.10191204825E+01  0.10188184557E+01 0.  0.
     999903    2    3    3    0    0  0.14092141036E-01  0.76678783433E-01 -0.10072004405E+00  0.12891376204E+00  0.19899912083E-01 0.  0.
         14    1    1    2    0    0  0.17626525048E-01 -0.11945506102E-01 -0.12732739643E-01  0.24809517531E-01  0.00000000000E+00 0. -1.
     999901    1    3    3    0    0 -0.31718666084E-01 -0.64733277330E-01  0.11345278370E+00  0.89020672043E+00  0.88000000000E+00 0.  1.
        -11    1    4    4    0    0  0.51377145125E-02  0.30597442316E-01 -0.25120225636E-01  0.39923507407E-01  0.51100000000E-03 0. -1.
         11    1    4    4    0    0  0.89544265235E-02  0.46081341117E-01 -0.75599818417E-01  0.88990254630E-01  0.51100000000E-03 0.  1.
</event>
<event>
 8    1  0.1183092E+005  0.1043930E+01  0.7957747E-01            NaN
         13   -1    0    0    0    0  0.00000000000E+00  0.00000000000E+00  0.74505805969E-08  0.10566000000E+00  0.10566000000E+00 0. -1.
     999900   -1    0    0    0    0 -0.00000000000E+00 -0.00000000000E+00 -0.74505805969E-08  0.93827000000E+00  0.93827000000E+00 0. -1.
     999902    2    1    2    0    0  0.35612265528E-02 -0.23282294511E-01 -0.43121871226E-02  0.10199854280E+01  0.10197043350E+01 0.  0.
     999903    2    3    3    0    0 -0.76074305055E-01  0.36388455507E-01  0.95357793287E-01  0.12878594339E+00  0.19526671281E-01 0.  0.
         14    1    1    2    0    0 -0.35612265528E-02  0.23282294511E-01  0.43121871226E-02  0.23944572037E-01  0.00000000000E+00 0.  1.
     999901    1    3    3    0    0  0.79635531607E-01 -0.59670750018E-01 -0.99669980410E-01  0.89119948457E+00  0.88000000000E+00 0. -1.
        -11    1    4    4    0    0 -0.67487658324E-01  0.24372949065E-01  0.80276820904E-01  0.10767197299E+00  0.51100000000E-03 0. -1.
         11    1    4    4    0    0 -0.85866467306E-02  0.12015506443E-01  0.15080972383E-01  0.21113970403E-01  0.51100000000E-03 0.  1.
</event>
<event>
 8    1  0.1183092E+005  0.1043930E+01  0.7957747E-01            NaN
         13   -1    0    0    0    0  0.00000000000E+00  0.00000000000E+00  0.74505805969E-08  0.10566000000E+00  0.10566000000E+00 0.  1.
     999900   -1    0    0    0    0 -0.00000000000E+00 -0.00000000000E+00 -0.74505805969E-08  0.93827000000E+00  0.93827000000E+00 0.  1.
     999902    2    1    2    0    0  0.16904423174E-01  0.61305470045E-02  0.10876954233E-01  0.10229144995E+01  0.10226985978E+01 0.  0.
     999903    2    3    3    0    0 -0.10918473665E+00  0.27777851345E-01  0.66017952548E-01  0.13195568352E+00  0.19000437190E-01 0.  0.
         14    1    1    2    0    0 -0.16904423174E-01 -0.61305470045E-02 -0.10876954233E-01  0.21015500537E-01  0.00000000000E+00 0.  1.
     999901    1    3    3    0    0  0.12608915982E+00 -0.21647304341E-01 -0.55140998315E-01  0.89095881594E+00  0.88000000000E+00 0.  1.
        -11    1    4    4    0    0 -0.39759647974E-01  0.13167789720E-02  0.19618598241E-01  0.44358922798E-01  0.51100000000E-03 0. -1.
         11    1    4    4    0    0 -0.69425088671E-01  0.26461072373E-01  0.46399354307E-01  0.87596760724E-01  0.51100000000E-03 0.  1.
</event>
<event>
 8    1  0.1183092E+005  0.1043930E+01  0.7957747E-01            NaN
         13   -1    0    0    0    0  0.00000000000E+00  0.00000000000E+00  0.74505805969E-08  0.10566000000E+00  0.10566000000E+00 0. -1.
     999900   -1    0    0    0    0 -0.00000000000E+00 -0.00000000000E+00 -0.74505805969E-08  0.93827000000E+00  0.93827000000E+00 0. -1.
     999902    2    1    2    0    0 -0.16630072344E-01  0.47264182448E-02  0.17205732341E-01  0.10195386991E+01  0.10192468903E+01 0.  0.
     999903    2    3    3    0    0  0.52377762649E-01  0.96032544798E-01 -0.64040971861E-01  0.12841585850E+00  0.20584143363E-01 0.  0.
         14    1    1    2    0    0  0.16630072344E-01 -0.47264182448E-02 -0.17205732341E-01  0.24391300928E-01  0.00000000000E+00 0.  1.
     999901    1    3    3    0    0 -0.69007834993E-01 -0.91306126554E-01  0.81246704202E-01  0.89112284057E+00  0.88000000000E+00 0.  1.
        -11    1    4    4    0    0  0.16245105020E-01  0.14291580617E-01 -0.88966470383E-02  0.23400088956E-01  0.51100000000E-03 0. -1.
         11    1    4    4    0    0  0.36132657629E-01  0.81740964182E-01 -0.55144324823E-01  0.10501576955E+00  0.51100000000E-03 0.  1.
</event>
<event>
 8    1  0.1183092E+005  0.1043930E+01  0.7957747E-01            NaN
         13   -1    0    0    0    0  0.00000000000E+00  0.00000000000E+00  0.74505805969E-08  0.10566000000E+00  0.10566000000E+00 0.  1.
     999900   -1    0    0    0    0 -0.00000000000E+00 -0.00000000000E+00 -0.74505805969E-08  0.93827000000E+00  0.93827000000E+00 0.  1.
     999902    2    1    2    0    0  0.21967527056E-02 -0.22570758163E-01 -0.68734406910E-02  0.10202338182E+01  0.10199585946E+01 0.  0.
     999903    2    3    3    0    0  0.90078298216E-01 -0.84093895034E-01  0.43764608917E-01  0.13227409246E+00  0.19879928339E-01 0.  0.
         14    1    1    2    0    0 -0.21967527056E-02  0.22570758163E-01  0.68734406910E-02  0.23696181832E-01  0.00000000000E+00 0.  1.
     999901    1    3    3    0    0 -0.87881545510E-01  0.61523136871E-01 -0.50638049608E-01  0.88795972571E+00  0.88000000000E+00 0. -1.
        -11    1    4    4    0    0  0.58711433842E-01 -0.64388734692E-01  0.24497671066E-01  0.90517062633E-01  0.51100000000E-03 0.  1.
         11    1    4    4    0    0  0.31366864374E-01 -0.19705160342E-01  0.19266937851E-01  0.41757029827E-01  0.51100000000E-03 0. -1.
</event>
<event>
 8    1  0.1183092E+005  0.1043930E+01  0.7957747E-01            NaN
         13   -1    0    0    0    0  0.00000000000E+00  0.00000000000E+00  0.74505805969E-08  0.10566000000E+00  0.10566000000E+00 0. -1.
     999900   -1    0    0    0    0 -0.00000000000E+00 -0.00000000000E+00 -0.74505805969E-08  0.93827000000E+00  0.93827000000E+00 0. -1.
     999902    2    1    2    0    0 -0.19136578005E-02 -0.24338069403E-01  0.86267381255E-03  0.10195015757E+01  0.10192088672E+01 0.  0.
     999903    2    3    3    0    0  0.87470811314E-01 -0.16368698238E-01  0.93006907390E-01  0.13015144555E+00  0.19236341684E-01 0.  0.
         14    1    1    2    0    0  0.19136578005E-02  0.24338069403E-01 -0.86267381255E-03  0.24428424316E-01  0.00000000000E+00 0. -1.
     999901    1    3    3    0    0 -0.89384469115E-01 -0.79693711646E-02 -0.92144233578E-01  0.88935013014E+00  0.88000000000E+00 0. -1.
        -11    1    4    4    0    0  0.62289034371E-02  0.31347499988E-02  0.11302816860E-01  0.13290623971E-01  0.51100000000E-03 0. -1.
         11    1    4    4    0    0  0.81241907877E-01 -0.19503448237E-01  0.81704090530E-01  0.11686082157E+00  0.51100000000E-03 0.  1.
</event>
<event>
 8    1  0.1183092E+005  0.1043930E+01  0.7957747E-01            NaN
         13   -1    0    0    0    0  0.00000000000E+00  0.00000000000E+00  0.74505805969E-08  0.10566000000E+00  0.10566000000E+00 0.  1.
     999900   -1    0    0    0    0 -0.00000000000E+00 -0.00000000000E+00 -0.74505805969E-08  0.93827000000E+00  0.93827000000E+00 0. -1.
     999902    2    1    2    0    0 -0.81703952096E-02 -0.27590708431E-02  0.22529014200E-01  0.10198068926E+01  0.10195215416E+01 0.  0.
     999903    2    3    3    0    0  0.60371200298E-01  0.34541540499E-01  0.11015463066E+00  0.13201889168E+00  0.21380955500E-01 0.  0.
         14    1    1    2    0    0  0.81703952096E-02  0.27590708431E-02 -0.22529014200E-01  0.24123107399E-01  0.00000000000E+00 0. -1.
     999901    1    3    3    0    0 -0.68541595508E-01 -0.37300611342E-01 -0.87625616463E-01  0.88778800092E+00  0.88000000000E+00 0.  1.
        -11    1    4    4    0    0  0.27241692770E-01  0.15062022200E-01  0.30535109974E-01  0.43607664462E-01  0.51100000000E-03 0. -1.
         11    1    4    4    0    0  0.33129507528E-01  0.19479518299E-01  0.79619520688E-01  0.88411227216E-01  0.51100000000E-03 0.  1.
</event>
<event>
 8    1  0.1183092E+005  0.1043930E+01  0.7957747E-01            NaN
         13   -1    0    0    0    0  0.00000000000E+00  0.00000000000E+00  0.74505805969E-08  0.10566000000E+00  0.10566000000E+00 0. -1.
     999900   -1    0    0    0    0 -0.00000000000E+00 -0.00000000000E+00 -0.74505805969E-08  0.93827000000E+00  0.93827000000E+00 0. -1.
     999902    2    1    2    0    0  0.46932713692E-02 -0.23142463771E-01 -0.38024516290E-03  0.10203133742E+01  0.10200400172E+01 0.  0.
     999903    2    3    3    0    0  0.12070358828E-02  0.26153903963E-01  0.12576514785E+00  0.12994550315E+00  0.19582587834E-01 0.  0.
         14    1    1    2    0    0 -0.46932713692E-02  0.23142463771E-01  0.38024516290E-03  0.23616625752E-01  0.00000000000E+00 0. -1.
     999901    1    3    3    0    0  0.34862354865E-02 -0.49296367734E-01 -0.12614539301E+00  0.89036787110E+00  0.88000000000E+00 0. -1.
        -11    1    4    4    0    0  0.76188669216E-02  0.79096927402E-02  0.24565109122E-01  0.26913120956E-01  0.51100000000E-03 0. -1.
         11    1    4    4    0    0 -0.64118310389E-02  0.18244211223E-01  0.10120003873E+00  0.10303238219E+00  0.51100000000E-03 0.  1.
</event>
<event>
 7    1  0.1183092E+005  0.1043930E+01  0.7957747E-01            NaN
         13   -1    0    0    0    0  0.00000000000E+00  0.00000000000E+00  0.74505805969E-08  0.10566000000E+00  0.10566000000E+00 0.  1.
     999900   -1    0    0    0    0 -0.00000000000E+00 -0.00000000000E+00 -0.74505805969E-08  0.93827000000E+00  0.93827000000E+00 0. -1.
     999903    2    1    2    0    0 -0.43524539834E-01 -0.44784696212E-01 -0.78391994631E-01  0.10232888382E+00  0.20635916722E-01 0.  0.
         14    1    1    2    0    0  0.45467594257E-01 -0.19417580784E-01 -0.20928878723E-01  0.53687638573E-01  0.00000000000E+00 0. -1.
     999901    1    1    2    0    0 -0.19430544223E-02  0.64202276996E-01  0.99320873354E-01  0.88791347761E+00  0.88000000000E+00 0.  1.
        -11    1    3    3    0    0 -0.32247400693E-01 -0.41243205916E-01 -0.71556414901E-01  0.88664979108E-01  0.51100000000E-03 0. -1.
         11    1    3    3    0    0 -0.11277139142E-01 -0.35414902963E-02 -0.68355797302E-02  0.13663904712E-01  0.51100000000E-03 0.  1.
</event>
<event>
 8    1  0.1183092E+005  0.1043930E+01  0.7957747E-01            NaN
         13   -1    0    0    0    0  0.00000000000E+00  0.00000000000E+00  0.74505805969E-08  0.10566000000E+00  0.10566000000E+00 0. -1.
     999900   -1    0    0    0    0 -0.00000000000E+00 -0.00000000000E+00 -0.74505805969E-08  0.93827000000E+00  0.93827000000E+00 0. -1.
     999902    2    1    2    0    0  0.13048350635E-01 -0.18100909650E-02  0.19525942847E-01  0.10203758427E+01  0.10201039466E+01 0.  0.
     999903    2    3    3    0    0  0.95041332876E-01 -0.87694811251E-01  0.20769608889E-01  0.13240029063E+00  0.19370736420E-01 0.  0.
         14    1    1    2    0    0 -0.13048350635E-01  0.18100909650E-02 -0.19525942847E-01  0.23554157333E-01  0.00000000000E+00 0.  1.
     999901    1    3    3    0    0 -0.81992982241E-01  0.85884720286E-01 -0.12436660415E-02  0.88797555204E+00  0.88000000000E+00 0.  1.
        -11    1    4    4    0    0  0.52179129767E-01 -0.35401973642E-01  0.12442051785E-01  0.64273066635E-01  0.51100000000E-03 0. -1.
         11    1    4    4    0    0  0.42862203109E-01 -0.52292837609E-01  0.83275571041E-02  0.68127223992E-01  0.51100000000E-03 0.  1.
</event>
<event>
 8    1  0.1183092E+005  0.1043930E+01  0.7957747E-01            NaN
         13   -1    0    0    0    0  0.00000000000E+00  0.00000000000E+00  0.74505805969E-08  0.10566000000E+00  0.10566000000E+00 0.  1.
     999900   -1    0    0    0    0 -0.00000000000E+00 -0.00000000000E+00 -0.74505805969E-08  0.93827000000E+00  0.93827000000E+00 0.  1.
     999902    2    1    2    0    0  0.55894105948E-02  0.18743195129E-01 -0.11662224304E-01  0.10211581676E+01  0.10209042301E+01 0.  0.
     999903    2    3    3    0    0 -0.72001405413E-01  0.50156831104E-01  0.92899189563E-01  0.13102321126E+00  0.28929437946E-01 0.  0.
         14    1    1    2    0    0 -0.55894105948E-02 -0.18743195129E-01  0.11662224304E-01  0.22771832385E-01  0.00000000000E+00 0.  1.
     999901    1    3    3    0    0  0.77590816008E-01 -0.31413635975E-01 -0.10456141387E+00  0.89013495635E+00  0.88000000000E+00 0. -1.
        -11    1    4    4    0    0 -0.19065976275E-01  0.24270041343E-01  0.47439744822E-01  0.56598028834E-01  0.51100000000E-03 0. -1.
         11    1    4    4    0    0 -0.52935429138E-01  0.25886789761E-01  0.45459444740E-01  0.74425182426E-01  0.51100000000E-03 0.  1.
</event>
<event>
 8    1  0.1183092E+005  0.1043930E+01  0.7957747E-01            NaN
         13   -1    0    0    0    0  0.00000000000E+00  0.00000000000E+00  0.74505805969E-08  0.10566000000E+00  0.10566000000E+00 0. -1.
     999900   -1    0    0    0    0 -0.00000000000E+00 -0.00000000000E+00 -0.74505805969E-08  0.93827000000E+00  0.93827000000E+00 0. -1.
     999902    2    1    2    0    0  0.13877237933E-01 -0.12024364448E-01  0.11305266228E-01  0.10223667879E+01  0.10221393627E+01 0.  0.
     999903    2    3    3    0    0 -0.39460300387E-01 -0.12587365028E+00  0.13216171994E-02  0.13337509717E+00  0.19643796292E-01 0.  0.
         14    1    1    2    0    0 -0.13877237933E-01  0.12024364448E-01 -0.11305266228E-01  0.21563212133E-01  0.00000000000E+00 0.  1.
     999901    1    3    3    0    0  0.53337538319E-01  0.11384928583E+00  0.99836490288E-02  0.88899169070E+00  0.88000000000E+00 0.  1.
        -11    1    4    4    0    0 -0.25782802125E-01 -0.91289933596E-01  0.93590428850E-02  0.95322912597E-01  0.51100000000E-03 0. -1.
         11    1    4    4    0    0 -0.13677498262E-01 -0.34583716681E-01 -0.80374256856E-02  0.38052184574E-01  0.51100000000E-03 0.  1.
</event>
<event>
 8    1  0.1183092E+005  0.1043930E+01  0.7957747E-01            NaN
         13   -1    0    0    0    0  0.00000000000E+00  0.00000000000E+00  0.74505805969E-08  0.10566000000E+00  0.10566000000E+00 0. -1.
     999900   -1    0    0    0    0 -0.00000000000E+00 -0.00000000000E+00 -0.74505805969E-08  0.93827000000E+00  0.93827000000E+00 0. -1.
     999902    2    1    2    0    0  0.85540683676E-02 -0.12810796784E-01  0.16534219454E-01  0.10213320131E+01  0.10210819810E+01 0.  0.
     999903    2    3    3    0    0  0.11010938502E+00  0.16390610174E-01  0.70648627980E-01  0.13335984363E+00  0.20022249802E-01 0.  0.
         14    1    1    2    0    0 -0.85540683676E-02  0.12810796784E-01 -0.16534219454E-01  0.22597986920E-01  0.00000000000E+00 0. -1.
     999901    1    3    3    0    0 -0.10155531665E+00 -0.29201406958E-01 -0.54114408526E-01  0.88797216945E+00  0.88000000000E+00 0. -1.
        -11    1    4    4    0    0  0.50957500740E-01  0.23131703190E-02  0.22295496953E-01  0.55671967309E-01  0.51100000000E-03 0. -1.
         11    1    4    4    0    0  0.59151884275E-01  0.14077439855E-01  0.48353131027E-01  0.77687876321E-01  0.51100000000E-03 0.  1.
</event>
<event>
 8    1  0.1183092E+005  0.1043930E+01  0.7957747E-01            NaN
         13   -1    0    0    0    0  0.00000000000E+00  0.00000000000E+00  0.74505805969E-08  0.10566000000E+00  0.10566000000E+00 0.  1.
     999900   -1    0    0    0    0 -0.00000000000E+00 -0.00000000000E+00 -0.74505805969E-08  0.93827000000E+00  0.93827000000E+00 0.  1.
     999902    2    1    2    0    0  0.15060467501E-01 -0.12076902590E-01  0.14078178200E-01  0.10200372321E+01  0.10197573684E+01 0.  0.
     999903    2    3    3    0    0 -0.26634384430E-01 -0.11517302206E+00 -0.51887176014E-01  0.13058869591E+00  0.19670104768E-01 0.  0.
         14    1    1    2    0    0 -0.15060467501E-01  0.12076902590E-01 -0.14078178200E-01  0.23892767921E-01  0.00000000000E+00 0. -1.
     999901    1    3    3    0    0  0.41694851931E-01  0.10309611947E+00  0.65965354214E-01  0.88944853616E+00  0.88000000000E+00 0. -1.
        -11    1    4    4    0    0 -0.45477789466E-02 -0.30951355565E-02 -0.14295823287E-02  0.57067489953E-02  0.51100000000E-03 0. -1.
         11    1    4    4    0    0 -0.22086605484E-01 -0.11207788650E+00 -0.50457593685E-01  0.12488194692E+00  0.51100000000E-03 0.  1.
</event>
<event>
 8    1  0.1183092E+005  0.1043930E+01  0.7957747E-01            NaN
         13   -1    0    0    0    0  0.00000000000E+00  0.00000000000E+00  0.74505805969E-08  0.10566000000E+00  0.10566000000E+00 0. -1.
     999900   -1    0    0    0    0 -0.00000000000E+00 -0.00000000000E+00 -0.74505805969E-08  0.93827000000E+00  0.93827000000E+00 0.  1.
     999902    2    1    2    0    0  0.71694605424E-02  0.16982277105E-01 -0.14254119228E-01  0.10206280942E+01  0.10203620572E+01 0.  0.
     999903    2    3    3    0    0 -0.88650039010E-01 -0.82958078338E-01 -0.40250264768E-01  0.12942371205E+00  0.19736799339E-01 0.  0.
         14    1    1    2    0    0 -0.71694605424E-02 -0.16982277105E-01  0.14254119228E-01  0.23301905825E-01  0.00000000000E+00 0.  1.
     999901    1    3    3    0    0  0.95819499553E-01  0.99940355443E-01  0.25996145540E-01  0.89120438213E+00  0.88000000000E+00 0. -1.
        -11    1    4    4    0    0 -0.56397474537E-01 -0.50178502214E-01 -0.15026330712E-01  0.76971481435E-01  0.51100000000E-03 0. -1.
         11    1    4    4    0    0 -0.32252564473E-01 -0.32779576124E-01 -0.25223934056E-01  0.52452230612E-01  0.51100000000E-03 0.  1.
</event>
<event>
 8    1  0.1183092E+005  0.1043930E+01  0.7957747E-01            NaN
         13   -1    0    0    0    0  0.00000000000E+00  0.00000000000E+00  0.74505805969E-08  0.10566000000E+00  0.10566000000E+00 0. -1.
     999900   -1    0    0    0    0 -0.00000000000E+00 -0.00000000000E+00 -0.74505805969E-08  0.93827000000E+00  0.93827000000E+00 0. -1.
     999902    2    1    2    0    0 -0.17107007058E-01  0.13414667042E-01  0.11077160595E-01  0.10195310970E+01  0.10192391040E+01 0.  0.
     999903    2    3    3    0    0  0.11261868670E-01 -0.62480658054E-01  0.11163236530E+00  0.13010642749E+00  0.20862290736E-01 0.  0.
         14    1    1    2    0    0  0.17107007058E-01 -0.13414667042E-01 -0.11077160595E-01  0.24398903033E-01  0.00000000000E+00 0. -1.
     999901    1    3    3    0    0 -0.28368875728E-01  0.75895325096E-01 -0.10055520471E+00  0.88942466948E+00  0.88000000000E+00 0. -1.
        -11    1    4    4    0    0  0.10965539951E-01 -0.15273686771E-01  0.23255160557E-01  0.29909733993E-01  0.51100000000E-03 0. -1.
         11    1    4    4    0    0  0.29632871902E-03 -0.47206971283E-01  0.88377204744E-01  0.10019669350E+00  0.51100000000E-03 0.  1.
</event>
<event>
 8    1  0.1205814E+005  0.1043930E+01  0.7957747E-01            NaN
         13   -1    0    0    0    0  0.00000000000E+00  0.00000000000E+00  0.74505805969E-08  0.10566000000E+00  0.10566000000E+00 0.  1.
     999900   -1    0    0    0    0 -0.00000000000E+00 -0.00000000000E+00 -0.74505805969E-08  0.93827000000E+00  0.93827000000E+00 0. -1.
     999902    2    1    2    0    0 -0.18347981578E-01 -0.42260525754E-02  0.15005279498E-01  0.10198537386E+01  0.10195695081E+01 0.  0.
     999903    2    3    3    0    0  0.91246839642E-01  0.71305238799E-01  0.53720338679E-01  0.12900310210E+00  0.18587703954E-01 0.  0.
         14    1    1    2    0    0  0.18347981578E-01  0.42260525754E-02 -0.15005279498E-01  0.24076261362E-01  0.00000000000E+00 0. -1.
     999901    1    3    3    0    0 -0.10959482122E+00 -0.75531291375E-01 -0.38715059180E-01  0.89085063654E+00  0.88000000000E+00 0. -1.
        -11    1    4    4    0    0  0.30855800336E-01  0.25662638078E-01  0.28447281295E-01  0.49195125181E-01  0.51100000000E-03 0. -1.
         11    1    4    4    0    0  0.60391039306E-01  0.45642600721E-01  0.25273057384E-01  0.79807976917E-01  0.51100000000E-03 0.  1.
</event>
<event>
 8    1  0.1183092E+005  0.1043930E+01  0.7957747E-01            NaN
         13   -1    0    0    0    0  0.00000000000E+00  0.00000000000E+00  0.74505805969E-08  0.10566000000E+00  0.10566000000E+00 0.  1.
     999900   -1    0    0    0    0 -0.00000000000E+00 -0.00000000000E+00 -0.74505805969E-08  0.93827000000E+00  0.93827000000E+00 0. -1.
     999902    2    1    2    0    0 -0.25344374353E-01  0.22243741794E-02  0.14724401147E-01  0.10145345388E+01  0.10141085924E+01 0.  0.
     999903    2    3    3    0    0  0.39435430140E-01 -0.39893497684E-01 -0.10737965806E+00  0.12274995745E+00  0.19761497472E-01 0.  0.
         14    1    1    2    0    0  0.25344374353E-01 -0.22243741794E-02 -0.14724401147E-01  0.29395461231E-01  0.00000000000E+00 0. -1.
     999901    1    3    3    0    0 -0.64779804493E-01  0.42117871863E-01  0.12210405920E+00  0.89178458132E+00  0.88000000000E+00 0.  1.
        -11    1    4    4    0    0  0.28025280674E-01 -0.38871517878E-01 -0.89118816616E-01  0.10118713285E+00  0.51100000000E-03 0.  1.
         11    1    4    4    0    0  0.11410149466E-01 -0.10219798057E-02 -0.18260841441E-01  0.21562824599E-01  0.51100000000E-03 0. -1.
</event>
<event>
 8    1  0.1183092E+005  0.1043930E+01  0.7957747E-01            NaN
         13   -1    0    0    0    0  0.00000000000E+00  0.00000000000E+00  0.74505805969E-08  0.10566000000E+00  0.10566000000E+00 0. -1.
     999900   -1    0    0    0    0 -0.00000000000E+00 -0.00000000000E+00 -0.74505805969E-08  0.93827000000E+00  0.93827000000E+00 0.  1.
     999902    2    1    2    0    0 -0.16468164130E-01  0.13313140309E-01  0.11333709092E-01  0.10199114010E+01  0.10196285465E+01 0.  0.
     999903    2    3    3    0    0  0.64911573378E-01  0.66313973036E-01  0.90265465708E-01  0.13105709792E+00  0.20421881370E-01 0.  0.
         14    1    1    2    0    0  0.16468164130E-01 -0.13313140309E-01 -0.11333709092E-01  0.24018598970E-01  0.00000000000E+00 0. -1.
     999901    1    3    3    0    0 -0.81379737508E-01 -0.53000832727E-01 -0.78931756616E-01  0.88885430311E+00  0.88000000000E+00 0.  1.
        -11    1    4    4    0    0  0.47295940514E-01  0.50518036588E-01  0.78428904557E-01  0.10459604295E+00  0.51100000000E-03 0. -1.
         11    1    4    4    0    0  0.17615632865E-01  0.15795936448E-01  0.11836561151E-01  0.26461054975E-01  0.51100000000E-03 0.  1.
</event>
<event>
 8    1  0.1183092E+005  0.1043930E+01  0.7957747E-01            NaN
         13   -1    0    0    0    0  0.00000000000E+00  0.00000000000E+00  0.74505805969E-08  0.10566000000E+00  0.10566000000E+00 0. -1.
     999900   -1    0    0    0    0 -0.00000000000E+00 -0.00000000000E+00 -0.74505805969E-08  0.93827000000E+00  0.93827000000E+00 0.  1.
     999902    2    1    2    0    0 -0.64814063361E-02 -0.22702683436E-01 -0.66174313877E-02  0.10194103984E+01  0.10191154741E+01 0.  0.
     999903    2    3    3    0    0  0.48321041915E-01 -0.91098883638E-01 -0.79974687075E-01  0.13201948372E+00  0.19981586958E-01 0.  0.
         14    1    1    2    0    0  0.64814063361E-02  0.22702683436E-01  0.66174313877E-02  0.24519601576E-01  0.00000000000E+00 0. -1.
     999901    1    3    3    0    0 -0.54802448251E-01  0.68396200202E-01  0.73357255687E-01  0.88739091470E+00  0.88000000000E+00 0. -1.
        -11    1    4    4    0    0  0.28438525169E-01 -0.37857436034E-01 -0.44763043313E-01  0.65160773050E-01  0.51100000000E-03 0.  1.
         11    1    4    4    0    0  0.19882516746E-01 -0.53241447604E-01 -0.35211643762E-01  0.66858710671E-01  0.51100000000E-03 0. -1.
</event>
<event>
 8    1  0.1183092E+005  0.1043930E+01  0.7957747E-01            NaN
         13   -1    0    0    0    0  0.00000000000E+00  0.00000000000E+00  0.74505805969E-08  0.10566000000E+00  0.10566000000E+00 0.  1.
     999900   -1    0    0    0    0 -0.00000000000E+00 -0.00000000000E+00 -0.74505805969E-08  0.93827000000E+00  0.93827000000E+00 0.  1.
     999902    2    1    2    0    0  0.80818621571E-02 -0.57377490050E-02 -0.20531700173E-01  0.10211311191E+01  0.10208765711E+01 0.  0.
     999903    2    3    3    0    0 -0.12054328201E+00 -0.31097835058E-01 -0.37510811121E-01  0.13125705389E+00  0.17988748224E-01 0.  0.
         14    1    1    2    0    0 -0.80818621571E-02  0.57377490050E-02  0.20531700173E-01  0.22798880928E-01  0.00000000000E+00 0.  1.
     999901    1    3    3    0    0  0.12862514416E+00  0.25360086053E-01  0.16979110948E-01  0.88987406518E+00  0.88000000000E+00 0.  1.
        -11    1    4    4    0    0 -0.76971735295E-01 -0.11862489049E-01 -0.19088363712E-01  0.80187239826E-01  0.51100000000E-03 0.  1.
         11    1    4    4    0    0 -0.43571546711E-01 -0.19235346010E-01 -0.18422447409E-01  0.51069814063E-01  0.51100000000E-03 0. -1.
</event>
<event>
 8    1  0.1183092E+005  0.1043930E+01  0.7957747E-01            NaN
         13   -1    0    0    0    0  0.00000000000E+00  0.00000000000E+00  0.74505805969E-08  0.10566000000E+00  0.10566000000E+00 0. -1.
     999900   -1    0    0    0    0 -0.00000000000E+00 -0.00000000000E+00 -0.74505805969E-08  0.93827000000E+00  0.93827000000E+00 0.  1.
     999902    2    1    2    0    0  0.27249216460E-03 -0.39083512427E-02 -0.23673027084E-01  0.10199349657E+01  0.10196526725E+01 0.  0.
     999903    2    3    3    0    0 -0.35669199750E-01  0.24256774496E-01  0.11821187535E+00  0.12740126599E+00  0.19908595662E-01 0.  0.
         14    1    1    2    0    0 -0.27249216460E-03  0.39083512427E-02  0.23673027084E-01  0.23995034335E-01  0.00000000000E+00 0. -1.
     999901    1    3    3    0    0  0.35941691915E-01 -0.28165125739E-01 -0.14188490243E+00  0.89253369968E+00  0.88000000000E+00 0.  1.
        -11    1    4    4    0    0 -0.11031814811E-01  0.14252219372E-01  0.27604552956E-01  0.32971186814E-01  0.51100000000E-03 0. -1.
         11    1    4    4    0    0 -0.24637384939E-01  0.10004555124E-01  0.90607322394E-01  0.94430079171E-01  0.51100000000E-03 0.  1.
</event>
<event>
 8    1  0.1183092E+005  0.1043930E+01  0.7957747E-01            NaN
         13   -1    0    0    0    0  0.00000000000E+00  0.00000000000E+00  0.74505805969E-08  0.10566000000E+00  0.10566000000E+00 0. -1.
     999900   -1    0    0    0    0 -0.00000000000E+00 -0.00000000000E+00 -0.74505805969E-08  0.93827000000E+00  0.93827000000E+00 0.  1.
     999902    2    1    2    0    0 -0.17083349139E-01  0.10757681404E-01 -0.71541009950E-02  0.10225115573E+01  0.10222872077E+01 0.  0.
     999903    2    3    3    0    0 -0.96698174532E-01 -0.81705261076E-01  0.35573107599E-01  0.13306592629E+00  0.20366838486E-01 0.  0.
         14    1    1    2    0    0  0.17083349139E-01 -0.10757681404E-01  0.71541009950E-02  0.21418442708E-01  0.00000000000E+00 0. -1.
     999901    1    3    3    0    0  0.79614825393E-01  0.92462942480E-01 -0.42727208594E-01  0.88944563100E+00  0.88000000000E+00 0. -1.
        -11    1    4    4    0    0 -0.27162399681E-01 -0.33686773506E-01  0.17303721009E-01  0.46607666187E-01  0.51100000000E-03 0. -1.
         11    1    4    4    0    0 -0.69535774851E-01 -0.48018487570E-01  0.18269386590E-01  0.86458260103E-01  0.51100000000E-03 0.  1.
</event>
<event>
 8    1  0.1183092E+005  0.1043930E+01  0.7957747E-01            NaN
         13   -1    0    0    0    0  0.00000000000E+00  0.00000000000E+00  0.74505805969E-08  0.10566000000E+00  0.10566000000E+00 0.  1.
     999900   -1    0    0    0    0 -0.00000000000E+00 -0.00000000000E+00 -0.74505805969E-08  0.93827000000E+00  0.93827000000E+00 0. -1.
     999902    2    1    2    0    0 -0.71390293213E-02 -0.42135777149E-02  0.21646404560E-01  0.10207505521E+01  0.10204873359E+01 0.  0.
     999903    2    3    3    0    0  0.12725132994E+00 -0.13585418194E-01  0.16549550151E-01  0.13048397513E+00  0.19357572113E-01 0.  0.
         14    1    1    2    0    0  0.71390293213E-02  0.42135777149E-02 -0.21646404560E-01  0.23179447948E-01  0.00000000000E+00 0. -1.
     999901    1    3    3    0    0 -0.13439035926E+00  0.93718404796E-02  0.50968544089E-02  0.89026657692E+00  0.88000000000E+00 0.  1.
        -11    1    4    4    0    0  0.66445250251E-01 -0.14502974929E-02  0.16483887379E-01  0.68476669807E-01  0.51100000000E-03 0.  1.
         11    1    4    4    0    0  0.60806079685E-01 -0.12135120702E-01  0.65662772020E-04  0.62007305326E-01  0.51100000000E-03 0. -1.
</event>
<event>
 8    1  0.1183092E+005  0.1043930E+01  0.7957747E-01            NaN
         13   -1    0    0    0    0  0.00000000000E+00  0.00000000000E+00  0.74505805969E-08  0.10566000000E+00  0.10566000000E+00 0. -1.
     999900   -1    0    0    0    0 -0.00000000000E+00 -0.00000000000E+00 -0.74505805969E-08  0.93827000000E+00  0.93827000000E+00 0.  1.
     999902    2    1    2    0    0  0.75121629933E-02  0.95108877256E-02 -0.20883424290E-01  0.10197844624E+01  0.10194985741E+01 0.  0.
     999903    2    3    3    0    0  0.38946504720E-01 -0.10546353902E+00  0.58206184498E-01  0.12823390133E+00  0.20410419979E-01 0.  0.
         14    1    1    2    0    0 -0.75121629933E-02 -0.95108877256E-02  0.20883424290E-01  0.24145537646E-01  0.00000000000E+00 0.  1.
     999901    1    3    3    0    0 -0.31434341727E-01  0.11497442675E+00 -0.79089608788E-01  0.89155056102E+00  0.88000000000E+00 0.  1.
        -11    1    4    4    0    0  0.27938195021E-01 -0.93803371200E-01  0.46423756837E-01  0.10832839660E+00  0.51100000000E-03 0. -1.
         11    1    4    4    0    0  0.11008309700E-01 -0.11660167820E-01  0.11782427661E-01  0.19905504732E-01  0.51100000000E-03 0.  1.
</event>
<event>
 8    1  0.1183092E+005  0.1043930E+01  0.7957747E-01            NaN
         13   -1    0    0    0    0  0.00000000000E+00  0.00000000000E+00  0.74505805969E-08  0.10566000000E+00  0.10566000000E+00 0. -1.
     999900   -1    0    0    0    0 -0.00000000000E+00 -0.00000000000E+00 -0.74505805969E-08  0.93827000000E+00  0.93827000000E+00 0.  1.
     999902    2    1    2    0    0 -0.19454442711E-01  0.93207181166E-02  0.97355937353E-02  0.10202628727E+01  0.10199883316E+01 0.  0.
     999903    2    3    3    0    0  0.89272056100E-01 -0.88214642999E-01 -0.14805462880E-01  0.12788578783E+00  0.19602289609E-01 0.  0.
         14    1    1    2    0    0  0.19454442711E-01 -0.93207181166E-02 -0.97355937353E-02  0.23667127261E-01  0.00000000000E+00 0. -1.
     999901    1    3    3    0    0 -0.10872649881E+00  0.97535361116E-01  0.24541056615E-01  0.89237708491E+00  0.88000000000E+00 0.  1.
        -11    1    4    4    0    0  0.13520000182E-01 -0.21676461890E-01 -0.82308545198E-02  0.26845250830E-01  0.51100000000E-03 0. -1.
         11    1    4    4    0    0  0.75752055918E-01 -0.66538181109E-01 -0.65746083601E-02  0.10104053700E+00  0.51100000000E-03 0.  1.
</event>
<event>
 8    1  0.1183092E+005  0.1043930E+01  0.7957747E-01            NaN
         13   -1    0    0    0    0  0.00000000000E+00  0.00000000000E+00  0.74505805969E-08  0.10566000000E+00  0.10566000000E+00 0. -1.
     999900   -1    0    0    0    0 -0.00000000000E+00 -0.00000000000E+00 -0.74505805969E-08  0.93827000000E+00  0.93827000000E+00 0.  1.
     999902    2    1    2    0    0  0.65712719175E-02  0.79944858588E-02 -0.20425340553E-01  0.10210326649E+01  0.10207758886E+01 0.  0.
     999903    2    3    3    0    0 -0.65158309381E-01  0.50208059265E-01  0.97861235921E-01  0.12922616525E+00  0.18871295468E-01 0.  0.
         14    1    1    2    0    0 -0.65712719175E-02 -0.79944858588E-02  0.20425340553E-01  0.22897335117E-01  0.00000000000E+00 0. -1.
     999901    1    3    3    0    0  0.71729581299E-01 -0.42213573406E-01 -0.11828657647E+00  0.89180649963E+00  0.88000000000E+00 0.  1.
        -11    1    4    4    0    0 -0.41529908912E-01  0.28199813134E-01  0.45759468884E-01  0.67927556327E-01  0.51100000000E-03 0. -1.
         11    1    4    4    0    0 -0.23628400469E-01  0.22008246131E-01  0.52101767037E-01  0.61298608923E-01  0.51100000000E-03 0.  1.
</event>
<event>
 8    1  0.1183092E+005  0.1043930E+01  0.7957747E-01            NaN
         13   -1    0    0    0    0  0.00000000000E+00  0.00000000000E+00  0.74505805969E-08  0.10566000000E+00  0.10566000000E+00 0. -1.
     999900   -1    0    0    0    0 -0.00000000000E+00 -0.00000000000E+00 -0.74505805969E-08  0.93827000000E+00  0.93827000000E+00 0.  1.
     999902    2    1    2    0    0 -0.19429163991E-01  0.12452666840E-01  0.45504579184E-02  0.10204083506E+01  0.10201372133E+01 0.  0.
     999903    2    3    3    0    0 -0.10604111218E+00 -0.59742097613E-01  0.47154411277E-01  0.13219170446E+00  0.20911062291E-01 0.  0.
         14    1    1    2    0    0  0.19429163991E-01 -0.12452666840E-01 -0.45504579184E-02  0.23521649434E-01  0.00000000000E+00 0.  1.
     999901    1    3    3    0    0  0.86611948184E-01  0.72194764453E-01 -0.42603953358E-01  0.88821664611E+00  0.88000000000E+00 0.  1.
        -11    1    4    4    0    0 -0.46887506087E-01 -0.19364999797E-01  0.28463040237E-01  0.58170845143E-01  0.51100000000E-03 0. -1.
         11    1    4    4    0    0 -0.59153606088E-01 -0.40377097816E-01  0.18691371040E-01  0.74020859314E-01  0.51100000000E-03 0.  1.
</event>
<event>
 8    1  0.1183092E+005  0.1043930E+01  0.7957747E-01            NaN
         13   -1    0    0    0    0  0.00000000000E+00  0.00000000000E+00  0.74505805969E-08  0.10566000000E+00  0.10566000000E+00 0.  1.
     999900   -1    0    0    0    0 -0.00000000000E+00 -0.00000000000E+00 -0.74505805969E-08  0.93827000000E+00  0.93827000000E+00 0. -1.
     999902    2    1    2    0    0 -0.21371012603E-01 -0.99946684730E-02  0.15569769226E-02  0.10202860208E+01  0.10200120227E+01 0.  0.
     999903    2    3    3    0    0 -0.70966383440E-01  0.36775938433E-01  0.10291643228E+00  0.13184866805E+00  0.20089350601E-01 0.  0.
         14    1    1    2    0    0  0.21371012603E-01  0.99946684730E-02 -0.15569769226E-02  0.23643979248E-01  0.00000000000E+00 0.  1.
     999901    1    3    3    0    0  0.49595370837E-01 -0.46770606906E-01 -0.10135945536E+00  0.88843735270E+00  0.88000000000E+00 0. -1.
        -11    1    4    4    0    0 -0.35624726545E-01  0.13043052160E-01  0.34578484899E-01  0.51333956500E-01  0.51100000000E-03 0.  1.
         11    1    4    4    0    0 -0.35341656895E-01  0.23732886272E-01  0.68337947384E-01  0.80514711553E-01  0.51100000000E-03 0. -1.
</event>
<event>
 8    1  0.1183092E+005  0.1043930E+01  0.7957747E-01            NaN
         13   -1    0    0    0    0  0.00000000000E+00  0.00000000000E+00  0.74505805969E-08  0.10566000000E+00  0.10566000000E+00 0. -1.
     999900   -1    0    0    0    0 -0.00000000000E+00 -0.00000000000E+00 -0.74505805969E-08  0.93827000000E+00  0.93827000000E+00 0.  1.
     999902    2    1    2    0    0  0.63803109778E-02 -0.20793847142E-01  0.10344366498E-01  0.10198447687E+01  0.10195603238E+01 0.  0.
     999903    2    3    3    0    0  0.74538999821E-01 -0.10547165085E+00  0.25031819127E-01  0.13303494776E+00  0.19783167812E-01 0.  0.
         14    1    1    2    0    0 -0.63803109778E-02  0.20793847142E-01 -0.10344366498E-01  0.24085231271E-01  0.00000000000E+00 0. -1.
     999901    1    3    3    0    0 -0.68158688843E-01  0.84677803709E-01 -0.14687452629E-01  0.88680982097E+00  0.88000000000E+00 0.  1.
        -11    1    4    4    0    0  0.12922459304E-01 -0.27799855800E-01 -0.46305587867E-03  0.30664270392E-01  0.51100000000E-03 0. -1.
         11    1    4    4    0    0  0.61616540518E-01 -0.77671795051E-01  0.25494875006E-01  0.10237067737E+00  0.51100000000E-03 0.  1.
</event>
<event>
 8    1  0.1183092E+005  0.1043930E+01  0.7957747E-01            NaN
         13   -1    0    0    0    0  0.00000000000E+00  0.00000000000E+00  0.74505805969E-08  0.10566000000E+00  0.10566000000E+00 0. -1.
     999900   -1    0    0    0    0 -0.00000000000E+00 -0.00000000000E+00 -0.74505805969E-08  0.93827000000E+00  0.93827000000E+00 0. -1.
     999902    2    1    2    0    0  0.16846623316E-02 -0.25087861260E-01  0.19183757663E-02  0.10187125649E+01  0.10184003981E+01 0.  0.
     999903    2    3    3    0    0  0.32355116220E-01 -0.46512035294E-01 -0.11532346551E+00  0.13014893668E+00  0.20712823272E-01 0.  0.
         14    1    1    2    0    0 -0.16846623316E-02  0.25087861260E-01 -0.19183757663E-02  0.25217435146E-01  0.00000000000E+00 0. -1.
     999901    1    3    3    0    0 -0.30670453888E-01  0.21424174035E-01  0.11724184128E+00  0.88856362818E+00  0.88000000000E+00 0.  1.
        -11    1    4    4    0    0  0.39616092951E-02 -0.15474666741E-01 -0.49631459153E-01  0.52141178714E-01  0.51100000000E-03 0. -1.
         11    1    4    4    0    0  0.28393506925E-01 -0.31037368553E-01 -0.65692006357E-01  0.78007757963E-01  0.51100000000E-03 0.  1.
</event>
<event>
 8    1  0.1183092E+005  0.1043930E+01  0.7957747E-01            NaN
         13   -1    0    0    0    0  0.00000000000E+00  0.00000000000E+00  0.74505805969E-08  0.10566000000E+00  0.10566000000E+00 0. -1.
     999900   -1    0    0    0    0 -0.00000000000E+00 -0.00000000000E+00 -0.74505805969E-08  0.93827000000E+00  0.93827000000E+00 0.  1.
     999902    2    1    2    0    0  0.11164467498E-02 -0.20741169913E-01  0.10809330803E-01  0.10205145304E+01  0.10202458638E+01 0.  0.
     999903    2    3    3    0    0 -0.83438834396E-01  0.93051617058E-01 -0.22481377274E-01  0.12854666936E+00  0.19954732709E-01 0.  0.
         14    1    1    2    0    0 -0.11164467498E-02  0.20741169913E-01 -0.10809330803E-01  0.23415469568E-01  0.00000000000E+00 0.  1.
     999901    1    3    3    0    0  0.84555281146E-01 -0.11379278697E+00  0.33290708077E-01  0.89196786107E+00  0.88000000000E+00 0.  1.
        -11    1    4    4    0    0 -0.23595225809E-01  0.39092940424E-01 -0.12547897838E-01  0.47357190934E-01  0.51100000000E-03 0. -1.
         11    1    4    4    0    0 -0.59843608587E-01  0.53958676635E-01 -0.99334794354E-02  0.81189478429E-01  0.51100000000E-03 0.  1.
</event>
<event>
 8    1  0.1183092E+005  0.1043930E+01  0.7957747E-01            NaN
         13   -1    0    0    0    0  0.00000000000E+00  0.00000000000E+00  0.74505805969E-08  0.10566000000E+00  0.10566000000E+00 0. -1.
     999900   -1    0    0    0    0 -0.00000000000E+00 -0.00000000000E+00 -0.74505805969E-08  0.93827000000E+00  0.93827000000E+00 0.  1.
     999902    2    1    2    0    0  0.30790143026E-02 -0.25511594234E-01  0.76935549696E-03  0.10182217586E+01  0.10178971637E+01 0.  0.
     999903    2    3    3    0    0 -0.33508651209E-01 -0.10394170694E+00 -0.69888280382E-01  0.13115781423E+00  0.19781110993E-01 0.  0.
         14    1    1    2    0    0 -0.30790143026E-02  0.25511594234E-01 -0.76935549696E-03  0.25708241428E-01  0.00000000000E+00 0.  1.
     999901    1    3    3    0    0  0.36587665512E-01  0.78430112701E-01  0.70657635879E-01  0.88706394434E+00  0.88000000000E+00 0. -1.
        -11    1    4    4    0    0 -0.18025308640E-01 -0.64854771467E-01 -0.53675777620E-01  0.86095315539E-01  0.51100000000E-03 0.  1.
         11    1    4    4    0    0 -0.15483342569E-01 -0.39086935468E-01 -0.16212502762E-01  0.45062498690E-01  0.51100000000E-03 0. -1.
</event>
<event>
 7    1  0.1183092E+005  0.1043930E+01  0.7957747E-01            NaN
         13   -1    0    0    0    0  0.00000000000E+00  0.00000000000E+00  0.74505805969E-08  0.10566000000E+00  0.10566000000E+00 0. -1.
     999900   -1    0    0    0    0 -0.00000000000E+00 -0.00000000000E+00 -0.74505805969E-08  0.93827000000E+00  0.93827000000E+00 0. -1.
     999903    2    1    2    0    0 -0.72451317281E-01  0.26355397923E-01 -0.29400523584E-01  0.85093191114E-01  0.20800481042E-01 0.  0.
         14    1    1    2    0    0  0.39662456873E-01 -0.49457478482E-01 -0.40378779876E-01  0.75163811288E-01  0.00000000000E+00 0.  1.
     999901    1    1    2    0    0  0.32788860408E-01  0.23102080559E-01  0.69779303459E-01  0.88367299760E+00  0.88000000000E+00 0.  1.
        -11    1    3    3    0    0 -0.33614813640E-01  0.38024786957E-02 -0.56979094220E-02  0.34309500623E-01  0.51100000000E-03 0.  1.
         11    1    3    3    0    0 -0.38836503641E-01  0.22552919228E-01 -0.23702614162E-01  0.50783690491E-01  0.51100000000E-03 0. -1.
</event>
<event>
 8    1  0.1183092E+005  0.1043930E+01  0.7957747E-01            NaN
         13   -1    0    0    0    0  0.00000000000E+00  0.00000000000E+00  0.74505805969E-08  0.10566000000E+00  0.10566000000E+00 0. -1.
     999900   -1    0    0    0    0 -0.00000000000E+00 -0.00000000000E+00 -0.74505805969E-08  0.93827000000E+00  0.93827000000E+00 0.  1.
     999902    2    1    2    0    0 -0.22102548732E-01 -0.15202950349E-02  0.76234264965E-02  0.10205003054E+01  0.10202313084E+01 0.  0.
     999903    2    3    3    0    0  0.60137084322E-01  0.11259317490E+00 -0.18709290032E-02  0.12927901748E+00  0.20392940950E-01 0.  0.
         14    1    1    2    0    0  0.22102548732E-01  0.15202950349E-02 -0.76234264965E-02  0.23429694599E-01  0.00000000000E+00 0. -1.
     999901    1    3    3    0    0 -0.82239633054E-01 -0.11411346993E+00  0.94943554997E-02  0.89122128792E+00  0.88000000000E+00 0.  1.
        -11    1    4    4    0    0  0.53961016996E-02  0.21694171338E-01 -0.57814840727E-02  0.23096356048E-01  0.51100000000E-03 0. -1.
         11    1    4    4    0    0  0.54740982622E-01  0.90899003557E-01  0.39105550695E-02  0.10618266143E+00  0.51100000000E-03 0.  1.
</event>
<event>
 8    1  0.1183092E+005  0.1043930E+01  0.7957747E-01            NaN
         13   -1    0    0    0    0  0.00000000000E+00  0.00000000000E+00  0.74505805969E-08  0.10566000000E+00  0.10566000000E+00 0.  1.
     999900   -1    0    0    0    0 -0.00000000000E+00 -0.00000000000E+00 -0.74505805969E-08  0.93827000000E+00  0.93827000000E+00 0. -1.
     999902    2    1    2    0    0 -0.15058169478E-01 -0.41671558498E-02  0.17900206191E-01  0.10201701381E+01  0.10198934158E+01 0.  0.
     999903    2    3    3    0    0 -0.60455069326E-01  0.77031527372E-01  0.87169916140E-01  0.13255963941E+00  0.19616118453E-01 0.  0.
         14    1    1    2    0    0  0.15058169478E-01  0.41671558498E-02 -0.17900206191E-01  0.23759861901E-01  0.00000000000E+00 0. -1.
     999901    1    3    3    0    0  0.45396899848E-01 -0.81198683221E-01 -0.69269709950E-01  0.88761049869E+00  0.88000000000E+00 0. -1.
        -11    1    4    4    0    0 -0.11640515260E-01  0.13632259858E-01  0.27135959852E-01  0.32526320764E-01  0.51100000000E-03 0.  1.
         11    1    4    4    0    0 -0.48814554066E-01  0.63399267514E-01  0.60033956289E-01  0.10003331864E+00  0.51100000000E-03 0. -1.
</event>
<event>
 8    1  0.1183092E+005  0.1043930E+01  0.7957747E-01            NaN
         13   -1    0    0    0    0  0.00000000000E+00  0.00000000000E+00  0.74505805969E-08  0.10566000000E+00  0.10566000000E+00 0. -1.
     999900   -1    0    0    0    0 -0.00000000000E+00 -0.00000000000E+00 -0.74505805969E-08  0.93827000000E+00  0.93827000000E+00 0. -1.
     999902    2    1    2    0    0  0.53974929341E-02  0.16878316691E-01  0.15996907236E-01  0.10200571798E+01  0.10197777888E+01 0.  0.
     999903    2    3    3    0    0  0.35259914868E-01  0.77417440494E-01  0.10063476777E+00  0.13342291629E+00  0.20918805353E-01 0.  0.
         14    1    1    2    0    0 -0.53974929341E-02 -0.16878316691E-01 -0.15996907236E-01  0.23872820223E-01  0.00000000000E+00 0.  1.
     999901    1    3    3    0    0 -0.29862421933E-01 -0.60539123803E-01 -0.84637860537E-01  0.88663426349E+00  0.88000000000E+00 0. -1.
        -11    1    4    4    0    0  0.29824215331E-01  0.75884905084E-01  0.96863011179E-01  0.12661242710E+00  0.51100000000E-03 0.  1.
         11    1    4    4    0    0  0.54356995368E-02  0.15325354096E-02  0.37717565935E-02  0.68104891921E-02  0.51100000000E-03 0. -1.
</event>
<event>
 8    1  0.1183092E+005  0.1043930E+01  0.7957747E-01            NaN
         13   -1    0    0    0    0  0.00000000000E+00  0.00000000000E+00  0.74505805969E-08  0.10566000000E+00  0.10566000000E+00 0.  1.
     999900   -1    0    0    0    0 -0.00000000000E+00 -0.00000000000E+00 -0.74505805969E-08  0.93827000000E+00  0.93827000000E+00 0. -1.
     999902    2    1    2    0    0  0.20096046462E-01  0.77122114358E-02 -0.67442976910E-02  0.10213730756E+01  0.10211239615E+01 0.  0.
     999903    2    3    3    0    0 -0.55098018790E-01 -0.11538651493E+00 -0.46871654271E-02  0.12962665663E+00  0.20766826634E-01 0.  0.
         14    1    1    2    0    0 -0.20096046462E-01 -0.77122114358E-02  0.67442976910E-02  0.22556924436E-01  0.00000000000E+00 0.  1.
     999901    1    3    3    0    0  0.75194065253E-01  0.12309872636E+00 -0.20571322639E-02  0.89174641893E+00  0.88000000000E+00 0. -1.
        -11    1    4    4    0    0 -0.38415755487E-01 -0.76524094824E-01  0.65123879631E-02  0.85874208446E-01  0.51100000000E-03 0. -1.
         11    1    4    4    0    0 -0.16682263303E-01 -0.38862420105E-01 -0.11199553390E-01  0.43752448188E-01  0.51100000000E-03 0.  1.
</event>
<event>
 8    1  0.1183092E+005  0.1043930E+01  0.7957747E-01            NaN
         13   -1    0    0    0    0  0.00000000000E+00  0.00000000000E+00  0.74505805969E-08  0.10566000000E+00  0.10566000000E+00 0.  1.
     999900   -1    0    0    0    0 -0.00000000000E+00 -0.00000000000E+00 -0.74505805969E-08  0.93827000000E+00  0.93827000000E+00 0.  1.
     999902    2    1    2    0    0 -0.10027410840E-01  0.93428760764E-02  0.18574915504E-01  0.10208461141E+01  0.10205850885E+01 0.  0.
     999903    2    3    3    0    0  0.74455742370E-01 -0.19403415209E-01  0.10568135893E+00  0.13205407718E+00  0.18697047395E-01 0.  0.
         14    1    1    2    0    0  0.10027410840E-01 -0.93428760764E-02 -0.18574915504E-01  0.23083885884E-01  0.00000000000E+00 0. -1.
     999901    1    3    3    0    0 -0.84483153210E-01  0.28746291285E-01 -0.87106443422E-01  0.88879203694E+00  0.88000000000E+00 0.  1.
        -11    1    4    4    0    0  0.21785142578E-01 -0.11310249613E-01  0.22719545479E-01  0.33450755615E-01  0.51100000000E-03 0. -1.
         11    1    4    4    0    0  0.52670599792E-01 -0.80931655954E-02  0.82961813447E-01  0.98603321563E-01  0.51100000000E-03 0.  1.
</event>
<event>
 8    1  0.1353701E+005  0.1043930E+01  0.7957747E-01            NaN
         13   -1    0    0    0    0  0.00000000000E+00  0.00000000000E+00  0.74505805969E-08  0.10566000000E+00  0.10566000000E+00 0.  1.
     999900   -1    0    0    0    0 -0.00000000000E+00 -0.00000000000E+00 -0.74505805969E-08  0.93827000000E+00  0.93827000000E+00 0.  1.
     999902    2    1    2    0    0 -0.13625560054E-01 -0.19467338606E-01 -0.59732416178E-02  0.10194287189E+01  0.10191342405E+01 0.  0.
     999903    2    3    3    0    0 -0.61136216472E-01 -0.39198324792E-01 -0.10868436666E+00  0.13196257900E+00  0.18102073659E-01 0.  0.
         14    1    1    2    0    0  0.13625560054E-01  0.19467338606E-01  0.59732416178E-02  0.24501281081E-01  0.00000000000E+00 0. -1.
     999901    1    3    3    0    0  0.47510656418E-01  0.19730986186E-01  0.10271112504E+00  0.88746613992E+00  0.88000000000E+00 0. -1.
        -11    1    4    4    0    0 -0.38939358093E-01 -0.29846036664E-01 -0.58925577758E-01  0.76678186914E-01  0.51100000000E-03 0. -1.
         11    1    4    4    0    0 -0.22196858379E-01 -0.93522881281E-02 -0.49758788899E-01  0.55284392090E-01  0.51100000000E-03 0.  1.
</event>
<event>
 8    1  0.1183092E+005  0.1043930E+01  0.7957747E-01            NaN
         13   -1    0    0    0    0  0.00000000000E+00  0.00000000000E+00  0.74505805969E-08  0.10566000000E+00  0.10566000000E+00 0.  1.
     999900   -1    0    0    0    0 -0.00000000000E+00 -0.00000000000E+00 -0.74505805969E-08  0.93827000000E+00  0.93827000000E+00 0.  1.
     999902    2    1    2    0    0 -0.20145096504E-01  0.15281280476E-02 -0.98112010084E-02  0.10214707090E+01  0.10212237705E+01 0.  0.
     999903    2    3    3    0    0 -0.84517839228E-02 -0.88584631770E-01  0.93546843561E-01  0.13077439236E+00  0.20790866247E-01 0.  0.
         14    1    1    2    0    0  0.20145096504E-01 -0.15281280476E-02  0.98112010084E-02  0.22459291033E-01  0.00000000000E+00 0. -1.
     999901    1    3    3    0    0 -0.11693312582E-01  0.90112759818E-01 -0.10335804457E+00  0.89069631661E+00  0.88000000000E+00 0.  1.
        -11    1    4    4    0    0 -0.11550263017E-01 -0.72836903209E-01  0.85171941584E-01  0.11266385312E+00  0.51100000000E-03 0. -1.
         11    1    4    4    0    0  0.30984790941E-02 -0.15747728561E-01  0.83749019769E-02  0.18110539243E-01  0.51100000000E-03 0.  1.
</event>
<event>
 8    1  0.1183092E+005  0.1043930E+01  0.7957747E-01            NaN
         13   -1    0    0    0    0  0.00000000000E+00  0.00000000000E+00  0.74505805969E-08  0.10566000000E+00  0.10566000000E+00 0. -1.
     999900   -1    0    0    0    0 -0.00000000000E+00 -0.00000000000E+00 -0.74505805969E-08  0.93827000000E+00  0.93827000000E+00 0.  1.
     999902    2    1    2    0    0  0.21993075993E-01 -0.62213137817E-02 -0.74408194720E-02  0.10198932379E+01  0.10196099503E+01 0.  0.
     999903    2    3    3    0    0 -0.75011197359E-01 -0.92801681037E-01  0.41646635417E-01  0.12898607818E+00  0.25770805019E-01 0.  0.
         14    1    1    2    0    0 -0.21993075993E-01  0.62213137817E-02  0.74408194720E-02  0.24036762078E-01  0.00000000000E+00 0. -1.
     999901    1    3    3    0    0  0.97004273352E-01  0.86580367256E-01 -0.49087454890E-01  0.89090715974E+00  0.88000000000E+00 0.  1.
        -11    1    4    4    0    0 -0.49060914873E-01 -0.59761456804E-01  0.39717092543E-01  0.86925908960E-01  0.51100000000E-03 0. -1.
         11    1    4    4    0    0 -0.25950282486E-01 -0.33040224233E-01  0.19295428746E-02  0.42060169224E-01  0.51100000000E-03 0.  1.
</event>
<event>
 8    1  0.1183092E+005  0.1043930E+01  0.7957747E-01            NaN
         13   -1    0    0    0    0  0.00000000000E+00  0.00000000000E+00  0.74505805969E-08  0.10566000000E+00  0.10566000000E+00 0. -1.
     999900   -1    0    0    0    0 -0.00000000000E+00 -0.00000000000E+00 -0.74505805969E-08  0.93827000000E+00  0.93827000000E+00 0.  1.
     999902    2    1    2    0    0  0.12941174320E-01 -0.14403510570E-01  0.12388598266E-01  0.10209427758E+01  0.10206839565E+01 0.  0.
     999903    2    3    3    0    0 -0.22310697338E-01 -0.47475524671E-01 -0.11743618975E+00  0.13010556948E+00  0.19608872672E-01 0.  0.
         14    1    1    2    0    0 -0.12941174320E-01  0.14403510570E-01 -0.12388598266E-01  0.22987224202E-01  0.00000000000E+00 0.  1.
     999901    1    3    3    0    0  0.35251871658E-01  0.33072014101E-01  0.12982478802E+00  0.89083720632E+00  0.88000000000E+00 0. -1.
        -11    1    4    4    0    0 -0.33235393158E-02 -0.17091875579E-01 -0.21344450573E-01  0.27550405000E-01  0.51100000000E-03 0.  1.
         11    1    4    4    0    0 -0.18987158022E-01 -0.30383649093E-01 -0.96091739181E-01  0.10255516448E+00  0.51100000000E-03 0. -1.
</event>
<event>
 8    1  0.1183092E+005  0.1043930E+01  0.7957747E-01            NaN
         13   -1    0    0    0    0  0.00000000000E+00  0.00000000000E+00  0.74505805969E-08  0.10566000000E+00  0.10566000000E+00 0. -1.
     999900   -1    0    0    0    0 -0.00000000000E+00 -0.00000000000E+00 -0.74505805969E-08  0.93827000000E+00  0.93827000000E+00 0. -1.
     999902    2    1    2    0    0 -0.40394744762E-02 -0.19693525426E-01 -0.11167899605E-01  0.10209327332E+01  0.10206736851E+01 0.  0.
     999903    2    3    3    0    0  0.10827291548E+00  0.28782658563E-01 -0.64654691403E-01  0.13086259539E+00  0.19832400085E-01 0.  0.
         14    1    1    2    0    0  0.40394744762E-02  0.19693525426E-01  0.11167899605E-01  0.22997266780E-01  0.00000000000E+00 0. -1.
     999901    1    3    3    0    0 -0.11231238995E+00 -0.48476183989E-01  0.53486791798E-01  0.89007013783E+00  0.88000000000E+00 0.  1.
        -11    1    4    4    0    0  0.49130505126E-01  0.20897852036E-01 -0.37865952270E-01  0.65456995164E-01  0.51100000000E-03 0. -1.
         11    1    4    4    0    0  0.59142410352E-01  0.78848065269E-02 -0.26788739133E-01  0.65405600231E-01  0.51100000000E-03 0.  1.
</event>
<event>
 8    1  0.1183092E+005  0.1043930E+01  0.7957747E-01            NaN
         13   -1    0    0    0    0  0.00000000000E+00  0.00000000000E+00  0.74505805969E-08  0.10566000000E+00  0.10566000000E+00 0.  1.
     999900   -1    0    0    0    0 -0.00000000000E+00 -0.00000000000E+00 -0.74505805969E-08  0.93827000000E+00  0.93827000000E+00 0.  1.
     999902    2    1    2    0    0 -0.53251122749E-03  0.46060715290E-02  0.22596698126E-01  0.10208624854E+01  0.10206018342E+01 0.  0.
     999903    2    3    3    0    0  0.49050011422E-01  0.10669999526E-01 -0.11682078361E+00  0.12848788246E+00  0.18501025555E-01 0.  0.
         14    1    1    2    0    0  0.53251122749E-03 -0.46060715290E-02 -0.22596698126E-01  0.23067514590E-01  0.00000000000E+00 0. -1.
     999901    1    3    3    0    0 -0.49582522650E-01 -0.60639279966E-02  0.13941748173E+00  0.89237460295E+00  0.88000000000E+00 0. -1.
        -11    1    4    4    0    0  0.10788737338E-01  0.65643866151E-02 -0.48016842715E-01  0.49652455431E-01  0.51100000000E-03 0. -1.
         11    1    4    4    0    0  0.38261274084E-01  0.41056129105E-02 -0.68803940891E-01  0.78835427030E-01  0.51100000000E-03 0.  1.
</event>
<event>
 8    1  0.1183092E+005  0.1043930E+01  0.7957747E-01            NaN
         13   -1    0    0    0    0  0.00000000000E+00  0.00000000000E+00  0.74505805969E-08  0.10566000000E+00  0.10566000000E+00 0.  1.
     999900   -1    0    0    0    0 -0.00000000000E+00 -0.00000000000E+00 -0.74505805969E-08  0.93827000000E+00  0.93827000000E+00 0.  1.
     999902    2    1    2    0    0  0.16017721640E-01 -0.16448930938E-02 -0.17635632797E-01  0.10200492834E+01  0.10197697054E+01 0.  0.
     999903    2    3    3    0    0  0.10115309614E+00  0.63360311039E-01 -0.54611157251E-01  0.13278331543E+00  0.20063710726E-01 0.  0.
         14    1    1    2    0    0 -0.16017721640E-01  0.16448930938E-02  0.17635632797E-01  0.23880716572E-01  0.00000000000E+00 0.  1.
     999901    1    3    3    0    0 -0.85135374495E-01 -0.65005204133E-01  0.36975524454E-01  0.88726596800E+00  0.88000000000E+00 0. -1.
        -11    1    4    4    0    0  0.86277529783E-01  0.52325485597E-01 -0.37765625496E-01  0.10774169192E+00  0.51100000000E-03 0. -1.
         11    1    4    4    0    0  0.14875566352E-01  0.11034825443E-01 -0.16845531755E-01  0.25041623509E-01  0.51100000000E-03 0.  1.
</event>
<event>
 8    1  0.1183092E+005  0.1043930E+01  0.7957747E-01            NaN
         13   -1    0    0    0    0  0.00000000000E+00  0.00000000000E+00  0.74505805969E-08  0.10566000000E+00  0.10566000000E+00 0. -1.
     999900   -1    0    0    0    0 -0.00000000000E+00 -0.00000000000E+00 -0.74505805969E-08  0.93827000000E+00  0.93827000000E+00 0.  1.
     999902    2    1    2    0    0  0.13671735485E-01  0.17874412996E-01 -0.17389359102E-02  0.10213593356E+01  0.10211099146E+01 0.  0.
     999903    2    3    3    0    0  0.10891228447E+00 -0.45819584404E-01  0.55791313666E-01  0.13206893477E+00  0.19188872517E-01 0.  0.
         14    1    1    2    0    0 -0.13671735485E-01 -0.17874412996E-01  0.17389359102E-02  0.22570664351E-01  0.00000000000E+00 0. -1.
     999901    1    3    3    0    0 -0.95240548983E-01  0.63693997400E-01 -0.57530249576E-01  0.88929040088E+00  0.88000000000E+00 0.  1.
        -11    1    4    4    0    0  0.66135913397E-01 -0.22535290087E-01  0.41685645654E-01  0.81361861549E-01  0.51100000000E-03 0. -1.
         11    1    4    4    0    0  0.42776371071E-01 -0.23284294317E-01  0.14105668012E-01  0.50707073224E-01  0.51100000000E-03 0.  1.
</event>
<event>
 8    1  0.1183092E+005  0.1043930E+01  0.7957747E-01            NaN
         13   -1    0    0    0    0  0.00000000000E+00  0.00000000000E+00  0.74505805969E-08  0.10566000000E+00  0.10566000000E+00 0.  1.
     999900   -1    0    0    0    0 -0.00000000000E+00 -0.00000000000E+00 -0.74505805969E-08  0.93827000000E+00  0.93827000000E+00 0. -1.
     999902    2    1    2    0    0 -0.10961573913E-01  0.24845224010E-01  0.55471609590E-02  0.10162133578E+01  0.10158353097E+01 0.  0.
     999903    2    3    3    0    0 -0.90654869127E-02  0.74396125654E-01  0.10347360352E+00  0.12939405540E+00  0.20471159745E-01 0.  0.
         14    1    1    2    0    0  0.10961573913E-01 -0.24845224010E-01 -0.55471609590E-02  0.27716642175E-01  0.00000000000E+00 0. -1.
     999901    1    3    3    0    0 -0.18960870004E-02 -0.49550901644E-01 -0.97926442565E-01  0.88681930242E+00  0.88000000000E+00 0.  1.
        -11    1    4    4    0    0  0.53900820699E-02  0.40191337636E-01  0.54097391041E-01  0.67610542404E-01  0.51100000000E-03 0.  1.
         11    1    4    4    0    0 -0.14455568983E-01  0.34204788018E-01  0.49376212483E-01  0.61783512996E-01  0.51100000000E-03 0. -1.
</event>
<event>
 8    1  0.1183092E+005  0.1043930E+01  0.7957747E-01            NaN
         13   -1    0    0    0    0  0.00000000000E+00  0.00000000000E+00  0.74505805969E-08  0.10566000000E+00  0.10566000000E+00 0.  1.
     999900   -1    0    0    0    0 -0.00000000000E+00 -0.00000000000E+00 -0.74505805969E-08  0.93827000000E+00  0.93827000000E+00 0. -1.
     999902    2    1    2    0    0 -0.19325103517E-01 -0.32050265565E-02 -0.12268280196E-01  0.10208163131E+01  0.10205546054E+01 0.  0.
     999903    2    3    3    0    0 -0.11216469525E+00  0.33361103825E-01  0.58485980772E-01  0.13235560094E+00  0.20087634111E-01 0.  0.
         14    1    1    2    0    0  0.19325103517E-01  0.32050265565E-02  0.12268280196E-01  0.23113686857E-01  0.00000000000E+00 0. -1.
     999901    1    3    3    0    0  0.92839591732E-01 -0.36566130382E-01 -0.70754260968E-01  0.88846071220E+00  0.88000000000E+00 0. -1.
        -11    1    4    4    0    0 -0.15212922232E-01  0.68915435181E-02  0.16353358587E-01  0.23379902330E-01  0.51100000000E-03 0. -1.
         11    1    4    4    0    0 -0.96951773017E-01  0.26469560307E-01  0.42132622185E-01  0.10897569861E+00  0.51100000000E-03 0.  1.
</event>
<event>
 8    1  0.1183092E+005  0.1043930E+01  0.7957747E-01            NaN
         13   -1    0    0    0    0  0.00000000000E+00  0.00000000000E+00  0.74505805969E-08  0.10566000000E+00  0.10566000000E+00 0. -1.
     999900   -1    0    0    0    0 -0.00000000000E+00 -0.00000000000E+00 -0.74505805969E-08  0.93827000000E+00  0.93827000000E+00 0. -1.
     999902    2    1    2    0    0 -0.15988883878E-01 -0.15030909863E-01  0.11187041319E-01  0.10192982613E+01  0.10190006000E+01 0.  0.
     999903    2    3    3    0    0 -0.63958950867E-01 -0.76317480897E-01  0.85409616774E-01  0.13275093495E+00  0.20320009979E-01 0.  0.
         14    1    1    2    0    0  0.15988883878E-01  0.15030909863E-01 -0.11187041319E-01  0.24631738722E-01  0.00000000000E+00 0. -1.
     999901    1    3    3    0    0  0.47970066989E-01  0.61286571034E-01 -0.74222575455E-01  0.88654732633E+00  0.88000000000E+00 0. -1.
        -11    1    4    4    0    0 -0.23062706159E-01 -0.38732986652E-01  0.47584282555E-01  0.65548895778E-01  0.51100000000E-03 0.  1.
         11    1    4    4    0    0 -0.40896244708E-01 -0.37584494245E-01  0.37825334219E-01  0.67202039170E-01  0.51100000000E-03 0. -1.
</event>
<event>
 8    1  0.1183092E+005  0.1043930E+01  0.7957747E-01            NaN
         13   -1    0    0    0    0  0.00000000000E+00  0.00000000000E+00  0.74505805969E-08  0.10566000000E+00  0.10566000000E+00 0. -1.
     999900   -1    0    0    0    0 -0.00000000000E+00 -0.00000000000E+00 -0.74505805969E-08  0.93827000000E+00  0.93827000000E+00 0.  1.
     999902    2    1    2    0    0 -0.38211209185E-02 -0.20678339222E-01 -0.45013688617E-02  0.10224251866E+01  0.10221990047E+01 0.  0.
     999903    2    3    3    0    0 -0.20895060241E-01 -0.13191022874E+00 -0.69507968314E-02  0.13525550026E+00  0.20219416083E-01 0.  0.
         14    1    1    2    0    0  0.38211209185E-02  0.20678339222E-01  0.45013688617E-02  0.21504813407E-01  0.00000000000E+00 0. -1.
     999901    1    3    3    0    0  0.17073939322E-01  0.11123188951E+00  0.24494279697E-02  0.88716968633E+00  0.88000000000E+00 0. -1.
        -11    1    4    4    0    0 -0.50979093398E-02 -0.14002184861E-01 -0.65669638946E-02  0.16292206613E-01  0.51100000000E-03 0. -1.
         11    1    4    4    0    0 -0.15797150901E-01 -0.11790804387E+00 -0.38383293685E-03  0.11896329365E+00  0.51100000000E-03 0.  1.
</event>
<event>
 8    1  0.1183092E+005  0.1043930E+01  0.7957747E-01            NaN
         13   -1    0    0    0    0  0.00000000000E+00  0.00000000000E+00  0.74505805969E-08  0.10566000000E+00  0.10566000000E+00 0.  1.
     999900   -1    0    0    0    0 -0.00000000000E+00 -0.00000000000E+00 -0.74505805969E-08  0.93827000000E+00  0.93827000000E+00 0.  1.
     999902    2    1    2    0    0 -0.14363442363E-02 -0.89934384048E-02 -0.20718402755E-01  0.10212982252E+01  0.10210474365E+01 0.  0.
     999903    2    3    3    0    0 -0.10864339266E+00  0.34889929267E-01  0.59682632923E-01  0.13007242453E+00  0.18333712616E-01 0.  0.
         14    1    1    2    0    0  0.14363442363E-02  0.89934384048E-02  0.20718402755E-01  0.22631774827E-01  0.00000000000E+00 0.  1.
     999901    1    3    3    0    0  0.10720704842E+00 -0.43883367672E-01 -0.80401035678E-01  0.89122580064E+00  0.88000000000E+00 0.  1.
        -11    1    4    4    0    0 -0.88899522011E-01  0.23520341715E-01  0.41368618620E-01  0.10083627926E+00  0.51100000000E-03 0.  1.
         11    1    4    4    0    0 -0.19743870648E-01  0.11369587552E-01  0.18314014303E-01  0.29236145268E-01  0.51100000000E-03 0. -1.
</event>
<event>
 8    1  0.1183092E+005  0.1043930E+01  0.7957747E-01            NaN
         13   -1    0    0    0    0  0.00000000000E+00  0.00000000000E+00  0.74505805969E-08  0.10566000000E+00  0.10566000000E+00 0. -1.
     999900   -1    0    0    0    0 -0.00000000000E+00 -0.00000000000E+00 -0.74505805969E-08  0.93827000000E+00  0.93827000000E+00 0. -1.
     999902    2    1    2    0    0 -0.15494064546E-01 -0.14555312502E-01  0.84375584299E-02  0.10210582806E+01  0.10208020850E+01 0.  0.
     999903    2    3    3    0    0 -0.10011528457E+00 -0.25951012321E-01 -0.80363606066E-01  0.13247724335E+00  0.19884304920E-01 0.  0.
         14    1    1    2    0    0  0.15494064546E-01  0.14555312502E-01 -0.84375584299E-02  0.22871719447E-01  0.00000000000E+00 0.  1.
     999901    1    3    3    0    0  0.84621220024E-01  0.11395699818E-01  0.88801164496E-01  0.88858103720E+00  0.88000000000E+00 0.  1.
        -11    1    4    4    0    0 -0.73962677908E-01 -0.11412150507E-01 -0.51101890758E-01  0.90622178646E-01  0.51100000000E-03 0.  1.
         11    1    4    4    0    0 -0.26152606662E-01 -0.14538861814E-01 -0.29261715308E-01  0.41855064709E-01  0.51100000000E-03 0. -1.
</event>
<event>
 8    1  0.1183092E+005  0.1043930E+01  0.7957747E-01            NaN
         13   -1    0    0    0    0  0.00000000000E+00  0.00000000000E+00  0.74505805969E-08  0.10566000000E+00  0.10566000000E+00 0.  1.
     999900   -1    0    0    0    0 -0.00000000000E+00 -0.00000000000E+00 -0.74505805969E-08  0.93827000000E+00  0.93827000000E+00 0.  1.
     999902    2    1    2    0    0  0.18961536722E-01 -0.10578830157E-01 -0.84212307259E-02  0.10206411905E+01  0.10203754559E+01 0.  0.
     999903    2    3    3    0    0 -0.11092824241E+00  0.38574318839E-01 -0.49226346315E-01  0.12881584645E+00  0.19422566469E-01 0.  0.
         14    1    1    2    0    0 -0.18961536722E-01  0.10578830157E-01  0.84212307259E-02  0.23288809529E-01  0.00000000000E+00 0.  1.
     999901    1    3    3    0    0  0.12988977913E+00 -0.49153148996E-01  0.40805115589E-01  0.89182534402E+00  0.88000000000E+00 0. -1.
        -11    1    4    4    0    0 -0.87363064452E-02 -0.17216751513E-02 -0.60860368105E-02  0.10797600691E-01  0.51100000000E-03 0. -1.
         11    1    4    4    0    0 -0.10219193596E+00  0.40295993990E-01 -0.43140309504E-01  0.11801824576E+00  0.51100000000E-03 0.  1.
</event>
<event>
 8    1  0.1183092E+005  0.1043930E+01  0.7957747E-01            NaN
         13   -1    0    0    0    0  0.00000000000E+00  0.00000000000E+00  0.74505805969E-08  0.10566000000E+00  0.10566000000E+00 0. -1.
     999900   -1    0    0    0    0 -0.00000000000E+00 -0.00000000000E+00 -0.74505805969E-08  0.93827000000E+00  0.93827000000E+00 0.  1.
     999902    2    1    2    0    0  0.18378484585E-02  0.23049162681E-01  0.34309997511E-02  0.10205545140E+01  0.10202867747E+01 0.  0.
     999903    2    3    3    0    0  0.43764786231E-01 -0.61699543276E-01 -0.10304264640E+00  0.12910802170E+00  0.18135714409E-01 0.  0.
         14    1    1    2    0    0 -0.18378484585E-02 -0.23049162681E-01 -0.34309997511E-02  0.23375486017E-01  0.00000000000E+00 0.  1.
     999901    1    3    3    0    0 -0.41926937773E-01  0.84748705957E-01  0.10647364615E+00  0.89144649228E+00  0.88000000000E+00 0. -1.
        -11    1    4    4    0    0  0.15076343493E-01 -0.23457332305E-01 -0.53050036203E-01  0.59934214219E-01  0.51100000000E-03 0. -1.
         11    1    4    4    0    0  0.28688442738E-01 -0.38242210971E-01 -0.49992610196E-01  0.69173807485E-01  0.51100000000E-03 0.  1.
</event>
<event>
 8    1  0.1183092E+005  0.1043930E+01  0.7957747E-01            NaN
         13   -1    0    0    0    0  0.00000000000E+00  0.00000000000E+00  0.74505805969E-08  0.10566000000E+00  0.10566000000E+00 0. -1.
     999900   -1    0    0    0    0 -0.00000000000E+00 -0.00000000000E+00 -0.74505805969E-08  0.93827000000E+00  0.93827000000E+00 0.  1.
     999902    2    1    2    0    0  0.67600131807E-02 -0.22010510351E-01 -0.50528127539E-02  0.10203568954E+01  0.10200845566E+01 0.  0.
     999903    2    3    3    0    0 -0.67964171579E-01 -0.94596205485E-01 -0.60417511420E-01  0.13248436131E+00  0.18282767674E-01 0.  0.
         14    1    1    2    0    0 -0.67600131807E-02  0.22010510351E-01  0.50528127539E-02  0.23573104608E-01  0.00000000000E+00 0. -1.
     999901    1    3    3    0    0  0.74724184760E-01  0.72585695134E-01  0.55364698666E-01  0.88787253409E+00  0.88000000000E+00 0. -1.
        -11    1    4    4    0    0 -0.53232983354E-01 -0.64596087126E-01 -0.36150022577E-01  0.91178343054E-01  0.51100000000E-03 0.  1.
         11    1    4    4    0    0 -0.14731188225E-01 -0.30000118359E-01 -0.24267488843E-01  0.41306018252E-01  0.51100000000E-03 0. -1.
</event>
<event>
 8    1  0.1183092E+005  0.1043930E+01  0.7957747E-01            NaN
         13   -1    0    0    0    0  0.00000000000E+00  0.00000000000E+00  0.74505805969E-08  0.10566000000E+00  0.10566000000E+00 0. -1.
     999900   -1    0    0    0    0 -0.00000000000E+00 -0.00000000000E+00 -0.74505805969E-08  0.93827000000E+00  0.93827000000E+00 0. -1.
     999902    2    1    2    0    0  0.87871314320E-03 -0.16522746485E-02  0.24209507539E-01  0.10196482702E+01  0.10193591087E+01 0.  0.
     999903    2    3    3    0    0 -0.60209545305E-01  0.10901442470E+00 -0.27480126230E-01  0.12911432253E+00  0.20149858683E-01 0.  0.
         14    1    1    2    0    0 -0.87871314320E-03  0.16522746485E-02 -0.24209507539E-01  0.24281729831E-01  0.00000000000E+00 0.  1.
     999901    1    3    3    0    0  0.61088258448E-01 -0.11066669935E+00  0.51689633770E-01  0.89053394764E+00  0.88000000000E+00 0.  1.
        -11    1    4    4    0    0 -0.16180599710E-01  0.17419527924E-01  0.20717525797E-03  0.23781417171E-01  0.51100000000E-03 0.  1.
         11    1    4    4    0    0 -0.44028945594E-01  0.91594896777E-01 -0.27687301488E-01  0.10533290535E+00  0.51100000000E-03 0. -1.
</event>
<event>
 8    1  0.1183092E+005  0.1043930E+01  0.7957747E-01            NaN
         13   -1    0    0    0    0  0.00000000000E+00  0.00000000000E+00  0.74505805969E-08  0.10566000000E+00  0.10566000000E+00 0. -1.
     999900   -1    0    0    0    0 -0.00000000000E+00 -0.00000000000E+00 -0.74505805969E-08  0.93827000000E+00  0.93827000000E+00 0.  1.
     999902    2    1    2    0    0  0.15791015996E-01  0.76356789917E-02  0.15589328800E-01  0.10204632799E+01  0.10201934222E+01 0.  0.
     999903    2    3    3    0    0  0.10777746865E-01 -0.11518912294E+00 -0.54129766252E-01  0.12918789201E+00  0.19359389919E-01 0.  0.
         14    1    1    2    0    0 -0.15791015996E-01 -0.76356789917E-02 -0.15589328800E-01  0.23466720101E-01  0.00000000000E+00 0. -1.
     999901    1    3    3    0    0  0.50132691315E-02  0.12282480193E+00  0.69719095051E-01  0.89127538789E+00  0.88000000000E+00 0. -1.
        -11    1    4    4    0    0  0.11658133676E-01 -0.31292709213E-01 -0.15239495771E-01  0.36710340274E-01  0.51100000000E-03 0. -1.
         11    1    4    4    0    0 -0.88038681090E-03 -0.83896413724E-01 -0.38890270481E-01  0.92477551739E-01  0.51100000000E-03 0.  1.
</event>
<event>
 8    1  0.1183092E+005  0.1043930E+01  0.7957747E-01            NaN
         13   -1    0    0    0    0  0.00000000000E+00  0.00000000000E+00  0.74505805969E-08  0.10566000000E+00  0.10566000000E+00 0.  1.
     999900   -1    0    0    0    0 -0.00000000000E+00 -0.00000000000E+00 -0.74505805969E-08  0.93827000000E+00  0.93827000000E+00 0. -1.
     999902    2    1    2    0    0  0.21755189669E-01 -0.47166027754E-02 -0.10654530726E-01  0.10192509878E+01  0.10189521689E+01 0.  0.
     999903    2    3    3    0    0 -0.77487393776E-01  0.31944437683E-01 -0.95865208906E-01  0.12882750318E+00  0.19535710960E-01 0.  0.
         14    1    1    2    0    0 -0.21755189669E-01  0.47166027754E-02  0.10654530726E-01  0.24679012222E-01  0.00000000000E+00 0.  1.
     999901    1    3    3    0    0  0.99242583445E-01 -0.36661040459E-01  0.85210678180E-01  0.89042348460E+00  0.88000000000E+00 0.  1.
        -11    1    4    4    0    0 -0.12255500751E-01 -0.54320981001E-03 -0.21157236211E-01  0.24461850720E-01  0.51100000000E-03 0.  1.
         11    1    4    4    0    0 -0.65231893024E-01  0.32487647493E-01 -0.74707972695E-01  0.10436565245E+00  0.51100000000E-03 0. -1.
</event>
<event>
 8    1  0.1183092E+005  0.1043930E+01  0.7957747E-01            NaN
         13   -1    0    0    0    0  0.00000000000E+00  0.00000000000E+00  0.74505805969E-08  0.10566000000E+00  0.10566000000E+00 0. -1.
     999900   -1    0    0    0    0 -0.00000000000E+00 -0.00000000000E+00 -0.74505805969E-08  0.93827000000E+00  0.93827000000E+00 0. -1.
     999902    2    1    2    0    0 -0.15628947693E-01 -0.55313515725E-03 -0.15788365007E-01  0.10217074341E+01  0.10214657305E+01 0.  0.
     999903    2    3    3    0    0  0.41786992822E-01  0.10006033136E-01  0.12032527489E+00  0.12933138714E+00  0.20053988494E-01 0.  0.
         14    1    1    2    0    0  0.15628947693E-01  0.55313515725E-03  0.15788365007E-01  0.22222565875E-01  0.00000000000E+00 0. -1.
     999901    1    3    3    0    0 -0.57415940515E-01 -0.10559168294E-01 -0.13611363990E+00  0.89237604698E+00  0.88000000000E+00 0. -1.
        -11    1    4    4    0    0  0.10273208342E-01 -0.53182662257E-02  0.41115773756E-01  0.42715228406E-01  0.51100000000E-03 0.  1.
         11    1    4    4    0    0  0.31513784480E-01  0.15324299362E-01  0.79209501136E-01  0.86616158737E-01  0.51100000000E-03 0. -1.
</event>
<event>
 8    1  0.1183092E+005  0.1043930E+01  0.7957747E-01            NaN
         13   -1    0    0    0    0  0.00000000000E+00  0.00000000000E+00  0.74505805969E-08  0.10566000000E+00  0.10566000000E+00 0.  1.
     999900   -1    0    0    0    0 -0.00000000000E+00 -0.00000000000E+00 -0.74505805969E-08  0.93827000000E+00  0.93827000000E+00 0. -1.
     999902    2    1    2    0    0  0.14138038198E-01  0.17700897834E-02  0.18514749218E-01  0.10205673529E+01  0.10202999110E+01 0.  0.
     999903    2    3    3    0    0  0.46262567523E-01 -0.10274954337E+00 -0.61947605543E-01  0.13015703756E+00  0.20140873273E-01 0.  0.
         14    1    1    2    0    0 -0.14138038198E-01 -0.17700897834E-02 -0.18514749218E-01  0.23362647122E-01  0.00000000000E+00 0. -1.
     999901    1    3    3    0    0 -0.32124529324E-01  0.10451963315E+00  0.80462354760E-01  0.89041031532E+00  0.88000000000E+00 0.  1.
        -11    1    4    4    0    0  0.29475765374E-01 -0.83720224688E-01 -0.43959567358E-01  0.99048480299E-01  0.51100000000E-03 0. -1.
         11    1    4    4    0    0  0.16786802148E-01 -0.19029318683E-01 -0.17988038185E-01  0.31108557257E-01  0.51100000000E-03 0.  1.
</event>
<event>
 8    1  0.1183092E+005  0.1043930E+01  0.7957747E-01            NaN
         13   -1    0    0    0    0  0.00000000000E+00  0.00000000000E+00  0.74505805969E-08  0.10566000000E+00  0.10566000000E+00 0. -1.
     999900   -1    0    0    0    0 -0.00000000000E+00 -0.00000000000E+00 -0.74505805969E-08  0.93827000000E+00  0.93827000000E+00 0. -1.
     999902    2    1    2    0    0 -0.75020381150E-02  0.19139818371E-01  0.13560195100E-01  0.10193029394E+01  0.10190053926E+01 0.  0.
     999903    2    3    3    0    0  0.43760962730E-02  0.10970364794E+00 -0.68237479193E-01  0.13080209143E+00  0.19969801384E-01 0.  0.
         14    1    1    2    0    0  0.75020381150E-02 -0.19139818371E-01 -0.13560195100E-01  0.24627060610E-01  0.00000000000E+00 0.  1.
     999901    1    3    3    0    0 -0.11878134388E-01 -0.90563829565E-01  0.81797674293E-01  0.88850084796E+00  0.88000000000E+00 0. -1.
        -11    1    4    4    0    0  0.11390547117E-01  0.65744711692E-01 -0.35828581097E-01  0.75736781181E-01  0.51100000000E-03 0. -1.
         11    1    4    4    0    0 -0.70144508444E-02  0.43958936244E-01 -0.32408898095E-01  0.55065310251E-01  0.51100000000E-03 0.  1.
</event>
<event>
 8    1  0.1183092E+005  0.1043930E+01  0.7957747E-01            NaN
         13   -1    0    0    0    0  0.00000000000E+00  0.00000000000E+00  0.74505805969E-08  0.10566000000E+00  0.10566000000E+00 0.  1.
     999900   -1    0    0    0    0 -0.00000000000E+00 -0.00000000000E+00 -0.74505805969E-08  0.93827000000E+00  0.93827000000E+00 0.  1.
     999902    2    1    2    0    0 -0.15505058012E-01 -0.15451730370E-01  0.62959190234E-02  0.10211527879E+01  0.10208987290E+01 0.  0.
     999903    2    3    3    0    0 -0.17559049453E-01  0.12149013683E+00 -0.36262410788E-01  0.12954272440E+00  0.19954484288E-01 0.  0.
         14    1    1    2    0    0  0.15505058012E-01  0.15451730370E-01 -0.62959190234E-02  0.22777212115E-01  0.00000000000E+00 0.  1.
     999901    1    3    3    0    0  0.20539914403E-02 -0.13694186720E+00  0.42558329812E-01  0.89161006349E+00  0.88000000000E+00 0.  1.
        -11    1    4    4    0    0 -0.48712596003E-02  0.91136767878E-01 -0.29813342000E-01  0.96014249523E-01  0.51100000000E-03 0.  1.
         11    1    4    4    0    0 -0.12687789852E-01  0.30353368954E-01 -0.64490687885E-02  0.33528474875E-01  0.51100000000E-03 0. -1.
</event>
<event>
 8    1  0.1183092E+005  0.1043930E+01  0.7957747E-01            NaN
         13   -1    0    0    0    0  0.00000000000E+00  0.00000000000E+00  0.74505805969E-08  0.10566000000E+00  0.10566000000E+00 0. -1.
     999900   -1    0    0    0    0 -0.00000000000E+00 -0.00000000000E+00 -0.74505805969E-08  0.93827000000E+00  0.93827000000E+00 0. -1.
     999902    2    1    2    0    0  0.18509370381E-01 -0.82005571277E-02 -0.11534907112E-01  0.10206297852E+01  0.10203637873E+01 0.  0.
     999903    2    3    3    0    0  0.12112546129E+00  0.29471110506E-01 -0.41879204654E-01  0.13334742140E+00  0.22084910835E-01 0.  0.
         14    1    1    2    0    0 -0.18509370381E-01  0.82005571277E-02  0.11534907112E-01  0.23300214831E-01  0.00000000000E+00 0. -1.
     999901    1    3    3    0    0 -0.10261609090E+00 -0.37671667634E-01  0.30344297542E-01  0.88728236376E+00  0.88000000000E+00 0. -1.
        -11    1    4    4    0    0  0.17852113595E-01  0.12829512631E-01 -0.76615167336E-02  0.23286354670E-01  0.51100000000E-03 0.  1.
         11    1    4    4    0    0  0.10327334769E+00  0.16641597875E-01 -0.34217687920E-01  0.11006106673E+00  0.51100000000E-03 0. -1.
</event>
<event>
 8    1  0.1183092E+005  0.1043930E+01  0.7957747E-01            NaN
         13   -1    0    0    0    0  0.00000000000E+00  0.00000000000E+00  0.74505805969E-08  0.10566000000E+00  0.10566000000E+00 0. -1.
     999900   -1    0    0    0    0 -0.00000000000E+00 -0.00000000000E+00 -0.74505805969E-08  0.93827000000E+00  0.93827000000E+00 0. -1.
     999902    2    1    2    0    0  0.31732234089E-02 -0.12998369120E-01  0.20247850870E-01  0.10196606281E+01  0.10193717644E+01 0.  0.
     999903    2    3    3    0    0 -0.65107620892E-01  0.63599996830E-01 -0.86783766492E-01  0.12725637528E+00  0.19462811429E-01 0.  0.
         14    1    1    2    0    0 -0.31732234089E-02  0.12998369120E-01 -0.20247850870E-01  0.24269371880E-01  0.00000000000E+00 0.  1.
     999901    1    3    3    0    0  0.68280844301E-01 -0.76598365950E-01  0.10703161736E+00  0.89240425284E+00  0.88000000000E+00 0.  1.
        -11    1    4    4    0    0 -0.50335341515E-01  0.57462756341E-01 -0.65513971717E-01  0.10063774929E+00  0.51100000000E-03 0. -1.
         11    1    4    4    0    0 -0.14772279378E-01  0.61372404891E-02 -0.21269794775E-01  0.26618625990E-01  0.51100000000E-03 0.  1.
</event>
<event>
 8    1  0.1183092E+005  0.1043930E+01  0.7957747E-01            NaN
         13   -1    0    0    0    0  0.00000000000E+00  0.00000000000E+00  0.74505805969E-08  0.10566000000E+00  0.10566000000E+00 0.  1.
     999900   -1    0    0    0    0 -0.00000000000E+00 -0.00000000000E+00 -0.74505805969E-08  0.93827000000E+00  0.93827000000E+00 0.  1.
     999902    2    1    2    0    0  0.13523404009E-01 -0.33702521152E-02 -0.18814061879E-01  0.10205161157E+01  0.10202474858E+01 0.  0.
     999903    2    3    3    0    0 -0.11394968794E+00  0.66912033697E-02 -0.59994578288E-01  0.13032149818E+00  0.18842501958E-01 0.  0.
         14    1    1    2    0    0 -0.13523404009E-01  0.33702521152E-02  0.18814061879E-01  0.23413884336E-01  0.00000000000E+00 0.  1.
     999901    1    3    3    0    0  0.12747309195E+00 -0.10061455485E-01  0.41180516408E-01  0.89019461748E+00  0.88000000000E+00 0. -1.
        -11    1    4    4    0    0 -0.96856900736E-01 -0.53456490382E-03 -0.53506533764E-01  0.11065602223E+00  0.51100000000E-03 0.  1.
         11    1    4    4    0    0 -0.17092787208E-01  0.72257682735E-02 -0.64880445235E-02  0.19665475952E-01  0.51100000000E-03 0. -1.
</event>
<event>
 8    1  0.1183092E+005  0.1043930E+01  0.7957747E-01            NaN
         13   -1    0    0    0    0  0.00000000000E+00  0.00000000000E+00  0.74505805969E-08  0.10566000000E+00  0.10566000000E+00 0. -1.
     999900   -1    0    0    0    0 -0.00000000000E+00 -0.00000000000E+00 -0.74505805969E-08  0.93827000000E+00  0.93827000000E+00 0. -1.
     999902    2    1    2    0    0 -0.81315119390E-02 -0.13257497948E-01  0.17678473911E-01  0.10203840624E+01  0.10201123583E+01 0.  0.
     999903    2    3    3    0    0 -0.10941997122E-01 -0.12836361991E+00  0.23753662102E-01  0.13286266769E+00  0.22165418625E-01 0.  0.
         14    1    1    2    0    0  0.81315119390E-02  0.13257497948E-01 -0.17678473911E-01  0.23545937614E-01  0.00000000000E+00 0. -1.
     999901    1    3    3    0    0  0.28104851833E-02  0.11510612197E+00 -0.60751881909E-02  0.88752139470E+00  0.88000000000E+00 0.  1.
        -11    1    4    4    0    0 -0.17149106621E-01 -0.78982593784E-01  0.11870827305E-01  0.81691613038E-01  0.51100000000E-03 0. -1.
         11    1    4    4    0    0  0.62071094992E-02 -0.49381026130E-01  0.11882834797E-01  0.51171054648E-01  0.51100000000E-03 0.  1.
</event>
<event>
 8    1  0.1183092E+005  0.1043930E+01  0.7957747E-01            NaN
         13   -1    0    0    0    0  0.00000000000E+00  0.00000000000E+00  0.74505805969E-08  0.10566000000E+00  0.10566000000E+00 0. -1.
     999900   -1    0    0    0    0 -0.00000000000E+00 -0.00000000000E+00 -0.74505805969E-08  0.93827000000E+00  0.93827000000E+00 0.  1.
     999902    2    1    2    0    0 -0.20721968671E-01 -0.89620194655E-02  0.57878318229E-02  0.10206229887E+01  0.10203568338E+01 0.  0.
     999903    2    3    3    0    0  0.99311332645E-02 -0.33141723959E-01  0.12546081347E+00  0.13166523194E+00  0.19957863362E-01 0.  0.
         14    1    1    2    0    0  0.20721968671E-01  0.89620194655E-02 -0.57878318229E-02  0.23307011299E-01  0.00000000000E+00 0.  1.
     999901    1    3    3    0    0 -0.30653101935E-01  0.24179704494E-01 -0.11967298165E+00  0.88895775676E+00  0.88000000000E+00 0.  1.
        -11    1    4    4    0    0  0.38269023705E-02 -0.16524402703E-01  0.94373695163E-01  0.95887207313E-01  0.51100000000E-03 0.  1.
         11    1    4    4    0    0  0.61042308939E-02 -0.16617321256E-01  0.31087118309E-01  0.35778024628E-01  0.51100000000E-03 0. -1.
</event>
<event>
 8    1  0.1183092E+005  0.1043930E+01  0.7957747E-01            NaN
         13   -1    0    0    0    0  0.00000000000E+00  0.00000000000E+00  0.74505805969E-08  0.10566000000E+00  0.10566000000E+00 0. -1.
     999900   -1    0    0    0    0 -0.00000000000E+00 -0.00000000000E+00 -0.74505805969E-08  0.93827000000E+00  0.93827000000E+00 0.  1.
     999902    2    1    2    0    0 -0.15791281499E-01 -0.17757293224E-01  0.19272860305E-02  0.10200888493E+01  0.10198102079E+01 0.  0.
     999903    2    3    3    0    0  0.92065148887E-01  0.53815059825E-01 -0.67450420726E-01  0.12791797024E+00  0.21009415751E-01 0.  0.
         14    1    1    2    0    0  0.15791281499E-01  0.17757293224E-01 -0.19272860305E-02  0.23841150674E-01  0.00000000000E+00 0. -1.
     999901    1    3    3    0    0 -0.10785643039E+00 -0.71572353049E-01  0.69377706757E-01  0.89217087909E+00  0.88000000000E+00 0. -1.
        -11    1    4    4    0    0  0.49383069463E-01  0.20457330843E-01 -0.24589205096E-01  0.58839443089E-01  0.51100000000E-03 0. -1.
         11    1    4    4    0    0  0.42682079425E-01  0.33357728982E-01 -0.42861215630E-01  0.69078527150E-01  0.51100000000E-03 0.  1.
</event>
<event>
 8    1  0.1183092E+005  0.1043930E+01  0.7957747E-01            NaN
         13   -1    0    0    0    0  0.00000000000E+00  0.00000000000E+00  0.74505805969E-08  0.10566000000E+00  0.10566000000E+00 0.  1.
     999900   -1    0    0    0    0 -0.00000000000E+00 -0.00000000000E+00 -0.74505805969E-08  0.93827000000E+00  0.93827000000E+00 0.  1.
     999902    2    1    2    0    0  0.96210010185E-02 -0.49066241769E-02 -0.21163696041E-01  0.10201699358E+01  0.10198932087E+01 0.  0.
     999903    2    3    3    0    0 -0.73661789119E-01  0.96876412656E-01  0.36312069003E-01  0.12854261830E+00  0.19837839056E-01 0.  0.
         14    1    1    2    0    0 -0.96210010185E-02  0.49066241769E-02  0.21163696041E-01  0.23760064215E-01  0.00000000000E+00 0.  1.
     999901    1    3    3    0    0  0.83282790138E-01 -0.10178303683E+00 -0.57475765044E-01  0.89162731749E+00  0.88000000000E+00 0. -1.
        -11    1    4    4    0    0 -0.61238719732E-01  0.81857229763E-01  0.22579934098E-01  0.10469432365E+00  0.51100000000E-03 0.  1.
         11    1    4    4    0    0 -0.12423069387E-01  0.15019182893E-01  0.13732134905E-01  0.23848294652E-01  0.51100000000E-03 0. -1.
</event>
<event>
 8    1  0.1183092E+005  0.1043930E+01  0.7957747E-01            NaN
         13   -1    0    0    0    0  0.00000000000E+00  0.00000000000E+00  0.74505805969E-08  0.10566000000E+00  0.10566000000E+00 0. -1.
     999900   -1    0    0    0    0 -0.00000000000E+00 -0.00000000000E+00 -0.74505805969E-08  0.93827000000E+00  0.93827000000E+00 0.  1.
     999902    2    1    2    0    0  0.38785433653E-02  0.17236028700E-02 -0.25147699133E-01  0.10184266536E+01  0.10181072773E+01 0.  0.
     999903    2    3    3    0    0 -0.22348807452E-01 -0.90231695157E-01  0.83422730621E-01  0.12661322638E+00  0.20744375258E-01 0.  0.
         14    1    1    2    0    0 -0.38785433653E-02 -0.17236028700E-02  0.25147699133E-01  0.25503346392E-01  0.00000000000E+00 0. -1.
     999901    1    3    3    0    0  0.26227350818E-01  0.91955298027E-01 -0.10857042975E+00  0.89181342723E+00  0.88000000000E+00 0.  1.
        -11    1    4    4    0    0 -0.13431656171E-01 -0.21237246481E-01  0.28321366864E-01  0.37865432358E-01  0.51100000000E-03 0.  1.
         11    1    4    4    0    0 -0.89171512817E-02 -0.68994448676E-01  0.55101363757E-01  0.88747794023E-01  0.51100000000E-03 0. -1.
</event>
<event>
 8    1  0.1183092E+005  0.1043930E+01  0.7957747E-01            NaN
         13   -1    0    0    0    0  0.00000000000E+00  0.00000000000E+00  0.74505805969E-08  0.10566000000E+00  0.10566000000E+00 0. -1.
     999900   -1    0    0    0    0 -0.00000000000E+00 -0.00000000000E+00 -0.74505805969E-08  0.93827000000E+00  0.93827000000E+00 0.  1.
     999902    2    1    2    0    0  0.21235728913E-03  0.23061927487E-01  0.42502227613E-02  0.10204787316E+01  0.10202092333E+01 0.  0.
     999903    2    3    3    0    0 -0.80139658624E-01 -0.72089168666E-01  0.68711980866E-01  0.12937520463E+00  0.19934746924E-01 0.  0.
         14    1    1    2    0    0 -0.21235728913E-03 -0.23061927487E-01 -0.42502227613E-02  0.23451268378E-01  0.00000000000E+00 0.  1.
     999901    1    3    3    0    0  0.80352015913E-01  0.95151096153E-01 -0.64461758105E-01  0.89110352699E+00  0.88000000000E+00 0.  1.
        -11    1    4    4    0    0 -0.33771148748E-01 -0.33762646107E-01  0.41817344553E-01  0.63477225730E-01  0.51100000000E-03 0.  1.
         11    1    4    4    0    0 -0.46368509876E-01 -0.38326522558E-01  0.26894636314E-01  0.65897978899E-01  0.51100000000E-03 0. -1.
</event>
<event>
 8    1  0.1183092E+005  0.1043930E+01  0.7957747E-01            NaN
         13   -1    0    0    0    0  0.00000000000E+00  0.00000000000E+00  0.74505805969E-08  0.10566000000E+00  0.10566000000E+00 0. -1.
     999900   -1    0    0    0    0 -0.00000000000E+00 -0.00000000000E+00 -0.74505805969E-08  0.93827000000E+00  0.93827000000E+00 0.  1.
     999902    2    1    2    0    0 -0.17975421756E-01 -0.14301300902E-01 -0.49022186843E-02  0.10204422427E+01  0.10201718953E+01 0.  0.
     999903    2    3    3    0    0  0.98068399553E-01 -0.78334614835E-01 -0.25895421626E-01  0.13026970419E+00  0.23364505039E-01 0.  0.
         14    1    1    2    0    0  0.17975421756E-01  0.14301300902E-01  0.49022186843E-02  0.23487757297E-01  0.00000000000E+00 0.  1.
     999901    1    3    3    0    0 -0.11604382131E+00  0.64033313933E-01  0.20993202942E-01  0.89017253852E+00  0.88000000000E+00 0.  1.
        -11    1    4    4    0    0  0.41287189883E-01 -0.25687509487E-01 -0.26847578995E-04  0.48628613324E-01  0.51100000000E-03 0.  1.
         11    1    4    4    0    0  0.56781209671E-01 -0.52647105348E-01 -0.25868574047E-01  0.81641090864E-01  0.51100000000E-03 0. -1.
</event>
<event>
 8    1  0.1183092E+005  0.1043930E+01  0.7957747E-01            NaN
         13   -1    0    0    0    0  0.00000000000E+00  0.00000000000E+00  0.74505805969E-08  0.10566000000E+00  0.10566000000E+00 0. -1.
     999900   -1    0    0    0    0 -0.00000000000E+00 -0.00000000000E+00 -0.74505805969E-08  0.93827000000E+00  0.93827000000E+00 0. -1.
     999902    2    1    2    0    0 -0.14113352338E-01 -0.18052616373E-01  0.56745905950E-02  0.10203231228E+01  0.10200499940E+01 0.  0.
     999903    2    3    3    0    0 -0.90810135108E-02 -0.13075764049E+00  0.10983151081E-01  0.13310503930E+00  0.20403345948E-01 0.  0.
         14    1    1    2    0    0  0.14113352338E-01  0.18052616373E-01 -0.56745905950E-02  0.23606877187E-01  0.00000000000E+00 0.  1.
     999901    1    3    3    0    0 -0.50323388272E-02  0.11270502412E+00 -0.53085604860E-02  0.88721808351E+00  0.88000000000E+00 0. -1.
        -11    1    4    4    0    0  0.22684586617E-02 -0.26506773958E-01  0.94153015391E-02  0.28225236836E-01  0.51100000000E-03 0.  1.
         11    1    4    4    0    0 -0.11349472172E-01 -0.10425086654E+00  0.15678495418E-02  0.10487980247E+00  0.51100000000E-03 0. -1.
</event>
<event>
 8    1  0.1183092E+005  0.1043930E+01  0.7957747E-01            NaN
         13   -1    0    0    0    0  0.00000000000E+00  0.00000000000E+00  0.74505805969E-08  0.10566000000E+00  0.10566000000E+00 0. -1.
     999900   -1    0    0    0    0 -0.00000000000E+00 -0.00000000000E+00 -0.74505805969E-08  0.93827000000E+00  0.93827000000E+00 0. -1.
     999902    2    1    2    0    0  0.16797998145E-01 -0.91717529507E-02 -0.94055951174E-02  0.10226049206E+01  0.10223825431E+01 0.  0.
     999903    2    3    3    0    0 -0.60646352160E-01  0.11020158228E+00 -0.29855189724E-01  0.13094029387E+00  0.20776415417E-01 0.  0.
         14    1    1    2    0    0 -0.16797998145E-01  0.91717529507E-02  0.94055951174E-02  0.21325079446E-01  0.00000000000E+00 0. -1.
     999901    1    3    3    0    0  0.77444350305E-01 -0.11937333523E+00  0.20449594607E-01  0.89166462668E+00  0.88000000000E+00 0. -1.
        -11    1    4    4    0    0 -0.11783471449E-01  0.25932893332E-01 -0.15631075987E-01  0.32495489125E-01  0.51100000000E-03 0.  1.
         11    1    4    4    0    0 -0.48862880710E-01  0.84268688951E-01 -0.14224113737E-01  0.98444804746E-01  0.51100000000E-03 0. -1.
</event>
<event>
 8    1  0.1183092E+005  0.1043930E+01  0.7957747E-01            NaN
         13   -1    0    0    0    0  0.00000000000E+00  0.00000000000E+00  0.74505805969E-08  0.10566000000E+00  0.10566000000E+00 0.  1.
     999900   -1    0    0    0    0 -0.00000000000E+00 -0.00000000000E+00 -0.74505805969E-08  0.93827000000E+00  0.93827000000E+00 0. -1.
     999902    2    1    2    0    0  0.21093022050E-01  0.95398109467E-02  0.19155189195E-02  0.10207008635E+01  0.10204365046E+01 0.  0.
     999903    2    3    3    0    0  0.10577142739E+00  0.63526824963E-01 -0.47785338462E-01  0.13359590617E+00  0.18470929308E-01 0.  0.
         14    1    1    2    0    0 -0.21093022050E-01 -0.95398109467E-02 -0.19155189195E-02  0.23229136549E-01  0.00000000000E+00 0.  1.
     999901    1    3    3    0    0 -0.84678405345E-01 -0.53987014016E-01  0.49700857381E-01  0.88710495728E+00  0.88000000000E+00 0.  1.
        -11    1    4    4    0    0  0.90478895402E-01  0.48298074981E-01 -0.34325127130E-01  0.10815549008E+00  0.51100000000E-03 0.  1.
         11    1    4    4    0    0  0.15292531993E-01  0.15228749981E-01 -0.13460211332E-01  0.25440416090E-01  0.51100000000E-03 0. -1.
</event>
<event>
 8    1  0.1183092E+005  0.1043930E+01  0.7957747E-01            NaN
         13   -1    0    0    0    0  0.00000000000E+00  0.00000000000E+00  0.74505805969E-08  0.10566000000E+00  0.10566000000E+00 0. -1.
     999900   -1    0    0    0    0 -0.00000000000E+00 -0.00000000000E+00 -0.74505805969E-08  0.93827000000E+00  0.93827000000E+00 0.  1.
     999902    2    1    2    0    0  0.16144836030E-01 -0.64847234503E-02  0.15520538253E-01  0.10206148874E+01  0.10203485453E+01 0.  0.
     999903    2    3    3    0    0 -0.27669499363E-01 -0.76215773063E-01  0.10121374791E+00  0.13262533708E+00  0.27763501422E-01 0.  0.
         14    1    1    2    0    0 -0.16144836030E-01  0.64847234503E-02 -0.15520538253E-01  0.23315112617E-01  0.00000000000E+00 0. -1.
     999901    1    3    3    0    0  0.43814335393E-01  0.69731049613E-01 -0.85693209656E-01  0.88798955030E+00  0.88000000000E+00 0.  1.
        -11    1    4    4    0    0 -0.29292034224E-01 -0.59015508676E-01  0.65276677331E-01  0.92747826161E-01  0.51100000000E-03 0.  1.
         11    1    4    4    0    0  0.16225348611E-02 -0.17200264388E-01  0.35937070578E-01  0.39877510919E-01  0.51100000000E-03 0. -1.
</event>
<event>
 8    1  0.1183092E+005  0.1043930E+01  0.7957747E-01            NaN
         13   -1    0    0    0    0  0.00000000000E+00  0.00000000000E+00  0.74505805969E-08  0.10566000000E+00  0.10566000000E+00 0.  1.
     999900   -1    0    0    0    0 -0.00000000000E+00 -0.00000000000E+00 -0.74505805969E-08  0.93827000000E+00  0.93827000000E+00 0.  1.
     999902    2    1    2    0    0 -0.61327845739E-03  0.26535551173E-01  0.10418398094E-01  0.10154158876E+01  0.10150154532E+01 0.  0.
     999903    2    3    3    0    0 -0.48867799639E-01  0.10935662938E+00  0.42346116185E-01  0.12963532280E+00  0.25791260771E-01 0.  0.
         14    1    1    2    0    0  0.61327845739E-03 -0.26535551173E-01 -0.10418398094E-01  0.28514112389E-01  0.00000000000E+00 0. -1.
     999901    1    3    3    0    0  0.48254521182E-01 -0.82821078203E-01 -0.31927718092E-01  0.88578056481E+00  0.88000000000E+00 0.  1.
        -11    1    4    4    0    0 -0.11304623165E-01  0.51673096115E-01  0.25715490134E-01  0.58817097182E-01  0.51100000000E-03 0.  1.
         11    1    4    4    0    0 -0.37563176474E-01  0.57683533260E-01  0.16630626051E-01  0.70818225621E-01  0.51100000000E-03 0. -1.
</event>
<event>
 8    1  0.1183092E+005  0.1043930E+01  0.7957747E-01            NaN
         13   -1    0    0    0    0  0.00000000000E+00  0.00000000000E+00  0.74505805969E-08  0.10566000000E+00  0.10566000000E+00 0. -1.
     999900   -1    0    0    0    0 -0.00000000000E+00 -0.00000000000E+00 -0.74505805969E-08  0.93827000000E+00  0.93827000000E+00 0.  1.
     999902    2    1    2    0    0  0.35477528676E-02  0.37940560691E-02  0.29317089784E-01  0.10141563008E+01  0.10137191570E+01 0.  0.
     999903    2    3    3    0    0  0.65815280008E-01 -0.33608519152E-01  0.10288606641E+00  0.12810404956E+00  0.19076719035E-01 0.  0.
         14    1    1    2    0    0 -0.35477528676E-02 -0.37940560691E-02 -0.29317089784E-01  0.29773699220E-01  0.00000000000E+00 0.  1.
     999901    1    3    3    0    0 -0.62267527141E-01  0.37402575221E-01 -0.73568976631E-01  0.88605225122E+00  0.88000000000E+00 0.  1.
        -11    1    4    4    0    0  0.51678191749E-01 -0.16956101129E-01  0.70681894288E-01  0.89187085215E-01  0.51100000000E-03 0. -1.
         11    1    4    4    0    0  0.14137088259E-01 -0.16652418023E-01  0.32204172127E-01  0.38916964345E-01  0.51100000000E-03 0.  1.
</event>
<event>
 8    1  0.1183092E+005  0.1043930E+01  0.7957747E-01            NaN
         13   -1    0    0    0    0  0.00000000000E+00  0.00000000000E+00  0.74505805969E-08  0.10566000000E+00  0.10566000000E+00 0. -1.
     999900   -1    0    0    0    0 -0.00000000000E+00 -0.00000000000E+00 -0.74505805969E-08  0.93827000000E+00  0.93827000000E+00 0. -1.
     999902    2    1    2    0    0  0.23048734957E-01 -0.38060875834E-02 -0.17419528661E-02  0.10205042687E+01  0.10202353638E+01 0.  0.
     999903    2    3    3    0    0 -0.89674172013E-02 -0.34108055569E-01  0.12433099392E+00  0.13042695120E+00  0.17584638911E-01 0.  0.
         14    1    1    2    0    0 -0.23048734957E-01  0.38060875834E-02  0.17419528661E-02  0.23425731272E-01  0.00000000000E+00 0.  1.
     999901    1    3    3    0    0  0.32016152159E-01  0.30301967986E-01 -0.12607294678E+00  0.89007731753E+00  0.88000000000E+00 0. -1.
        -11    1    4    4    0    0 -0.91868298282E-02 -0.24818014681E-01  0.62124317221E-01  0.67527946853E-01  0.51100000000E-03 0. -1.
         11    1    4    4    0    0  0.21941262691E-03 -0.92900408883E-02  0.62206676696E-01  0.62899004350E-01  0.51100000000E-03 0.  1.
</event>
<event>
 8    1  0.1183092E+005  0.1043930E+01  0.7957747E-01            NaN
         13   -1    0    0    0    0  0.00000000000E+00  0.00000000000E+00  0.74505805969E-08  0.10566000000E+00  0.10566000000E+00 0. -1.
     999900   -1    0    0    0    0 -0.00000000000E+00 -0.00000000000E+00 -0.74505805969E-08  0.93827000000E+00  0.93827000000E+00 0.  1.
     999902    2    1    2    0    0  0.35042918628E-02 -0.81241280144E-02  0.22093103212E-01  0.10201311192E+01  0.10198534766E+01 0.  0.
     999903    2    3    3    0    0 -0.11847086041E+00 -0.13545826476E-01  0.51468949917E-01  0.13121589662E+00  0.18700923471E-01 0.  0.
         14    1    1    2    0    0 -0.35042918628E-02  0.81241280144E-02 -0.22093103212E-01  0.23798880792E-01  0.00000000000E+00 0.  1.
     999901    1    3    3    0    0  0.12197515227E+00  0.54216984613E-02 -0.29375846705E-01  0.88891522259E+00  0.88000000000E+00 0.  1.
        -11    1    4    4    0    0 -0.60181423840E-01 -0.15915947021E-01  0.23796213370E-01  0.66645645294E-01  0.51100000000E-03 0. -1.
         11    1    4    4    0    0 -0.58289436567E-01  0.23701205449E-02  0.27672736547E-01  0.64570251322E-01  0.51100000000E-03 0.  1.
</event>
<event>
 8    1  0.1183092E+005  0.1043930E+01  0.7957747E-01            NaN
         13   -1    0    0    0    0  0.00000000000E+00  0.00000000000E+00  0.74505805969E-08  0.10566000000E+00  0.10566000000E+00 0. -1.
     999900   -1    0    0    0    0 -0.00000000000E+00 -0.00000000000E+00 -0.74505805969E-08  0.93827000000E+00  0.93827000000E+00 0.  1.
     999902    2    1    2    0    0  0.13900955407E-01 -0.16262713628E-01  0.10717202218E-01  0.10200015475E+01  0.10197208373E+01 0.  0.
     999903    2    3    3    0    0  0.87387846978E-02 -0.11745934265E-01  0.12972026065E+00  0.13196507459E+00  0.19315836987E-01 0.  0.
         14    1    1    2    0    0 -0.13900955407E-01  0.16262713628E-01 -0.10717202218E-01  0.23928452502E-01  0.00000000000E+00 0.  1.
     999901    1    3    3    0    0  0.51621707089E-02 -0.45167793628E-02 -0.11900305843E+00  0.88803647291E+00  0.88000000000E+00 0.  1.
        -11    1    4    4    0    0  0.13808957331E-02 -0.13847693270E-01  0.50835680799E-01  0.52708567095E-01  0.51100000000E-03 0.  1.
         11    1    4    4    0    0  0.73578889647E-02  0.21017590045E-02  0.78884579850E-01  0.79256507493E-01  0.51100000000E-03 0. -1.
</event>
<event>
 8    1  0.1183092E+005  0.1043930E+01  0.7957747E-01            NaN
         13   -1    0    0    0    0  0.00000000000E+00  0.00000000000E+00  0.74505805969E-08  0.10566000000E+00  0.10566000000E+00 0.  1.
     999900   -1    0    0    0    0 -0.00000000000E+00 -0.00000000000E+00 -0.74505805969E-08  0.93827000000E+00  0.93827000000E+00 0.  1.
     999902    2    1    2    0    0 -0.15474151140E-04  0.21728487405E-01  0.93510985683E-02  0.10202747585E+01  0.10200004963E+01 0.  0.
     999903    2    3    3    0    0 -0.11045625818E+00  0.49100063101E-01  0.49363428913E-01  0.13204767242E+00  0.19708843439E-01 0.  0.
         14    1    1    2    0    0  0.15474151140E-04 -0.21728487405E-01 -0.93510985683E-02  0.23655241466E-01  0.00000000000E+00 0. -1.
     999901    1    3    3    0    0  0.11044078403E+00 -0.27371575696E-01 -0.40012330344E-01  0.88822708612E+00  0.88000000000E+00 0.  1.
        -11    1    4    4    0    0 -0.25954645229E-01  0.18502505597E-01  0.19373367360E-01  0.37303817582E-01  0.51100000000E-03 0.  1.
         11    1    4    4    0    0 -0.84501612949E-01  0.30597557504E-01  0.29990061553E-01  0.94743854835E-01  0.51100000000E-03 0. -1.
</event>
<event>
 8    1  0.1183092E+005  0.1043930E+01  0.7957747E-01            NaN
         13   -1    0    0    0    0  0.00000000000E+00  0.00000000000E+00  0.74505805969E-08  0.10566000000E+00  0.10566000000E+00 0.  1.
     999900   -1    0    0    0    0 -0.00000000000E+00 -0.00000000000E+00 -0.74505805969E-08  0.93827000000E+00  0.93827000000E+00 0.  1.
     999902    2    1    2    0    0 -0.15629810088E-02  0.47735152119E-02  0.22440356951E-01  0.10209343705E+01  0.10206753597E+01 0.  0.
     999903    2    3    3    0    0 -0.12325019802E+00  0.23744263102E-01 -0.30962278242E-01  0.13075488885E+00  0.19590225707E-01 0.  0.
         14    1    1    2    0    0  0.15629810088E-02 -0.47735152119E-02 -0.22440356951E-01  0.22995629524E-01  0.00000000000E+00 0. -1.
     999901    1    3    3    0    0  0.12168721701E+00 -0.18970747890E-01  0.53402635192E-01  0.89017948162E+00  0.88000000000E+00 0. -1.
        -11    1    4    4    0    0 -0.66003419315E-01  0.21529265988E-01 -0.12365997159E-01  0.70520491078E-01  0.51100000000E-03 0. -1.
         11    1    4    4    0    0 -0.57246778703E-01  0.22149971141E-02 -0.18596281083E-01  0.60234397774E-01  0.51100000000E-03 0.  1.
</event>
<event>
 8    1  0.1183092E+005  0.1043930E+01  0.7957747E-01            NaN
         13   -1    0    0    0    0  0.00000000000E+00  0.00000000000E+00  0.74505805969E-08  0.10566000000E+00  0.10566000000E+00 0. -1.
     999900   -1    0    0    0    0 -0.00000000000E+00 -0.00000000000E+00 -0.74505805969E-08  0.93827000000E+00  0.93827000000E+00 0. -1.
     999902    2    1    2    0    0 -0.18209674794E-01 -0.62203310768E-02  0.12781819627E-01  0.10208289245E+01  0.10205675056E+01 0.  0.
     999903    2    3    3    0    0 -0.97883132170E-01 -0.63945998892E-01 -0.58881614521E-01  0.13245076163E+00  0.20148483544E-01 0.  0.
         14    1    1    2    0    0  0.18209674794E-01  0.62203310768E-02 -0.12781819627E-01  0.23101075468E-01  0.00000000000E+00 0.  1.
     999901    1    3    3    0    0  0.79673457376E-01  0.57725667815E-01  0.71663434148E-01  0.88837816291E+00  0.88000000000E+00 0.  1.
        -11    1    4    4    0    0 -0.41460550218E-01 -0.34715017347E-01 -0.18479592912E-01  0.57147756989E-01  0.51100000000E-03 0. -1.
         11    1    4    4    0    0 -0.56422581952E-01 -0.29230981545E-01 -0.40402021609E-01  0.75303004636E-01  0.51100000000E-03 0.  1.
</event>
<event>
 8    1  0.1183092E+005  0.1043930E+01  0.7957747E-01            NaN
         13   -1    0    0    0    0  0.00000000000E+00  0.00000000000E+00  0.74505805969E-08  0.10566000000E+00  0.10566000000E+00 0.  1.
     999900   -1    0    0    0    0 -0.00000000000E+00 -0.00000000000E+00 -0.74505805969E-08  0.93827000000E+00  0.93827000000E+00 0. -1.
     999902    2    1    2    0    0  0.19599449681E-01 -0.12009487303E-01 -0.83927967399E-03  0.10209284652E+01  0.10206693198E+01 0.  0.
     999903    2    3    3    0    0  0.61550638754E-01  0.11343384453E+00 -0.89402799251E-02  0.13100624501E+00  0.20663722094E-01 0.  0.
         14    1    1    2    0    0 -0.19599449681E-01  0.12009487303E-01  0.83927967399E-03  0.23001534806E-01  0.00000000000E+00 0.  1.
     999901    1    3    3    0    0 -0.41951189073E-01 -0.12544333184E+00  0.81010002511E-02  0.88992222018E+00  0.88000000000E+00 0. -1.
        -11    1    4    4    0    0  0.33141148325E-01  0.81182732491E-01 -0.73190682163E-02  0.87993190916E-01  0.51100000000E-03 0.  1.
         11    1    4    4    0    0  0.28409490429E-01  0.32251112042E-01 -0.16212117088E-02  0.43013054097E-01  0.51100000000E-03 0. -1.
</event>
<event>
 8    1  0.1183092E+005  0.1043930E+01  0.7957747E-01            NaN
         13   -1    0    0    0    0  0.00000000000E+00  0.00000000000E+00  0.74505805969E-08  0.10566000000E+00  0.10566000000E+00 0. -1.
     999900   -1    0    0    0    0 -0.00000000000E+00 -0.00000000000E+00 -0.74505805969E-08  0.93827000000E+00  0.93827000000E+00 0. -1.
     999902    2    1    2    0    0 -0.15096274534E-01 -0.70868356397E-02  0.18353890399E-01  0.10191310880E+01  0.10188293225E+01 0.  0.
     999903    2    3    3    0    0  0.21032205042E-01 -0.46524001365E-01 -0.11511952139E+00  0.12746090864E+00  0.19670858540E-01 0.  0.
         14    1    1    2    0    0  0.15096274534E-01  0.70868356397E-02 -0.18353890399E-01  0.24798912012E-01  0.00000000000E+00 0.  1.
     999901    1    3    3    0    0 -0.36128479577E-01  0.39437165725E-01  0.13347341179E+00  0.89167017934E+00  0.88000000000E+00 0.  1.
        -11    1    4    4    0    0  0.12336056813E-01 -0.39976231138E-01 -0.74926827898E-01  0.85817061320E-01  0.51100000000E-03 0.  1.
         11    1    4    4    0    0  0.86961482294E-02 -0.65477702273E-02 -0.40192693490E-01  0.41643847324E-01  0.51100000000E-03 0. -1.
</event>
<event>
 8    1  0.1183092E+005  0.1043930E+01  0.7957747E-01            NaN
         13   -1    0    0    0    0  0.00000000000E+00  0.00000000000E+00  0.74505805969E-08  0.10566000000E+00  0.10566000000E+00 0.  1.
     999900   -1    0    0    0    0 -0.00000000000E+00 -0.00000000000E+00 -0.74505805969E-08  0.93827000000E+00  0.93827000000E+00 0.  1.
     999902    2    1    2    0    0  0.20116285521E-01  0.81318360649E-02 -0.56138166396E-02  0.10215178016E+01  0.10212719091E+01 0.  0.
     999903    2    3    3    0    0 -0.48058469146E-01  0.82650276988E-01  0.87163253190E-01  0.13089533392E+00  0.19886452472E-01 0.  0.
         14    1    1    2    0    0 -0.20116285521E-01 -0.81318360649E-02  0.56138166396E-02  0.22412198425E-01  0.00000000000E+00 0. -1.
     999901    1    3    3    0    0  0.68174754667E-01 -0.74518440923E-01 -0.92777069829E-01  0.89062246766E+00  0.88000000000E+00 0.  1.
        -11    1    4    4    0    0 -0.45148853657E-01  0.65482384274E-01  0.77113634386E-01  0.11078418374E+00  0.51100000000E-03 0. -1.
         11    1    4    4    0    0 -0.29096154889E-02  0.17167892714E-01  0.10049618803E-01  0.20111150182E-01  0.51100000000E-03 0.  1.
</event>
<event>
 8    1  0.1183092E+005  0.1043930E+01  0.7957747E-01            NaN
         13   -1    0    0    0    0  0.00000000000E+00  0.00000000000E+00  0.74505805969E-08  0.10566000000E+00  0.10566000000E+00 0. -1.
     999900   -1    0    0    0    0 -0.00000000000E+00 -0.00000000000E+00 -0.74505805969E-08  0.93827000000E+00  0.93827000000E+00 0. -1.
     999902    2    1    2    0    0 -0.10226827383E-01  0.17406764806E-01  0.12205928631E-01  0.10203383033E+01  0.10200655298E+01 0.  0.
     999903    2    3    3    0    0 -0.34327959839E-01  0.11601022669E+00  0.52851833006E-01  0.13357136841E+00  0.20278379660E-01 0.  0.
         14    1    1    2    0    0  0.10226827383E-01 -0.17406764806E-01 -0.12205928631E-01  0.23591696698E-01  0.00000000000E+00 0.  1.
     999901    1    3    3    0    0  0.24101132457E-01 -0.98603461888E-01 -0.40645904375E-01  0.88676693490E+00  0.88000000000E+00 0. -1.
        -11    1    4    4    0    0 -0.11579715418E-01  0.14395997669E-01  0.65228346398E-02  0.19599567617E-01  0.51100000000E-03 0. -1.
         11    1    4    4    0    0 -0.22748244422E-01  0.10161422902E+00  0.46328998367E-01  0.11397180079E+00  0.51100000000E-03 0.  1.
</event>
<event>
 8    1  0.1183092E+005  0.1043930E+01  0.7957747E-01            NaN
         13   -1    0    0    0    0  0.00000000000E+00  0.00000000000E+00  0.74505805969E-08  0.10566000000E+00  0.10566000000E+00 0.  1.
     999900   -1    0    0    0    0 -0.00000000000E+00 -0.00000000000E+00 -0.74505805969E-08  0.93827000000E+00  0.93827000000E+00 0.  1.
     999902    2    1    2    0    0  0.22039916548E-01 -0.57076654021E-03 -0.55700772767E-02  0.10211899592E+01  0.10209367381E+01 0.  0.
     999903    2    3    3    0    0 -0.81134803473E-01 -0.21204623070E-01 -0.97837625784E-01  0.13013211627E+00  0.18156935117E-01 0.  0.
         14    1    1    2    0    0 -0.22039916548E-01  0.57076654021E-03  0.55700772767E-02  0.22740040826E-01  0.00000000000E+00 0.  1.
     999901    1    3    3    0    0  0.10317472002E+00  0.20633856530E-01  0.92267548507E-01  0.89105784290E+00  0.88000000000E+00 0. -1.
        -11    1    4    4    0    0 -0.33291706611E-01 -0.17704598224E-01 -0.46480664746E-01  0.59854021114E-01  0.51100000000E-03 0. -1.
         11    1    4    4    0    0 -0.47843096861E-01 -0.35000248465E-02 -0.51356961038E-01  0.70278095159E-01  0.51100000000E-03 0.  1.
</event>
<event>
 8    1  0.1183092E+005  0.1043930E+01  0.7957747E-01            NaN
         13   -1    0    0    0    0  0.00000000000E+00  0.00000000000E+00  0.74505805969E-08  0.10566000000E+00  0.10566000000E+00 0.  1.
     999900   -1    0    0    0    0 -0.00000000000E+00 -0.00000000000E+00 -0.74505805969E-08  0.93827000000E+00  0.93827000000E+00 0. -1.
     999902    2    1    2    0    0 -0.38832624107E-02  0.16711015031E-01  0.16360712780E-01  0.10202232357E+01  0.10199477634E+01 0.  0.
     999903    2    3    3    0    0 -0.11966762618E+00  0.40637500769E-01  0.34939547428E-01  0.13212207666E+00  0.16239579515E-01 0.  0.
         14    1    1    2    0    0  0.38832624107E-02 -0.16711015031E-01 -0.16360712780E-01  0.23706764287E-01  0.00000000000E+00 0. -1.
     999901    1    3    3    0    0  0.11578436377E+00 -0.23926485738E-01 -0.18578834648E-01  0.88810115905E+00  0.88000000000E+00 0.  1.
        -11    1    4    4    0    0 -0.14937265531E-01  0.64510841656E-02  0.10194042692E-01  0.19207238632E-01  0.51100000000E-03 0. -1.
         11    1    4    4    0    0 -0.10473036065E+00  0.34186416603E-01  0.24745504736E-01  0.11291483803E+00  0.51100000000E-03 0.  1.
</event>
<event>
 8    1  0.1183092E+005  0.1043930E+01  0.7957747E-01            NaN
         13   -1    0    0    0    0  0.00000000000E+00  0.00000000000E+00  0.74505805969E-08  0.10566000000E+00  0.10566000000E+00 0. -1.
     999900   -1    0    0    0    0 -0.00000000000E+00 -0.00000000000E+00 -0.74505805969E-08  0.93827000000E+00  0.93827000000E+00 0. -1.
     999902    2    1    2    0    0 -0.18219738417E-02 -0.19750858988E-01  0.13798771171E-01  0.10197675890E+01  0.10194812963E+01 0.  0.
     999903    2    3    3    0    0  0.42180227228E-01 -0.45000289845E-01  0.11553888009E+00  0.13245435388E+00  0.19766775007E-01 0.  0.
         14    1    1    2    0    0  0.18219738417E-02  0.19750858988E-01 -0.13798771171E-01  0.24162410999E-01  0.00000000000E+00 0. -1.
     999901    1    3    3    0    0 -0.44002201070E-01  0.25249430857E-01 -0.10174010892E+00  0.88731323512E+00  0.88000000000E+00 0. -1.
        -11    1    4    4    0    0  0.17269664268E-01 -0.32641526719E-01  0.67674756957E-01  0.77096332083E-01  0.51100000000E-03 0.  1.
         11    1    4    4    0    0  0.24910562960E-01 -0.12358763126E-01  0.47864123133E-01  0.55358021797E-01  0.51100000000E-03 0. -1.
</event>
<event>
 8    1  0.1183092E+005  0.1043930E+01  0.7957747E-01            NaN
         13   -1    0    0    0    0  0.00000000000E+00  0.00000000000E+00  0.74505805969E-08  0.10566000000E+00  0.10566000000E+00 0. -1.
     999900   -1    0    0    0    0 -0.00000000000E+00 -0.00000000000E+00 -0.74505805969E-08  0.93827000000E+00  0.93827000000E+00 0.  1.
     999902    2    1    2    0    0 -0.93384672348E-02 -0.23624125157E-01  0.40372125726E-02  0.10182083098E+01  0.10178833710E+01 0.  0.
     999903    2    3    3    0    0 -0.93673390198E-01  0.65361586801E-01  0.55400634524E-01  0.12822570479E+00  0.18048822754E-01 0.  0.
         14    1    1    2    0    0  0.93384672348E-02  0.23624125157E-01 -0.40372125726E-02  0.25721690168E-01  0.00000000000E+00 0. -1.
     999901    1    3    3    0    0  0.84334922963E-01 -0.88985711958E-01 -0.51363421951E-01  0.88998260504E+00  0.88000000000E+00 0.  1.
        -11    1    4    4    0    0 -0.59489692021E-01  0.34970886465E-01  0.25461207955E-01  0.73556240989E-01  0.51100000000E-03 0.  1.
         11    1    4    4    0    0 -0.34183698177E-01  0.30390700335E-01  0.29939426569E-01  0.54669463800E-01  0.51100000000E-03 0. -1.
</event>
<event>
 8    1  0.1183092E+005  0.1043930E+01  0.7957747E-01            NaN
         13   -1    0    0    0    0  0.00000000000E+00  0.00000000000E+00  0.74505805969E-08  0.10566000000E+00  0.10566000000E+00 0. -1.
     999900   -1    0    0    0    0 -0.00000000000E+00 -0.00000000000E+00 -0.74505805969E-08  0.93827000000E+00  0.93827000000E+00 0.  1.
     999902    2    1    2    0    0  0.14160376886E-01  0.70434382520E-02  0.17378057306E-01  0.10204326986E+01  0.10201621289E+01 0.  0.
     999903    2    3    3    0    0  0.52792089840E-01 -0.10202577613E+00  0.61002773554E-01  0.13178675190E+00  0.21216640872E-01 0.  0.
         14    1    1    2    0    0 -0.14160376886E-01 -0.70434382520E-02 -0.17378057306E-01  0.23497301370E-01  0.00000000000E+00 0. -1.
     999901    1    3    3    0    0 -0.38631712955E-01  0.10906921438E+00 -0.43624716249E-01  0.88864594673E+00  0.88000000000E+00 0. -1.
        -11    1    4    4    0    0  0.18852523358E-01 -0.57299630919E-01  0.36656350007E-01  0.70587636717E-01  0.51100000000E-03 0. -1.
         11    1    4    4    0    0  0.33939566483E-01 -0.44726145213E-01  0.24346423548E-01  0.61199115183E-01  0.51100000000E-03 0.  1.
</event>
<event>
 8    1  0.1183092E+005  0.1043930E+01  0.7957747E-01            NaN
         13   -1    0    0    0    0  0.00000000000E+00  0.00000000000E+00  0.74505805969E-08  0.10566000000E+00  0.10566000000E+00 0.  1.
     999900   -1    0    0    0    0 -0.00000000000E+00 -0.00000000000E+00 -0.74505805969E-08  0.93827000000E+00  0.93827000000E+00 0.  1.
     999902    2    1    2    0    0 -0.16880188876E-01 -0.81681906267E-02 -0.14364931122E-01  0.10203077359E+01  0.10200342468E+01 0.  0.
     999903    2    3    3    0    0 -0.12469082602E+00 -0.24160564595E-02  0.38033408459E-01  0.13216258644E+00  0.21604853001E-01 0.  0.
         14    1    1    2    0    0  0.16880188876E-01  0.81681906267E-02  0.14364931122E-01  0.23622264090E-01  0.00000000000E+00 0.  1.
     999901    1    3    3    0    0  0.10781063715E+00 -0.57521341672E-02 -0.52398339581E-01  0.88814514947E+00  0.88000000000E+00 0.  1.
        -11    1    4    4    0    0 -0.11799678374E-01 -0.64971979870E-02  0.22631556429E-02  0.13668540005E-01  0.51100000000E-03 0.  1.
         11    1    4    4    0    0 -0.11289114765E+00  0.40811415275E-02  0.35770252816E-01  0.11849404644E+00  0.51100000000E-03 0. -1.
</event>
<event>
 8    1  0.1183092E+005  0.1043930E+01  0.7957747E-01            NaN
         13   -1    0    0    0    0  0.00000000000E+00  0.00000000000E+00  0.74505805969E-08  0.10566000000E+00  0.10566000000E+00 0.  1.
     999900   -1    0    0    0    0 -0.00000000000E+00 -0.00000000000E+00 -0.74505805969E-08  0.93827000000E+00  0.93827000000E+00 0.  1.
     999902    2    1    2    0    0  0.34700763423E-02 -0.19435538930E-01  0.13356800848E-01  0.10200933532E+01  0.10198148182E+01 0.  0.
     999903    2    3    3    0    0  0.71222858642E-01 -0.12607396749E-01 -0.10546640829E+00  0.12950028220E+00  0.20384252871E-01 0.  0.
         14    1    1    2    0    0 -0.34700763423E-02  0.19435538930E-01 -0.13356800848E-01  0.23836646832E-01  0.00000000000E+00 0. -1.
     999901    1    3    3    0    0 -0.67752782300E-01 -0.68281421806E-02  0.11882320914E+00  0.89059307097E+00  0.88000000000E+00 0. -1.
        -11    1    4    4    0    0  0.36361097353E-01 -0.39163622580E-02 -0.70180191058E-01  0.79139039873E-01  0.51100000000E-03 0.  1.
         11    1    4    4    0    0  0.34861761289E-01 -0.86910344914E-02 -0.35286217231E-01  0.50361242322E-01  0.51100000000E-03 0. -1.
</event>
<event>
 8    1  0.1183092E+005  0.1043930E+01  0.7957747E-01            NaN
         13   -1    0    0    0    0  0.00000000000E+00  0.00000000000E+00  0.74505805969E-08  0.10566000000E+00  0.10566000000E+00 0.  1.
     999900   -1    0    0    0    0 -0.00000000000E+00 -0.00000000000E+00 -0.74505805969E-08  0.93827000000E+00  0.93827000000E+00 0. -1.
     999902    2    1    2    0    0 -0.95011850491E-02  0.16291552373E-01  0.77966287623E-02  0.10235222903E+01  0.10233188184E+01 0.  0.
     999903    2    3    3    0    0 -0.82369235650E-01  0.92715744819E-01  0.50230784863E-01  0.13619424069E+00  0.25393682858E-01 0.  0.
         14    1    1    2    0    0  0.95011850491E-02 -0.16291552373E-01 -0.77966287623E-02  0.20407709722E-01  0.00000000000E+00 0. -1.
     999901    1    3    3    0    0  0.72868050601E-01 -0.76424192446E-01 -0.42434156100E-01  0.88732804959E+00  0.88000000000E+00 0.  1.
        -11    1    4    4    0    0 -0.60733783716E-01  0.80813152933E-01  0.34072989464E-01  0.10667983832E+00  0.51100000000E-03 0.  1.
         11    1    4    4    0    0 -0.21635451934E-01  0.11902591886E-01  0.16157795399E-01  0.29514402368E-01  0.51100000000E-03 0. -1.
</event>
<event>
 8    1  0.1183092E+005  0.1043930E+01  0.7957747E-01            NaN
         13   -1    0    0    0    0  0.00000000000E+00  0.00000000000E+00  0.74505805969E-08  0.10566000000E+00  0.10566000000E+00 0. -1.
     999900   -1    0    0    0    0 -0.00000000000E+00 -0.00000000000E+00 -0.74505805969E-08  0.93827000000E+00  0.93827000000E+00 0.  1.
     999902    2    1    2    0    0 -0.21756022753E-01  0.73093542374E-02  0.47282909765E-02  0.10204969481E+01  0.10202278732E+01 0.  0.
     999903    2    3    3    0    0 -0.65189223225E-01 -0.11221856257E+00 -0.64334513153E-02  0.13128496534E+00  0.18753992105E-01 0.  0.
         14    1    1    2    0    0  0.21756022753E-01 -0.73093542374E-02 -0.47282909765E-02  0.23433051891E-01  0.00000000000E+00 0. -1.
     999901    1    3    3    0    0  0.43433200472E-01  0.11952791681E+00  0.11161742292E-01  0.88921198276E+00  0.88000000000E+00 0. -1.
        -11    1    4    4    0    0 -0.59203343240E-01 -0.88177746502E-01 -0.28615417530E-02  0.10624876645E+00  0.51100000000E-03 0. -1.
         11    1    4    4    0    0 -0.59858799843E-02 -0.24040816068E-01 -0.35719095622E-02  0.25036198899E-01  0.51100000000E-03 0.  1.
</event>
<event>
 8    1  0.1183092E+005  0.1043930E+01  0.7957747E-01            NaN
         13   -1    0    0    0    0  0.00000000000E+00  0.00000000000E+00  0.74505805969E-08  0.10566000000E+00  0.10566000000E+00 0.  1.
     999900   -1    0    0    0    0 -0.00000000000E+00 -0.00000000000E+00 -0.74505805969E-08  0.93827000000E+00  0.93827000000E+00 0.  1.
     999902    2    1    2    0    0  0.14268518408E-01 -0.13708359626E-01 -0.14564796437E-02  0.10240898620E+01  0.10238976582E+01 0.  0.
     999903    2    3    3    0    0 -0.98450661490E-01  0.54967845033E-01 -0.65178997051E-01  0.13196734029E+00  0.21285687918E-01 0.  0.
         14    1    1    2    0    0 -0.14268518408E-01  0.13708359626E-01  0.14564796437E-02  0.19840137957E-01  0.00000000000E+00 0. -1.
     999901    1    3    3    0    0  0.11271917990E+00 -0.68676204658E-01  0.63722517407E-01  0.89212252176E+00  0.88000000000E+00 0.  1.
        -11    1    4    4    0    0 -0.36646512965E-01  0.25701327731E-01 -0.36716026686E-01  0.57895188886E-01  0.51100000000E-03 0.  1.
         11    1    4    4    0    0 -0.61804148525E-01  0.29266517302E-01 -0.28462970365E-01  0.74072151399E-01  0.51100000000E-03 0. -1.
</event>
<event>
 8    1  0.1183092E+005  0.1043930E+01  0.7957747E-01            NaN
         13   -1    0    0    0    0  0.00000000000E+00  0.00000000000E+00  0.74505805969E-08  0.10566000000E+00  0.10566000000E+00 0. -1.
     999900   -1    0    0    0    0 -0.00000000000E+00 -0.00000000000E+00 -0.74505805969E-08  0.93827000000E+00  0.93827000000E+00 0. -1.
     999902    2    1    2    0    0  0.16573047612E-01  0.52116674382E-02 -0.15731298232E-01  0.10204928259E+01  0.10202236552E+01 0.  0.
     999903    2    3    3    0    0  0.34375133520E-01  0.11761888519E+00 -0.47021267305E-01  0.13261256427E+00  0.18953645169E-01 0.  0.
         14    1    1    2    0    0 -0.16573047612E-01 -0.52116674382E-02  0.15731298232E-01  0.23437174077E-01  0.00000000000E+00 0. -1.
     999901    1    3    3    0    0 -0.17802085908E-01 -0.11240721775E+00  0.31289969073E-01  0.88788026165E+00  0.88000000000E+00 0.  1.
        -11    1    4    4    0    0  0.29319868565E-01  0.79116432754E-01 -0.39014876296E-01  0.92959595082E-01  0.51100000000E-03 0.  1.
         11    1    4    4    0    0  0.50552649552E-02  0.38502452439E-01 -0.80063910086E-02  0.39652969189E-01  0.51100000000E-03 0. -1.
</event>
<event>
 8    1  0.1183092E+005  0.1043930E+01  0.7957747E-01            NaN
         13   -1    0    0    0    0  0.00000000000E+00  0.00000000000E+00  0.74505805969E-08  0.10566000000E+00  0.10566000000E+00 0. -1.
     999900   -1    0    0    0    0 -0.00000000000E+00 -0.00000000000E+00 -0.74505805969E-08  0.93827000000E+00  0.93827000000E+00 0.  1.
     999902    2    1    2    0    0 -0.47104429042E-02  0.20083067187E-01 -0.12070196373E-01  0.10200300523E+01  0.10197500184E+01 0.  0.
     999903    2    3    3    0    0  0.89669913758E-01  0.48782166489E-01  0.77656462185E-01  0.12998389434E+00  0.21092497918E-01 0.  0.
         14    1    1    2    0    0  0.47104429042E-02 -0.20083067187E-01  0.12070196373E-01  0.23899947709E-01  0.00000000000E+00 0.  1.
     999901    1    3    3    0    0 -0.94380356662E-01 -0.28699099302E-01 -0.89726658558E-01  0.89004615795E+00  0.88000000000E+00 0.  1.
        -11    1    4    4    0    0  0.19542977900E-01  0.18452173284E-01  0.28241929453E-01  0.38990747419E-01  0.51100000000E-03 0.  1.
         11    1    4    4    0    0  0.70126935859E-01  0.30329993205E-01  0.49414532732E-01  0.90993146923E-01  0.51100000000E-03 0. -1.
</event>
<event>
 8    1  0.1183092E+005  0.1043930E+01  0.7957747E-01            NaN
         13   -1    0    0    0    0  0.00000000000E+00  0.00000000000E+00  0.74505805969E-08  0.10566000000E+00  0.10566000000E+00 0. -1.
     999900   -1    0    0    0    0 -0.00000000000E+00 -0.00000000000E+00 -0.74505805969E-08  0.93827000000E+00  0.93827000000E+00 0.  1.
     999902    2    1    2    0    0  0.23305817101E-01  0.50356336165E-02 -0.43881678571E-02  0.10196859340E+01  0.10193976797E+01 0.  0.
     999903    2    3    3    0    0  0.40444681311E-01 -0.12141043650E+00 -0.12018628587E-01  0.13044998491E+00  0.22281938686E-01 0.  0.
         14    1    1    2    0    0 -0.23305817101E-01 -0.50356336165E-02  0.43881678571E-02  0.24244065951E-01  0.00000000000E+00 0.  1.
     999901    1    3    3    0    0 -0.17138864209E-01  0.12644607012E+00  0.76304607296E-02  0.88923594914E+00  0.88000000000E+00 0. -1.
        -11    1    4    4    0    0  0.15248181372E-01 -0.28542518738E-01  0.49439680372E-02  0.32739675503E-01  0.51100000000E-03 0.  1.
         11    1    4    4    0    0  0.25196499939E-01 -0.92867917763E-01 -0.16962596624E-01  0.97710309405E-01  0.51100000000E-03 0. -1.
</event>
<event>
 8    1  0.1183092E+005  0.1043930E+01  0.7957747E-01            NaN
         13   -1    0    0    0    0  0.00000000000E+00  0.00000000000E+00  0.74505805969E-08  0.10566000000E+00  0.10566000000E+00 0.  1.
     999900   -1    0    0    0    0 -0.00000000000E+00 -0.00000000000E+00 -0.74505805969E-08  0.93827000000E+00  0.93827000000E+00 0.  1.
     999902    2    1    2    0    0 -0.14227689479E-01  0.15757095864E-01 -0.71453374333E-02  0.10215297977E+01  0.10212841712E+01 0.  0.
     999903    2    3    3    0    0  0.39678129964E-01  0.30934822149E-01  0.11895094565E+00  0.13077928637E+00  0.20556679062E-01 0.  0.
         14    1    1    2    0    0  0.14227689479E-01 -0.15757095864E-01  0.71453374333E-02  0.22400202343E-01  0.00000000000E+00 0.  1.
     999901    1    3    3    0    0 -0.53905819443E-01 -0.15177726285E-01 -0.12609628308E+00  0.89075051128E+00  0.88000000000E+00 0.  1.
        -11    1    4    4    0    0  0.26325441652E-01  0.21849988242E-01  0.10094547806E+00  0.10658659168E+00  0.51100000000E-03 0.  1.
         11    1    4    4    0    0  0.13352688312E-01  0.90848339072E-02  0.18005467590E-01  0.24192694691E-01  0.51100000000E-03 0. -1.
</event>
<event>
 8    1  0.1183092E+005  0.1043930E+01  0.7957747E-01            NaN
         13   -1    0    0    0    0  0.00000000000E+00  0.00000000000E+00  0.74505805969E-08  0.10566000000E+00  0.10566000000E+00 0.  1.
     999900   -1    0    0    0    0 -0.00000000000E+00 -0.00000000000E+00 -0.74505805969E-08  0.93827000000E+00  0.93827000000E+00 0.  1.
     999902    2    1    2    0    0  0.15176069283E-01  0.11928275240E-01 -0.12354707562E-01  0.10210119803E+01  0.10207547346E+01 0.  0.
     999903    2    3    3    0    0  0.32242067837E-01  0.17085013202E-01 -0.12674628557E+00  0.13342915407E+00  0.20180922600E-01 0.  0.
         14    1    1    2    0    0 -0.15176069283E-01 -0.11928275240E-01  0.12354707562E-01  0.22918019723E-01  0.00000000000E+00 0.  1.
     999901    1    3    3    0    0 -0.17065998554E-01 -0.51567379614E-02  0.11439157801E+00  0.88758282620E+00  0.88000000000E+00 0. -1.
        -11    1    4    4    0    0  0.11009920902E-01 -0.62764300756E-03 -0.62741018750E-01  0.63704857340E-01  0.51100000000E-03 0.  1.
         11    1    4    4    0    0  0.21232146935E-01  0.17712656209E-01 -0.64005266818E-01  0.69724296733E-01  0.51100000000E-03 0. -1.
</event>
<event>
 8    1  0.1183092E+005  0.1043930E+01  0.7957747E-01            NaN
         13   -1    0    0    0    0  0.00000000000E+00  0.00000000000E+00  0.74505805969E-08  0.10566000000E+00  0.10566000000E+00 0.  1.
     999900   -1    0    0    0    0 -0.00000000000E+00 -0.00000000000E+00 -0.74505805969E-08  0.93827000000E+00  0.93827000000E+00 0. -1.
     999902    2    1    2    0    0  0.11635041391E-01  0.15698814979E-01  0.72995169884E-02  0.10230707112E+01  0.10228580401E+01 0.  0.
     999903    2    3    3    0    0 -0.14143359428E-01 -0.71613112346E-01 -0.10697782339E+00  0.13102407056E+00  0.19864035148E-01 0.  0.
         14    1    1    2    0    0 -0.11635041391E-01 -0.15698814979E-01 -0.72995169884E-02  0.20859288775E-01  0.00000000000E+00 0.  1.
     999901    1    3    3    0    0  0.25778400819E-01  0.87311927325E-01  0.11427734038E+00  0.89204664067E+00  0.88000000000E+00 0.  1.
        -11    1    4    4    0    0 -0.54293653623E-02 -0.20856905741E-01 -0.48654499297E-01  0.53216632252E-01  0.51100000000E-03 0.  1.
         11    1    4    4    0    0 -0.87139940654E-02 -0.50756206605E-01 -0.58323324093E-01  0.77807438306E-01  0.51100000000E-03 0. -1.
</event>
<event>
 8    1  0.1183092E+005  0.1043930E+01  0.7957747E-01            NaN
         13   -1    0    0    0    0  0.00000000000E+00  0.00000000000E+00  0.74505805969E-08  0.10566000000E+00  0.10566000000E+00 0. -1.
     999900   -1    0    0    0    0 -0.00000000000E+00 -0.00000000000E+00 -0.74505805969E-08  0.93827000000E+00  0.93827000000E+00 0. -1.
     999902    2    1    2    0    0  0.19559116647E-01  0.80000447165E-02  0.10689056120E-01  0.10202484527E+01  0.10199735730E+01 0.  0.
     999903    2    3    3    0    0  0.36742640725E-01 -0.51687172442E-01  0.11391810748E+00  0.13204010195E+00  0.20872658393E-01 0.  0.
         14    1    1    2    0    0 -0.19559116647E-01 -0.80000447165E-02 -0.10689056120E-01  0.23681547251E-01  0.00000000000E+00 0.  1.
     999901    1    3    3    0    0 -0.17183524079E-01  0.59687217158E-01 -0.10322905136E+00  0.88820835080E+00  0.88000000000E+00 0. -1.
        -11    1    4    4    0    0  0.50759919171E-02 -0.16685172613E-01  0.17629926965E-01  0.24803953815E-01  0.51100000000E-03 0.  1.
         11    1    4    4    0    0  0.31666648808E-01 -0.35001999829E-01  0.96288180512E-01  0.10723614813E+00  0.51100000000E-03 0. -1.
</event>
<event>
 8    1  0.1183092E+005  0.1043930E+01  0.7957747E-01            NaN
         13   -1    0    0    0    0  0.00000000000E+00  0.00000000000E+00  0.74505805969E-08  0.10566000000E+00  0.10566000000E+00 0. -1.
     999900   -1    0    0    0    0 -0.00000000000E+00 -0.00000000000E+00 -0.74505805969E-08  0.93827000000E+00  0.93827000000E+00 0.  1.
     999902    2    1    2    0    0 -0.97622201255E-02 -0.19170169197E-01  0.10305803549E-01  0.10200761551E+01  0.10197972133E+01 0.  0.
     999903    2    3    3    0    0 -0.28242933995E-01 -0.62492078384E-01 -0.10927525659E+00  0.13074047353E+00  0.21191190018E-01 0.  0.
         14    1    1    2    0    0  0.97622201255E-02  0.19170169197E-01 -0.10305803549E-01  0.23853844881E-01  0.00000000000E+00 0. -1.
     999901    1    3    3    0    0  0.18480713870E-01  0.43321909187E-01  0.11958106014E+00  0.88933568159E+00  0.88000000000E+00 0. -1.
        -11    1    4    4    0    0 -0.11466853897E-01 -0.47077244219E-01 -0.81453905865E-01  0.94777400065E-01  0.51100000000E-03 0.  1.
         11    1    4    4    0    0 -0.16776080098E-01 -0.15414834165E-01 -0.27821350728E-01  0.35963073466E-01  0.51100000000E-03 0. -1.
</event>
<event>
 8    1  0.1183092E+005  0.1043930E+01  0.7957747E-01            NaN
         13   -1    0    0    0    0  0.00000000000E+00  0.00000000000E+00  0.74505805969E-08  0.10566000000E+00  0.10566000000E+00 0. -1.
     999900   -1    0    0    0    0 -0.00000000000E+00 -0.00000000000E+00 -0.74505805969E-08  0.93827000000E+00  0.93827000000E+00 0.  1.
     999902    2    1    2    0    0  0.19036405579E-01 -0.79793173467E-02 -0.11493070029E-01  0.10203049095E+01  0.10200313541E+01 0.  0.
     999903    2    3    3    0    0  0.72217204060E-01  0.80404935415E-01  0.70303616490E-01  0.13051242167E+00  0.20263650149E-01 0.  0.
         14    1    1    2    0    0 -0.19036405579E-01  0.79793173467E-02  0.11493070029E-01  0.23625090505E-01  0.00000000000E+00 0.  1.
     999901    1    3    3    0    0 -0.53180798481E-01 -0.88384252761E-01 -0.81796686519E-01  0.88979248782E+00  0.88000000000E+00 0.  1.
        -11    1    4    4    0    0  0.70303598212E-01  0.70703570830E-01  0.60776202881E-01  0.11677156678E+00  0.51100000000E-03 0. -1.
         11    1    4    4    0    0  0.19136058479E-02  0.97013645848E-02  0.95274136092E-02  0.13740854894E-01  0.51100000000E-03 0.  1.
</event>
<event>
 8    1  0.1183092E+005  0.1043930E+01  0.7957747E-01            NaN
         13   -1    0    0    0    0  0.00000000000E+00  0.00000000000E+00  0.74505805969E-08  0.10566000000E+00  0.10566000000E+00 0. -1.
     999900   -1    0    0    0    0 -0.00000000000E+00 -0.00000000000E+00 -0.74505805969E-08  0.93827000000E+00  0.93827000000E+00 0.  1.
     999902    2    1    2    0    0 -0.25043033790E-02  0.11823026459E-01  0.19935098636E-01  0.10206176932E+01  0.10203514160E+01 0.  0.
     999903    2    3    3    0    0 -0.11298944674E+00  0.20290687752E-01 -0.58187764457E-01  0.13023471386E+00  0.19923294817E-01 0.  0.
         14    1    1    2    0    0  0.25043033790E-02 -0.11823026459E-01 -0.19935098636E-01  0.23312306786E-01  0.00000000000E+00 0. -1.
     999901    1    3    3    0    0  0.11048514336E+00 -0.84676612933E-02  0.78122863093E-01  0.89038297936E+00  0.88000000000E+00 0. -1.
        -11    1    4    4    0    0 -0.36090045292E-01 -0.18524201216E-02 -0.13521762345E-01  0.38587847924E-01  0.51100000000E-03 0.  1.
         11    1    4    4    0    0 -0.76899401450E-01  0.22143107874E-01 -0.44666002112E-01  0.91646865933E-01  0.51100000000E-03 0. -1.
</event>
<event>
 8    1  0.1183092E+005  0.1043930E+01  0.7957747E-01            NaN
         13   -1    0    0    0    0  0.00000000000E+00  0.00000000000E+00  0.74505805969E-08  0.10566000000E+00  0.10566000000E+00 0.  1.
     999900   -1    0    0    0    0 -0.00000000000E+00 -0.00000000000E+00 -0.74505805969E-08  0.93827000000E+00  0.93827000000E+00 0. -1.
     999902    2    1    2    0    0 -0.16541205339E-01 -0.11251225406E-01  0.12077981073E-01  0.10205616630E+01  0.10202940894E+01 0.  0.
     999903    2    3    3    0    0 -0.55546516230E-02 -0.34921639856E-01 -0.12329196983E+00  0.12982824806E+00  0.20101967215E-01 0.  0.
         14    1    1    2    0    0  0.16541205339E-01  0.11251225406E-01 -0.12077981073E-01  0.23368336997E-01  0.00000000000E+00 0.  1.
     999901    1    3    3    0    0 -0.10986553716E-01  0.23670414450E-01  0.13536995090E+00  0.89073341494E+00  0.88000000000E+00 0.  1.
        -11    1    4    4    0    0 -0.11053946492E-01 -0.97405135905E-02 -0.50400909311E-01  0.52512666267E-01  0.51100000000E-03 0. -1.
         11    1    4    4    0    0  0.54992948695E-02 -0.25181126266E-01 -0.72891060518E-01  0.77315581796E-01  0.51100000000E-03 0.  1.
</event>
<event>
 8    1  0.1183092E+005  0.1043930E+01  0.7957747E-01            NaN
         13   -1    0    0    0    0  0.00000000000E+00  0.00000000000E+00  0.74505805969E-08  0.10566000000E+00  0.10566000000E+00 0. -1.
     999900   -1    0    0    0    0 -0.00000000000E+00 -0.00000000000E+00 -0.74505805969E-08  0.93827000000E+00  0.93827000000E+00 0.  1.
     999902    2    1    2    0    0 -0.15791563562E-01 -0.16148165255E-01 -0.57473138055E-02  0.10206240279E+01  0.10203578970E+01 0.  0.
     999903    2    3    3    0    0  0.60263467340E-01 -0.39167802699E-02  0.11227586952E+00  0.12940943738E+00  0.22223972256E-01 0.  0.
         14    1    1    2    0    0  0.15791563562E-01  0.16148165255E-01  0.57473138055E-02  0.23305972128E-01  0.00000000000E+00 0. -1.
     999901    1    3    3    0    0 -0.76055030902E-01 -0.12231384985E-01 -0.11802318333E+00  0.89121459049E+00  0.88000000000E+00 0.  1.
        -11    1    4    4    0    0  0.22590765338E-01  0.71735510646E-02  0.55721571620E-01  0.60555405854E-01  0.51100000000E-03 0. -1.
         11    1    4    4    0    0  0.37672702001E-01 -0.11090331335E-01  0.56554297901E-01  0.68854031525E-01  0.51100000000E-03 0.  1.
</event>
<event>
 8    1  0.1183092E+005  0.1043930E+01  0.7957747E-01            NaN
         13   -1    0    0    0    0  0.00000000000E+00  0.00000000000E+00  0.74505805969E-08  0.10566000000E+00  0.10566000000E+00 0. -1.
     999900   -1    0    0    0    0 -0.00000000000E+00 -0.00000000000E+00 -0.74505805969E-08  0.93827000000E+00  0.93827000000E+00 0.  1.
     999902    2    1    2    0    0 -0.10398829396E-01  0.19188870806E-01 -0.10778439472E-01  0.10195882011E+01  0.10192975899E+01 0.  0.
     999903    2    3    3    0    0 -0.90237350173E-01 -0.67131916936E-03  0.90875191108E-01  0.12992417624E+00  0.21880611885E-01 0.  0.
         14    1    1    2    0    0  0.10398829396E-01 -0.19188870806E-01  0.10778439472E-01  0.24341798887E-01  0.00000000000E+00 0. -1.
     999901    1    3    3    0    0  0.79838520777E-01  0.19860189976E-01 -0.10165363058E+00  0.88966402487E+00  0.88000000000E+00 0.  1.
        -11    1    4    4    0    0 -0.38795584008E-01  0.15247047307E-03  0.24284610939E-01  0.45772524895E-01  0.51100000000E-03 0. -1.
         11    1    4    4    0    0 -0.51441766165E-01 -0.82378964243E-03  0.66590580169E-01  0.84151651343E-01  0.51100000000E-03 0.  1.
</event>
<event>
 8    1  0.1183092E+005  0.1043930E+01  0.7957747E-01            NaN
         13   -1    0    0    0    0  0.00000000000E+00  0.00000000000E+00  0.74505805969E-08  0.10566000000E+00  0.10566000000E+00 0. -1.
     999900   -1    0    0    0    0 -0.00000000000E+00 -0.00000000000E+00 -0.74505805969E-08  0.93827000000E+00  0.93827000000E+00 0.  1.
     999902    2    1    2    0    0 -0.15450935716E-01 -0.15906188950E-01 -0.91394406999E-02  0.10199452624E+01  0.10196632143E+01 0.  0.
     999903    2    3    3    0    0  0.12502825665E+00 -0.20313755646E-01  0.10756634028E-01  0.12857009788E+00  0.19231517466E-01 0.  0.
         14    1    1    2    0    0  0.15450935716E-01  0.15906188950E-01  0.91394406999E-02  0.23984737600E-01  0.00000000000E+00 0. -1.
     999901    1    3    3    0    0 -0.14047919237E+00  0.44075666961E-02 -0.19896074728E-01  0.89137516452E+00  0.88000000000E+00 0. -1.
        -11    1    4    4    0    0  0.47390879462E-01 -0.20214226710E-02 -0.34012471508E-02  0.47558503015E-01  0.51100000000E-03 0. -1.
         11    1    4    4    0    0  0.77637377188E-01 -0.18292332975E-01  0.14157881179E-01  0.81011594866E-01  0.51100000000E-03 0.  1.
</event>
<event>
 8    1  0.1183092E+005  0.1043930E+01  0.7957747E-01            NaN
         13   -1    0    0    0    0  0.00000000000E+00  0.00000000000E+00  0.74505805969E-08  0.10566000000E+00  0.10566000000E+00 0.  1.
     999900   -1    0    0    0    0 -0.00000000000E+00 -0.00000000000E+00 -0.74505805969E-08  0.93827000000E+00  0.93827000000E+00 0.  1.
     999902    2    1    2    0    0  0.18236018688E-01  0.15934459150E-01 -0.27236349890E-03  0.10197115453E+01  0.10194239070E+01 0.  0.
     999903    2    3    3    0    0 -0.78985568124E-01  0.31880859956E-01 -0.95081567107E-01  0.12915267037E+00  0.19616285475E-01 0.  0.
         14    1    1    2    0    0 -0.18236018688E-01 -0.15934459150E-01  0.27236349890E-03  0.24218454696E-01  0.00000000000E+00 0.  1.
     999901    1    3    3    0    0  0.97221586812E-01 -0.15946400806E-01  0.94809203608E-01  0.89055887494E+00  0.88000000000E+00 0. -1.
        -11    1    4    4    0    0 -0.56484258874E-01  0.13317855825E-01 -0.67289823123E-01  0.88859541982E-01  0.51100000000E-03 0.  1.
         11    1    4    4    0    0 -0.22501309250E-01  0.18563004131E-01 -0.27791743984E-01  0.40293128385E-01  0.51100000000E-03 0. -1.
</event>
<event>
 8    1  0.1183092E+005  0.1043930E+01  0.7957747E-01            NaN
         13   -1    0    0    0    0  0.00000000000E+00  0.00000000000E+00  0.74505805969E-08  0.10566000000E+00  0.10566000000E+00 0. -1.
     999900   -1    0    0    0    0 -0.00000000000E+00 -0.00000000000E+00 -0.74505805969E-08  0.93827000000E+00  0.93827000000E+00 0.  1.
     999902    2    1    2    0    0  0.78183181293E-02  0.20674916043E-01  0.61493175683E-02  0.10209867579E+01  0.10207289393E+01 0.  0.
     999903    2    3    3    0    0 -0.33872909870E-01  0.12569684280E+00  0.22324655654E-01  0.13361456701E+00  0.20183952864E-01 0.  0.
         14    1    1    2    0    0 -0.78183181293E-02 -0.20674916043E-01 -0.61493175683E-02  0.22943242106E-01  0.00000000000E+00 0.  1.
     999901    1    3    3    0    0  0.41691228000E-01 -0.10502192676E+00 -0.16175338086E-01  0.88737219088E+00  0.88000000000E+00 0.  1.
        -11    1    4    4    0    0 -0.16247055552E-01  0.59603460587E-01  0.20815747693E-01  0.65192758808E-01  0.51100000000E-03 0.  1.
         11    1    4    4    0    0 -0.17625854318E-01  0.66093382217E-01  0.15089079616E-02  0.68421808202E-01  0.51100000000E-03 0. -1.
</event>
<event>
 8    1  0.1183092E+005  0.1043930E+01  0.7957747E-01            NaN
         13   -1    0    0    0    0  0.00000000000E+00  0.00000000000E+00  0.74505805969E-08  0.10566000000E+00  0.10566000000E+00 0. -1.
     999900   -1    0    0    0    0 -0.00000000000E+00 -0.00000000000E+00 -0.74505805969E-08  0.93827000000E+00  0.93827000000E+00 0.  1.
     999902    2    1    2    0    0  0.28270823614E-02 -0.21101781050E-01  0.10506586772E-01  0.10201883504E+01  0.10199120572E+01 0.  0.
     999903    2    3    3    0    0 -0.12447506250E+00  0.28797002179E-01  0.40862746011E-02  0.12960598757E+00  0.21394061195E-01 0.  0.
         14    1    1    2    0    0 -0.28270823614E-02  0.21101781050E-01 -0.10506586772E-01  0.23741649559E-01  0.00000000000E+00 0.  1.
     999901    1    3    3    0    0  0.12730214486E+00 -0.49898783230E-01  0.64203121708E-02  0.89058236287E+00  0.88000000000E+00 0.  1.
        -11    1    4    4    0    0 -0.82495698317E-01  0.85740372124E-02  0.28052479930E-02  0.82989064895E-01  0.51100000000E-03 0. -1.
         11    1    4    4    0    0 -0.41979364182E-01  0.20222964967E-01  0.12810266082E-02  0.46616922672E-01  0.51100000000E-03 0.  1.
</event>
<event>
 8    1  0.1183092E+005  0.1043930E+01  0.7957747E-01            NaN
         13   -1    0    0    0    0  0.00000000000E+00  0.00000000000E+00  0.74505805969E-08  0.10566000000E+00  0.10566000000E+00 0.  1.
     999900   -1    0    0    0    0 -0.00000000000E+00 -0.00000000000E+00 -0.74505805969E-08  0.93827000000E+00  0.93827000000E+00 0. -1.
     999902    2    1    2    0    0  0.23578208560E-01 -0.21277415389E-01  0.69472994775E-02  0.10114196125E+01  0.10108969815E+01 0.  0.
     999903    2    3    3    0    0 -0.35611450769E-01 -0.84615135438E-01 -0.79017571802E-01  0.12299120141E+00  0.21334535402E-01 0.  0.
         14    1    1    2    0    0 -0.23578208560E-01  0.21277415389E-01 -0.69472994775E-02  0.32510387487E-01  0.00000000000E+00 0. -1.
     999901    1    3    3    0    0  0.59189659330E-01  0.63337720048E-01  0.85964871280E-01  0.88842841110E+00  0.88000000000E+00 0.  1.
        -11    1    4    4    0    0 -0.22958117532E-01 -0.47561820501E-01 -0.58389692699E-01  0.78732580706E-01  0.51100000000E-03 0. -1.
         11    1    4    4    0    0 -0.12653333237E-01 -0.37053314936E-01 -0.20627879103E-01  0.44258620709E-01  0.51100000000E-03 0.  1.
</event>
<event>
 8    1  0.1183092E+005  0.1043930E+01  0.7957747E-01            NaN
         13   -1    0    0    0    0  0.00000000000E+00  0.00000000000E+00  0.74505805969E-08  0.10566000000E+00  0.10566000000E+00 0. -1.
     999900   -1    0    0    0    0 -0.00000000000E+00 -0.00000000000E+00 -0.74505805969E-08  0.93827000000E+00  0.93827000000E+00 0.  1.
     999902    2    1    2    0    0  0.81808593494E-02  0.22019430141E-01 -0.55729592059E-02  0.10197879281E+01  0.10195021229E+01 0.  0.
     999903    2    3    3    0    0  0.28493239787E-01  0.12272783956E+00  0.36821083450E-01  0.13279749328E+00  0.20134416280E-01 0.  0.
         14    1    1    2    0    0 -0.81808593494E-02 -0.22019430141E-01  0.55729592059E-02  0.24142071944E-01  0.00000000000E+00 0.  1.
     999901    1    3    3    0    0 -0.20312380438E-01 -0.10070840942E+00 -0.42394042656E-01  0.88699043477E+00  0.88000000000E+00 0.  1.
        -11    1    4    4    0    0  0.26452003650E-01  0.10601736830E+00  0.38543083146E-01  0.11586725706E+00  0.51100000000E-03 0. -1.
         11    1    4    4    0    0  0.20412361377E-02  0.16710471261E-01 -0.17219996966E-02  0.16930236226E-01  0.51100000000E-03 0.  1.
</event>
<event>
 8    1  0.1183092E+005  0.1043930E+01  0.7957747E-01            NaN
         13   -1    0    0    0    0  0.00000000000E+00  0.00000000000E+00  0.74505805969E-08  0.10566000000E+00  0.10566000000E+00 0. -1.
     999900   -1    0    0    0    0 -0.00000000000E+00 -0.00000000000E+00 -0.74505805969E-08  0.93827000000E+00  0.93827000000E+00 0.  1.
     999902    2    1    2    0    0 -0.79969949020E-02  0.18757201203E-01  0.10310431957E-01  0.10210807214E+01  0.10208250340E+01 0.  0.
     999903    2    3    3    0    0 -0.12833867119E+00  0.31912941767E-02  0.26426157839E-01  0.13260779942E+00  0.20136726795E-01 0.  0.
         14    1    1    2    0    0  0.79969949020E-02 -0.18757201203E-01 -0.10310431957E-01  0.22849278579E-01  0.00000000000E+00 0.  1.
     999901    1    3    3    0    0  0.12034167629E+00  0.15565907026E-01 -0.16115725882E-01  0.88847292200E+00  0.88000000000E+00 0. -1.
        -11    1    4    4    0    0 -0.19595801827E-01  0.67693665666E-02  0.81411609879E-02  0.22279124672E-01  0.51100000000E-03 0.  1.
         11    1    4    4    0    0 -0.10874286937E+00 -0.35780723899E-02  0.18284996851E-01  0.11032867474E+00  0.51100000000E-03 0. -1.
</event>
<event>
 8    1  0.1183092E+005  0.1043930E+01  0.7957747E-01            NaN
         13   -1    0    0    0    0  0.00000000000E+00  0.00000000000E+00  0.74505805969E-08  0.10566000000E+00  0.10566000000E+00 0. -1.
     999900   -1    0    0    0    0 -0.00000000000E+00 -0.00000000000E+00 -0.74505805969E-08  0.93827000000E+00  0.93827000000E+00 0.  1.
     999902    2    1    2    0    0 -0.17478519417E-01 -0.10797541837E-01  0.10112218455E-01  0.10210314736E+01  0.10207746703E+01 0.  0.
     999903    2    3    3    0    0  0.85171023880E-01  0.88471029605E-01  0.34607644508E-01  0.12918439928E+00  0.20240888588E-01 0.  0.
         14    1    1    2    0    0  0.17478519417E-01  0.10797541837E-01 -0.10112218455E-01  0.22898526433E-01  0.00000000000E+00 0. -1.
     999901    1    3    3    0    0 -0.10264954330E+00 -0.99268571442E-01 -0.24495426053E-01  0.89184707429E+00  0.88000000000E+00 0.  1.
        -11    1    4    4    0    0  0.62007426975E-01  0.52232529771E-01  0.27342468532E-01  0.85563016968E-01  0.51100000000E-03 0. -1.
         11    1    4    4    0    0  0.23163596905E-01  0.36238499835E-01  0.72651759755E-02  0.43621382312E-01  0.51100000000E-03 0.  1.
</event>
<event>
 8    1  0.1183092E+005  0.1043930E+01  0.7957747E-01            NaN
         13   -1    0    0    0    0  0.00000000000E+00  0.00000000000E+00  0.74505805969E-08  0.10566000000E+00  0.10566000000E+00 0. -1.
     999900   -1    0    0    0    0 -0.00000000000E+00 -0.00000000000E+00 -0.74505805969E-08  0.93827000000E+00  0.93827000000E+00 0. -1.
     999902    2    1    2    0    0  0.20301614783E-02 -0.19514783693E-01  0.12460479190E-01  0.10206875414E+01  0.10204228758E+01 0.  0.
     999903    2    3    3    0    0 -0.91429549734E-01  0.88392711979E-01 -0.79031536963E-02  0.12895135692E+00  0.19833267942E-01 0.  0.
         14    1    1    2    0    0 -0.20301614783E-02  0.19514783693E-01 -0.12460479190E-01  0.23242458559E-01  0.00000000000E+00 0.  1.
     999901    1    3    3    0    0  0.93459711212E-01 -0.10790749567E+00  0.20363632887E-01  0.89173618452E+00  0.88000000000E+00 0.  1.
        -11    1    4    4    0    0 -0.20375610267E-01  0.30329462527E-01 -0.68789826926E-02  0.37183643109E-01  0.51100000000E-03 0.  1.
         11    1    4    4    0    0 -0.71053939467E-01  0.58063249451E-01 -0.10241710037E-02  0.91767713810E-01  0.51100000000E-03 0. -1.
</event>
<event>
 7    1  0.1183092E+005  0.1043930E+01  0.7957747E-01            NaN
         13   -1    0    0    0    0  0.00000000000E+00  0.00000000000E+00  0.74505805969E-08  0.10566000000E+00  0.10566000000E+00 0.  1.
     999900   -1    0    0    0    0 -0.00000000000E+00 -0.00000000000E+00 -0.74505805969E-08  0.93827000000E+00  0.93827000000E+00 0.  1.
     999903    2    1    2    0    0 -0.78384517353E-01 -0.67002905254E-01 -0.26157556398E-01  0.10830919141E+00  0.20325877964E-01 0.  0.
         14    1    1    2    0    0 -0.36897016234E-01 -0.21357183923E-01  0.88774694715E-02  0.43546854954E-01  0.00000000000E+00 0.  1.
     999901    1    1    2    0    0  0.11528153359E+00  0.88360089177E-01  0.17280086926E-01  0.89207395363E+00  0.88000000000E+00 0.  1.
        -11    1    3    3    0    0 -0.43242031751E-01 -0.28468976102E-01 -0.49615733275E-02  0.52011866350E-01  0.51100000000E-03 0.  1.
         11    1    3    3    0    0 -0.35142485601E-01 -0.38533929151E-01 -0.21195983070E-01  0.56297325064E-01  0.51100000000E-03 0. -1.
</event>
<event>
 8    1  0.1183092E+005  0.1043930E+01  0.7957747E-01            NaN
         13   -1    0    0    0    0  0.00000000000E+00  0.00000000000E+00  0.74505805969E-08  0.10566000000E+00  0.10566000000E+00 0.  1.
     999900   -1    0    0    0    0 -0.00000000000E+00 -0.00000000000E+00 -0.74505805969E-08  0.93827000000E+00  0.93827000000E+00 0. -1.
     999902    2    1    2    0    0  0.21498487941E-01 -0.50361591713E-02 -0.10902007823E-01  0.10193047760E+01  0.10190072741E+01 0.  0.
     999903    2    3    3    0    0  0.16223142177E-01  0.66718150102E-01  0.10681416262E+00  0.12855587369E+00  0.20071009633E-01 0.  0.
         14    1    1    2    0    0 -0.21498487941E-01  0.50361591713E-02  0.10902007823E-01  0.24625224010E-01  0.00000000000E+00 0. -1.
     999901    1    3    3    0    0  0.52753457645E-02 -0.71754309273E-01 -0.11771617044E+00  0.89074890230E+00  0.88000000000E+00 0. -1.
        -11    1    4    4    0    0  0.40276120348E-02  0.41262142501E-01  0.48783410040E-01  0.64022404505E-01  0.51100000000E-03 0.  1.
         11    1    4    4    0    0  0.12195530142E-01  0.25456007600E-01  0.58030752581E-01  0.64533469181E-01  0.51100000000E-03 0. -1.
</event>
<event>
 8    1  0.1183092E+005  0.1043930E+01  0.7957747E-01            NaN
         13   -1    0    0    0    0  0.00000000000E+00  0.00000000000E+00  0.74505805969E-08  0.10566000000E+00  0.10566000000E+00 0.  1.
     999900   -1    0    0    0    0 -0.00000000000E+00 -0.00000000000E+00 -0.74505805969E-08  0.93827000000E+00  0.93827000000E+00 0. -1.
     999902    2    1    2    0    0 -0.17254293829E-01  0.90754114509E-02 -0.22303604956E-02  0.10243073535E+01  0.10241193808E+01 0.  0.
     999903    2    3    3    0    0  0.72324455441E-02  0.57427612462E-01 -0.12021580846E+00  0.13478045581E+00  0.19070703250E-01 0.  0.
         14    1    1    2    0    0  0.17254293829E-01 -0.90754114509E-02  0.22303604956E-02  0.19622646521E-01  0.00000000000E+00 0.  1.
     999901    1    3    3    0    0 -0.24486739373E-01 -0.48352201012E-01  0.11798544797E+00  0.88952689767E+00  0.88000000000E+00 0.  1.
        -11    1    4    4    0    0  0.22839641202E-02  0.11498954201E-01 -0.45047502782E-01  0.46550843899E-01  0.51100000000E-03 0. -1.
         11    1    4    4    0    0  0.49484814239E-02  0.45928658262E-01 -0.75168305678E-01  0.88229611909E-01  0.51100000000E-03 0.  1.
</event>
<event>
 8    1  0.1183092E+005  0.1043930E+01  0.7957747E-01            NaN
         13   -1    0    0    0    0  0.00000000000E+00  0.00000000000E+00  0.74505805969E-08  0.10566000000E+00  0.10566000000E+00 0. -1.
     999900   -1    0    0    0    0 -0.00000000000E+00 -0.00000000000E+00 -0.74505805969E-08  0.93827000000E+00  0.93827000000E+00 0. -1.
     999902    2    1    2    0    0 -0.11453783572E-01  0.24612946520E-01  0.60660937973E-05  0.10167825078E+01  0.10164200322E+01 0.  0.
     999903    2    3    3    0    0 -0.10296629931E+00  0.22966620994E-01 -0.71827713216E-01  0.12912415983E+00  0.19603667788E-01 0.  0.
         14    1    1    2    0    0  0.11453783572E-01 -0.24612946520E-01 -0.60660937973E-05  0.27147492174E-01  0.00000000000E+00 0. -1.
     999901    1    3    3    0    0  0.91512515741E-01  0.16463255263E-02  0.71833779310E-01  0.88765834800E+00  0.88000000000E+00 0.  1.
        -11    1    4    4    0    0 -0.79903420182E-01  0.15944819872E-01 -0.64506370661E-01  0.10392365859E+00  0.51100000000E-03 0.  1.
         11    1    4    4    0    0 -0.23062879131E-01  0.70218011215E-02 -0.73213425552E-02  0.25200501237E-01  0.51100000000E-03 0. -1.
</event>
<event>
 8    1  0.1183092E+005  0.1043930E+01  0.7957747E-01            NaN
         13   -1    0    0    0    0  0.00000000000E+00  0.00000000000E+00  0.74505805969E-08  0.10566000000E+00  0.10566000000E+00 0.  1.
     999900   -1    0    0    0    0 -0.00000000000E+00 -0.00000000000E+00 -0.74505805969E-08  0.93827000000E+00  0.93827000000E+00 0.  1.
     999902    2    1    2    0    0  0.19193415667E-01  0.14754187455E-01 -0.12637522173E-02  0.10196880875E+01  0.10193998850E+01 0.  0.
     999903    2    3    3    0    0 -0.20864121660E-03 -0.80819654101E-01 -0.98633932527E-01  0.12896268030E+00  0.19257732067E-01 0.  0.
         14    1    1    2    0    0 -0.19193415667E-01 -0.14754187455E-01  0.12637522173E-02  0.24241912509E-01  0.00000000000E+00 0.  1.
     999901    1    3    3    0    0  0.19402056883E-01  0.95573841556E-01  0.97370180310E-01  0.89072540719E+00  0.88000000000E+00 0. -1.
        -11    1    4    4    0    0 -0.15260187519E-02 -0.52372329546E-01 -0.49009386573E-01  0.71745179131E-01  0.51100000000E-03 0.  1.
         11    1    4    4    0    0  0.13173775353E-02 -0.28447324555E-01 -0.49624545954E-01  0.57217501170E-01  0.51100000000E-03 0. -1.
</event>
<event>
 8    1  0.1183092E+005  0.1043930E+01  0.7957747E-01            NaN
         13   -1    0    0    0    0  0.00000000000E+00  0.00000000000E+00  0.74505805969E-08  0.10566000000E+00  0.10566000000E+00 0. -1.
     999900   -1    0    0    0    0 -0.00000000000E+00 -0.00000000000E+00 -0.74505805969E-08  0.93827000000E+00  0.93827000000E+00 0.  1.
     999902    2    1    2    0    0 -0.71994889468E-02  0.22294037740E-01 -0.14251851480E-01  0.10165078916E+01  0.10161379442E+01 0.  0.
     999903    2    3    3    0    0  0.21263262872E-01 -0.11067756565E+00  0.47918723986E-01  0.12389557035E+00  0.18768547005E-01 0.  0.
         14    1    1    2    0    0  0.71994889468E-02 -0.22294037740E-01  0.14251851480E-01  0.27422108424E-01  0.00000000000E+00 0. -1.
     999901    1    3    3    0    0 -0.28462751819E-01  0.13297160339E+00 -0.62170575466E-01  0.89261232123E+00  0.88000000000E+00 0.  1.
        -11    1    4    4    0    0  0.85677608102E-02 -0.59662141198E-01  0.15896840149E-01  0.62337374547E-01  0.51100000000E-03 0.  1.
         11    1    4    4    0    0  0.12695502062E-01 -0.51015424457E-01  0.32021883837E-01  0.61558195803E-01  0.51100000000E-03 0. -1.
</event>
<event>
 8    1  0.1183092E+005  0.1043930E+01  0.7957747E-01            NaN
         13   -1    0    0    0    0  0.00000000000E+00  0.00000000000E+00  0.74505805969E-08  0.10566000000E+00  0.10566000000E+00 0. -1.
     999900   -1    0    0    0    0 -0.00000000000E+00 -0.00000000000E+00 -0.74505805969E-08  0.93827000000E+00  0.93827000000E+00 0.  1.
     999902    2    1    2    0    0  0.13615608202E-02 -0.55206744166E-03  0.33581252251E-01  0.10103166228E+01  0.10097573070E+01 0.  0.
     999903    2    3    3    0    0  0.19750374268E-01  0.82267858686E-01  0.88960493727E-01  0.12450391739E+00  0.20716615171E-01 0.  0.
         14    1    1    2    0    0 -0.13615608202E-02  0.55206744166E-03 -0.33581252251E-01  0.33613377234E-01  0.00000000000E+00 0.  1.
     999901    1    3    3    0    0 -0.18388813447E-01 -0.82819926127E-01 -0.55379241476E-01  0.88581270538E+00  0.88000000000E+00 0.  1.
        -11    1    4    4    0    0  0.26829332241E-02  0.48840575285E-01  0.57786381320E-01  0.75710811064E-01  0.51100000000E-03 0.  1.
         11    1    4    4    0    0  0.17067441044E-01  0.33427283401E-01  0.31174112407E-01  0.48793106324E-01  0.51100000000E-03 0. -1.
</event>
<event>
 8    1  0.1183092E+005  0.1043930E+01  0.7957747E-01            NaN
         13   -1    0    0    0    0  0.00000000000E+00  0.00000000000E+00  0.74505805969E-08  0.10566000000E+00  0.10566000000E+00 0. -1.
     999900   -1    0    0    0    0 -0.00000000000E+00 -0.00000000000E+00 -0.74505805969E-08  0.93827000000E+00  0.93827000000E+00 0.  1.
     999902    2    1    2    0    0  0.88427131474E-02 -0.26975308679E-02  0.22071270849E-01  0.10200007032E+01  0.10197199730E+01 0.  0.
     999903    2    3    3    0    0  0.12306193075E+00  0.34256732983E-01 -0.19531429852E-01  0.13087617199E+00  0.20720354478E-01 0.  0.
         14    1    1    2    0    0 -0.88427131474E-02  0.26975308679E-02 -0.22071270849E-01  0.23929296803E-01  0.00000000000E+00 0.  1.
     999901    1    3    3    0    0 -0.11421921760E+00 -0.36954263851E-01  0.41602700701E-01  0.88912453121E+00  0.88000000000E+00 0.  1.
        -11    1    4    4    0    0  0.62942935086E-01  0.23817990050E-01 -0.17729736089E-02  0.67323950298E-01  0.51100000000E-03 0.  1.
         11    1    4    4    0    0  0.60118995659E-01  0.10438742933E-01 -0.17758456243E-01  0.63552221694E-01  0.51100000000E-03 0. -1.
</event>
<event>
 8    1  0.1183092E+005  0.1043930E+01  0.7957747E-01            NaN
         13   -1    0    0    0    0  0.00000000000E+00  0.00000000000E+00  0.74505805969E-08  0.10566000000E+00  0.10566000000E+00 0. -1.
     999900   -1    0    0    0    0 -0.00000000000E+00 -0.00000000000E+00 -0.74505805969E-08  0.93827000000E+00  0.93827000000E+00 0.  1.
     999902    2    1    2    0    0  0.16263107118E-02 -0.12891162816E-01 -0.20117280839E-01  0.10199814728E+01  0.10197002858E+01 0.  0.
     999903    2    3    3    0    0  0.75030380439E-01  0.98912456352E-01  0.25907272211E-01  0.12868664720E+00  0.21813628848E-01 0.  0.
         14    1    1    2    0    0 -0.16263107118E-02  0.12891162816E-01  0.20117280839E-01  0.23948527170E-01  0.00000000000E+00 0. -1.
     999901    1    3    3    0    0 -0.73404069728E-01 -0.11180361917E+00 -0.46024553050E-01  0.89129482563E+00  0.88000000000E+00 0.  1.
        -11    1    4    4    0    0  0.53557187890E-02  0.16282182697E-01  0.87364386338E-02  0.19245250794E-01  0.51100000000E-03 0.  1.
         11    1    4    4    0    0  0.69674661650E-01  0.82630273655E-01  0.17170833577E-01  0.10944139641E+00  0.51100000000E-03 0. -1.
</event>
<event>
 8    1  0.1183092E+005  0.1043930E+01  0.7957747E-01            NaN
         13   -1    0    0    0    0  0.00000000000E+00  0.00000000000E+00  0.74505805969E-08  0.10566000000E+00  0.10566000000E+00 0. -1.
     999900   -1    0    0    0    0 -0.00000000000E+00 -0.00000000000E+00 -0.74505805969E-08  0.93827000000E+00  0.93827000000E+00 0. -1.
     999902    2    1    2    0    0  0.21093669271E-01 -0.14334778126E-01 -0.10747944424E-02  0.10184038579E+01  0.10180839032E+01 0.  0.
     999903    2    3    3    0    0  0.10938089294E+00 -0.54219941486E-02  0.69194184811E-01  0.13115428702E+00  0.20494731800E-01 0.  0.
         14    1    1    2    0    0 -0.21093669271E-01  0.14334778126E-01  0.10747944424E-02  0.25526142097E-01  0.00000000000E+00 0. -1.
     999901    1    3    3    0    0 -0.88287223671E-01 -0.89127839776E-02 -0.70268979253E-01  0.88724957088E+00  0.88000000000E+00 0. -1.
        -11    1    4    4    0    0  0.43814582300E-01  0.72763481938E-02  0.31627094838E-01  0.54527031040E-01  0.51100000000E-03 0.  1.
         11    1    4    4    0    0  0.65566310642E-01 -0.12698342342E-01  0.37567089973E-01  0.76627255983E-01  0.51100000000E-03 0. -1.
</event>
<event>
 8    1  0.1183092E+005  0.1043930E+01  0.7957747E-01            NaN
         13   -1    0    0    0    0  0.00000000000E+00  0.00000000000E+00  0.74505805969E-08  0.10566000000E+00  0.10566000000E+00 0. -1.
     999900   -1    0    0    0    0 -0.00000000000E+00 -0.00000000000E+00 -0.74505805969E-08  0.93827000000E+00  0.93827000000E+00 0.  1.
     999902    2    1    2    0    0  0.75027326160E-02  0.23966029937E-01  0.18450123542E-02  0.10187493396E+01  0.10184380940E+01 0.  0.
     999903    2    3    3    0    0 -0.77377157266E-01 -0.73290791267E-01 -0.65599154599E-01  0.12677837559E+00  0.20266792598E-01 0.  0.
         14    1    1    2    0    0 -0.75027326160E-02 -0.23966029937E-01 -0.18450123542E-02  0.25180660401E-01  0.00000000000E+00 0.  1.
     999901    1    3    3    0    0  0.84879889882E-01  0.97256821204E-01  0.67444166954E-01  0.89197096401E+00  0.88000000000E+00 0. -1.
        -11    1    4    4    0    0 -0.36176203730E-01 -0.47341348815E-01 -0.32167999875E-01  0.67712350136E-01  0.51100000000E-03 0.  1.
         11    1    4    4    0    0 -0.41200953536E-01 -0.25949442451E-01 -0.33431154725E-01  0.59066025455E-01  0.51100000000E-03 0. -1.
</event>
<event>
 8    1  0.1183092E+005  0.1043930E+01  0.7957747E-01            NaN
         13   -1    0    0    0    0  0.00000000000E+00  0.00000000000E+00  0.74505805969E-08  0.10566000000E+00  0.10566000000E+00 0.  1.
     999900   -1    0    0    0    0 -0.00000000000E+00 -0.00000000000E+00 -0.74505805969E-08  0.93827000000E+00  0.93827000000E+00 0. -1.
     999902    2    1    2    0    0 -0.23289880362E-02  0.17420713428E-01  0.15351786109E-01  0.10205937026E+01  0.10203268706E+01 0.  0.
     999903    2    3    3    0    0 -0.11482371185E+00  0.28753731130E-01  0.56111694415E-01  0.13242430976E+00  0.19401384193E-01 0.  0.
         14    1    1    2    0    0  0.23289880362E-02 -0.17420713428E-01 -0.15351786109E-01  0.23336297443E-01  0.00000000000E+00 0. -1.
     999901    1    3    3    0    0  0.11249472381E+00 -0.11333017702E-01 -0.40759908306E-01  0.88816939280E+00  0.88000000000E+00 0.  1.
        -11    1    4    4    0    0 -0.47389892343E-01  0.21080593822E-01  0.28183848344E-01  0.59032057059E-01  0.51100000000E-03 0. -1.
         11    1    4    4    0    0 -0.67433819507E-01  0.76731373083E-02  0.27927846071E-01  0.73392252701E-01  0.51100000000E-03 0.  1.
</event>
<event>
 8    1  0.1183092E+005  0.1043930E+01  0.7957747E-01            NaN
         13   -1    0    0    0    0  0.00000000000E+00  0.00000000000E+00  0.74505805969E-08  0.10566000000E+00  0.10566000000E+00 0.  1.
     999900   -1    0    0    0    0 -0.00000000000E+00 -0.00000000000E+00 -0.74505805969E-08  0.93827000000E+00  0.93827000000E+00 0. -1.
     999902    2    1    2    0    0  0.22446544330E-01  0.60002283354E-02  0.19266243345E-02  0.10206155844E+01  0.10203492584E+01 0.  0.
     999903    2    3    3    0    0  0.75474301544E-01 -0.96249012781E-01 -0.45272766361E-01  0.13185541833E+00  0.19390340767E-01 0.  0.
         14    1    1    2    0    0 -0.22446544330E-01 -0.60002283354E-02 -0.19266243345E-02  0.23314415578E-01  0.00000000000E+00 0. -1.
     999901    1    3    3    0    0 -0.53027757214E-01  0.10224924112E+00  0.47199390695E-01  0.88876016609E+00  0.88000000000E+00 0.  1.
        -11    1    4    4    0    0  0.51429843103E-01 -0.69992623327E-01 -0.22979443111E-01  0.89846046148E-01  0.51100000000E-03 0.  1.
         11    1    4    4    0    0  0.24044458441E-01 -0.26256389454E-01 -0.22293323250E-01  0.42009372185E-01  0.51100000000E-03 0. -1.
</event>
<event>
 8    1  0.1183092E+005  0.1043930E+01  0.7957747E-01            NaN
         13   -1    0    0    0    0  0.00000000000E+00  0.00000000000E+00  0.74505805969E-08  0.10566000000E+00  0.10566000000E+00 0.  1.
     999900   -1    0    0    0    0 -0.00000000000E+00 -0.00000000000E+00 -0.74505805969E-08  0.93827000000E+00  0.93827000000E+00 0. -1.
     999902    2    1    2    0    0 -0.18160234371E-02  0.11082918578E-01 -0.23162685080E-01  0.10181882245E+01  0.10178627715E+01 0.  0.
     999903    2    3    3    0    0  0.11518394434E+00  0.35809205754E-01  0.37952148064E-01  0.12799981492E+00  0.19848093747E-01 0.  0.
         14    1    1    2    0    0  0.18160234371E-02 -0.11082918578E-01  0.23162685080E-01  0.25741775491E-01  0.00000000000E+00 0.  1.
     999901    1    3    3    0    0 -0.11699996778E+00 -0.24726287176E-01 -0.61114833144E-01  0.89018840959E+00  0.88000000000E+00 0. -1.
        -11    1    4    4    0    0  0.10329571083E+00  0.26482443727E-01  0.29340594055E-01  0.11060043075E+00  0.51100000000E-03 0. -1.
         11    1    4    4    0    0  0.11888233509E-01  0.93267620263E-02  0.86115540086E-02  0.17399384165E-01  0.51100000000E-03 0.  1.
</event>
<event>
 8    1  0.1183092E+005  0.1043930E+01  0.7957747E-01            NaN
         13   -1    0    0    0    0  0.00000000000E+00  0.00000000000E+00  0.74505805969E-08  0.10566000000E+00  0.10566000000E+00 0.  1.
     999900   -1    0    0    0    0 -0.00000000000E+00 -0.00000000000E+00 -0.74505805969E-08  0.93827000000E+00  0.93827000000E+00 0.  1.
     999902    2    1    2    0    0 -0.16666729466E-01  0.59206328145E-02  0.15162772398E-01  0.10206331455E+01  0.10203672252E+01 0.  0.
     999903    2    3    3    0    0 -0.96038642055E-01 -0.63487152790E-01 -0.59458597939E-01  0.13120316502E+00  0.20613255597E-01 0.  0.
         14    1    1    2    0    0  0.16666729466E-01 -0.59206328145E-02 -0.15162772398E-01  0.23296854527E-01  0.00000000000E+00 0. -1.
     999901    1    3    3    0    0  0.79371912589E-01  0.69407785605E-01  0.74621370337E-01  0.88942998045E+00  0.88000000000E+00 0. -1.
        -11    1    4    4    0    0 -0.35444436250E-01 -0.30061610941E-01 -0.14541949786E-01  0.48700492175E-01  0.51100000000E-03 0.  1.
         11    1    4    4    0    0 -0.60594205805E-01 -0.33425541849E-01 -0.44916648152E-01  0.82502672849E-01  0.51100000000E-03 0. -1.
</event>
<event>
 8    1  0.1183092E+005  0.1043930E+01  0.7957747E-01            NaN
         13   -1    0    0    0    0  0.00000000000E+00  0.00000000000E+00  0.74505805969E-08  0.10566000000E+00  0.10566000000E+00 0. -1.
     999900   -1    0    0    0    0 -0.00000000000E+00 -0.00000000000E+00 -0.74505805969E-08  0.93827000000E+00  0.93827000000E+00 0.  1.
     999902    2    1    2    0    0  0.11866252765E-01 -0.20489544549E-01  0.32464993464E-02  0.10200308546E+01  0.10197508398E+01 0.  0.
     999903    2    3    3    0    0  0.51777032961E-01 -0.39056651018E-01  0.11326683316E+00  0.13208824295E+00  0.20289043851E-01 0.  0.
         14    1    1    2    0    0 -0.11866252765E-01  0.20489544549E-01 -0.32464993464E-02  0.23899145351E-01  0.00000000000E+00 0.  1.
     999901    1    3    3    0    0 -0.39910780196E-01  0.18567106469E-01 -0.11002033381E+00  0.88794261170E+00  0.88000000000E+00 0.  1.
        -11    1    4    4    0    0  0.37779477918E-01 -0.16287775808E-01  0.71739710586E-01  0.82700833058E-01  0.51100000000E-03 0. -1.
         11    1    4    4    0    0  0.13997555043E-01 -0.22768875210E-01  0.41527122574E-01  0.49387409892E-01  0.51100000000E-03 0.  1.
</event>
<event>
 8    1  0.1183092E+005  0.1043930E+01  0.7957747E-01            NaN
         13   -1    0    0    0    0  0.00000000000E+00  0.00000000000E+00  0.74505805969E-08  0.10566000000E+00  0.10566000000E+00 0. -1.
     999900   -1    0    0    0    0 -0.00000000000E+00 -0.00000000000E+00 -0.74505805969E-08  0.93827000000E+00  0.93827000000E+00 0.  1.
     999902    2    1    2    0    0  0.16236677278E-01 -0.11072954522E-01  0.12057382535E-01  0.10208731033E+01  0.10206126947E+01 0.  0.
     999903    2    3    3    0    0 -0.96328627109E-01 -0.14631889811E-01 -0.81917195008E-01  0.12873251182E+00  0.19192085934E-01 0.  0.
         14    1    1    2    0    0 -0.16236677278E-01  0.11072954522E-01 -0.12057382535E-01  0.23056896679E-01  0.00000000000E+00 0.  1.
     999901    1    3    3    0    0  0.11256530439E+00  0.35589352892E-02  0.93974577543E-01  0.89214059150E+00  0.88000000000E+00 0. -1.
        -11    1    4    4    0    0 -0.38272024166E-01 -0.96616547697E-02 -0.44481684614E-01  0.59472487704E-01  0.51100000000E-03 0.  1.
         11    1    4    4    0    0 -0.58056602943E-01 -0.49702350415E-02 -0.37435510394E-01  0.69260024120E-01  0.51100000000E-03 0. -1.
</event>
<event>
 8    1  0.1183092E+005  0.1043930E+01  0.7957747E-01            NaN
         13   -1    0    0    0    0  0.00000000000E+00  0.00000000000E+00  0.74505805969E-08  0.10566000000E+00  0.10566000000E+00 0.  1.
     999900   -1    0    0    0    0 -0.00000000000E+00 -0.00000000000E+00 -0.74505805969E-08  0.93827000000E+00  0.93827000000E+00 0. -1.
     999902    2    1    2    0    0 -0.10567284300E-01 -0.18298622510E-01  0.10908378010E-01  0.10201497604E+01  0.10198725577E+01 0.  0.
     999903    2    3    3    0    0 -0.12427854195E+00  0.36251558925E-01 -0.43493451123E-02  0.13102728825E+00  0.19745935047E-01 0.  0.
         14    1    1    2    0    0  0.10567284300E-01  0.18298622510E-01 -0.10908378010E-01  0.23780239571E-01  0.00000000000E+00 0. -1.
     999901    1    3    3    0    0  0.11371125765E+00 -0.54550181435E-01  0.15257723122E-01  0.88912247217E+00  0.88000000000E+00 0. -1.
        -11    1    4    4    0    0 -0.93302839309E-01  0.19579070805E-01  0.15818377008E-02  0.95349479119E-01  0.51100000000E-03 0.  1.
         11    1    4    4    0    0 -0.30975702640E-01  0.16672488119E-01 -0.59311828130E-02  0.35677809135E-01  0.51100000000E-03 0. -1.
</event>
<event>
 8    1  0.1183092E+005  0.1043930E+01  0.7957747E-01            NaN
         13   -1    0    0    0    0  0.00000000000E+00  0.00000000000E+00  0.74505805969E-08  0.10566000000E+00  0.10566000000E+00 0.  1.
     999900   -1    0    0    0    0 -0.00000000000E+00 -0.00000000000E+00 -0.74505805969E-08  0.93827000000E+00  0.93827000000E+00 0.  1.
     999902    2    1    2    0    0 -0.14059613838E-01  0.83109465110E-03  0.21589500924E-01  0.10181526842E+01  0.10178263203E+01 0.  0.
     999903    2    3    3    0    0 -0.37146831936E-02 -0.11657109947E+00  0.53283307881E-01  0.12973004257E+00  0.19701597483E-01 0.  0.
         14    1    1    2    0    0  0.14059613838E-01 -0.83109465110E-03 -0.21589500924E-01  0.25777315798E-01  0.00000000000E+00 0.  1.
     999901    1    3    3    0    0 -0.10344930645E-01  0.11740219412E+00 -0.31693806957E-01  0.88842264164E+00  0.88000000000E+00 0.  1.
        -11    1    4    4    0    0 -0.83239694217E-02 -0.27801837164E-01  0.17600686577E-01  0.33945189727E-01  0.51100000000E-03 0.  1.
         11    1    4    4    0    0  0.46092862281E-02 -0.88769262301E-01  0.35682621304E-01  0.95784852838E-01  0.51100000000E-03 0. -1.
</event>
<event>
 8    1  0.1265945E+005  0.1043930E+01  0.7957747E-01            NaN
         13   -1    0    0    0    0  0.00000000000E+00  0.00000000000E+00  0.74505805969E-08  0.10566000000E+00  0.10566000000E+00 0.  1.
     999900   -1    0    0    0    0 -0.00000000000E+00 -0.00000000000E+00 -0.74505805969E-08  0.93827000000E+00  0.93827000000E+00 0. -1.
     999902    2    1    2    0    0 -0.64425634017E-02  0.46283622844E-02 -0.22095920546E-01  0.10204532441E+01  0.10201831529E+01 0.  0.
     999903    2    3    3    0    0 -0.22585621288E-01  0.11804709211E+00  0.44849553520E-01  0.13050599678E+00  0.23981378212E-01 0.  0.
         14    1    1    2    0    0  0.64425634017E-02 -0.46283622844E-02  0.22095920546E-01  0.23476755853E-01  0.00000000000E+00 0.  1.
     999901    1    3    3    0    0  0.16143057886E-01 -0.11341872983E+00 -0.66945474065E-01  0.88994724736E+00  0.88000000000E+00 0.  1.
        -11    1    4    4    0    0 -0.48924626758E-02  0.36715506089E-01  0.25730343584E-01  0.45102952014E-01  0.51100000000E-03 0. -1.
         11    1    4    4    0    0 -0.17693158612E-01  0.81331586020E-01  0.19119209935E-01  0.85403044769E-01  0.51100000000E-03 0.  1.
</event>
<event>
 7    1  0.1183092E+005  0.1043930E+01  0.7957747E-01            NaN
         13   -1    0    0    0    0  0.00000000000E+00  0.00000000000E+00  0.74505805969E-08  0.10566000000E+00  0.10566000000E+00 0. -1.
     999900   -1    0    0    0    0 -0.00000000000E+00 -0.00000000000E+00 -0.74505805969E-08  0.93827000000E+00  0.93827000000E+00 0. -1.
     999902    2    1    2    0    0  0.35742886924E-02  0.13739798566E-01 -0.18078328598E-01  0.10209434046E+01  0.10206845996E+01 0.  0.
         14    1    1    2    0    0 -0.35742886924E-02 -0.13739798566E-01  0.18078328598E-01  0.22986595424E-01  0.00000000000E+00 0. -1.
     999901    1    3    3    0    0 -0.66444506022E-01  0.11720296140E+00 -0.19988475090E-01  0.89047793104E+00  0.88000000000E+00 0. -1.
        -11    1    3    3    0    0  0.47928572513E-01 -0.94673637846E-01 -0.31105191980E-02  0.10616111443E+00  0.51100000000E-03 0.  1.
         11    1    3    3    0    0  0.22090222201E-01 -0.87895249869E-02  0.50206656898E-02  0.24304359102E-01  0.51100000000E-03 0. -1.
</event>
<event>
 8    1  0.1183092E+005  0.1043930E+01  0.7957747E-01            NaN
         13   -1    0    0    0    0  0.00000000000E+00  0.00000000000E+00  0.74505805969E-08  0.10566000000E+00  0.10566000000E+00 0.  1.
     999900   -1    0    0    0    0 -0.00000000000E+00 -0.00000000000E+00 -0.74505805969E-08  0.93827000000E+00  0.93827000000E+00 0.  1.
     999902    2    1    2    0    0 -0.23359087867E-01  0.81674129954E-02  0.35590052556E-03  0.10191816609E+01  0.10188811401E+01 0.  0.
     999903    2    3    3    0    0 -0.12639990225E+00  0.29785310408E-01  0.18785108815E-01  0.13271430190E+00  0.19902402150E-01 0.  0.
         14    1    1    2    0    0  0.23359087867E-01 -0.81674129954E-02 -0.35590052556E-03  0.24748339060E-01  0.00000000000E+00 0. -1.
     999901    1    3    3    0    0  0.10304081439E+00 -0.21617897412E-01 -0.18429208290E-01  0.88646735904E+00  0.88000000000E+00 0.  1.
        -11    1    4    4    0    0 -0.48784711730E-01  0.56926018829E-02 -0.77071695055E-03  0.49124423054E-01  0.51100000000E-03 0. -1.
         11    1    4    4    0    0 -0.77615190523E-01  0.24092708525E-01  0.19555825766E-01  0.83589878851E-01  0.51100000000E-03 0.  1.
</event>
<event>
 8    1  0.1183092E+005  0.1043930E+01  0.7957747E-01            NaN
         13   -1    0    0    0    0  0.00000000000E+00  0.00000000000E+00  0.74505805969E-08  0.10566000000E+00  0.10566000000E+00 0. -1.
     999900   -1    0    0    0    0 -0.00000000000E+00 -0.00000000000E+00 -0.74505805969E-08  0.93827000000E+00  0.93827000000E+00 0.  1.
     999902    2    1    2    0    0  0.13691951609E-01  0.19903031060E-01 -0.60810365178E-02  0.10190185731E+01  0.10187140291E+01 0.  0.
     999903    2    3    3    0    0  0.10565795771E-01 -0.32352893129E-01  0.12174658246E+00  0.12824343054E+00  0.21582432677E-01 0.  0.
         14    1    1    2    0    0 -0.13691951609E-01 -0.19903031060E-01  0.60810365178E-02  0.24911426883E-01  0.00000000000E+00 0. -1.
     999901    1    3    3    0    0  0.31261558384E-02  0.52255924188E-01 -0.12782761898E+00  0.89077514258E+00  0.88000000000E+00 0.  1.
        -11    1    4    4    0    0 -0.92353583903E-03 -0.60021911523E-03  0.36941495483E-01  0.36961444655E-01  0.51100000000E-03 0. -1.
         11    1    4    4    0    0  0.11489331610E-01 -0.31752674013E-01  0.84805086980E-01  0.91281985882E-01  0.51100000000E-03 0.  1.
</event>
<event>
 8    1  0.1183092E+005  0.1043930E+01  0.7957747E-01            NaN
         13   -1    0    0    0    0  0.00000000000E+00  0.00000000000E+00  0.74505805969E-08  0.10566000000E+00  0.10566000000E+00 0. -1.
     999900   -1    0    0    0    0 -0.00000000000E+00 -0.00000000000E+00 -0.74505805969E-08  0.93827000000E+00  0.93827000000E+00 0. -1.
     999902    2    1    2    0    0 -0.20269045077E-01  0.95533864833E-02 -0.90077597819E-02  0.10197796145E+01  0.10194936101E+01 0.  0.
     999903    2    3    3    0    0  0.91077345783E-02 -0.76706351299E-01  0.10048635543E+00  0.12832423214E+00  0.20069523334E-01 0.  0.
         14    1    1    2    0    0  0.20269045077E-01 -0.95533864833E-02  0.90077597819E-02  0.24150385461E-01  0.00000000000E+00 0. -1.
     999901    1    3    3    0    0 -0.29376779656E-01  0.86259737782E-01 -0.10949411521E+00  0.89145538240E+00  0.88000000000E+00 0. -1.
        -11    1    4    4    0    0  0.10030261494E-01 -0.65750596109E-01  0.73219003823E-01  0.98919313969E-01  0.51100000000E-03 0. -1.
         11    1    4    4    0    0 -0.92252691565E-03 -0.10955755190E-01  0.27267351610E-01  0.29404918168E-01  0.51100000000E-03 0.  1.
</event>
<event>
 8    1  0.1183092E+005  0.1043930E+01  0.7957747E-01            NaN
         13   -1    0    0    0    0  0.00000000000E+00  0.00000000000E+00  0.74505805969E-08  0.10566000000E+00  0.10566000000E+00 0.  1.
     999900   -1    0    0    0    0 -0.00000000000E+00 -0.00000000000E+00 -0.74505805969E-08  0.93827000000E+00  0.93827000000E+00 0.  1.
     999902    2    1    2    0    0  0.11833866061E-01  0.44620978663E-02  0.20679519728E-01  0.10196896774E+01  0.10194015131E+01 0.  0.
     999903    2    3    3    0    0  0.55010801500E-01 -0.11566370811E+00 -0.90339079027E-02  0.12998335238E+00  0.20242992582E-01 0.  0.
         14    1    1    2    0    0 -0.11833866061E-01 -0.44620978663E-02 -0.20679519728E-01  0.24240322595E-01  0.00000000000E+00 0. -1.
     999901    1    3    3    0    0 -0.43176935438E-01  0.12012580597E+00  0.29713427631E-01  0.88970632503E+00  0.88000000000E+00 0.  1.
        -11    1    4    4    0    0  0.14192820896E-01 -0.15713228932E-01  0.28294703775E-02  0.21368405464E-01  0.51100000000E-03 0.  1.
         11    1    4    4    0    0  0.40817980604E-01 -0.99950479173E-01 -0.11863378280E-01  0.10861494691E+00  0.51100000000E-03 0. -1.
</event>
<event>
 8    1  0.1183092E+005  0.1043930E+01  0.7957747E-01            NaN
         13   -1    0    0    0    0  0.00000000000E+00  0.00000000000E+00  0.74505805969E-08  0.10566000000E+00  0.10566000000E+00 0. -1.
     999900   -1    0    0    0    0 -0.00000000000E+00 -0.00000000000E+00 -0.74505805969E-08  0.93827000000E+00  0.93827000000E+00 0.  1.
     999902    2    1    2    0    0 -0.73267815932E-02 -0.10510388770E-01  0.21906994439E-01  0.10185515366E+01  0.10182353197E+01 0.  0.
     999903    2    3    3    0    0  0.36869851640E-02 -0.54437468901E-01  0.11850921819E+00  0.13210758400E+00  0.20759264780E-01 0.  0.
         14    1    1    2    0    0  0.73267815932E-02  0.10510388770E-01 -0.21906994439E-01  0.25378463428E-01  0.00000000000E+00 0.  1.
     999901    1    3    3    0    0 -0.11013766757E-01  0.43927080131E-01 -0.96602223747E-01  0.88644395258E+00  0.88000000000E+00 0.  1.
        -11    1    4    4    0    0 -0.82045776612E-02 -0.14988707800E-01  0.37916679536E-01  0.41592212783E-01  0.51100000000E-03 0. -1.
         11    1    4    4    0    0  0.11891562825E-01 -0.39448761101E-01  0.80592538650E-01  0.90515371213E-01  0.51100000000E-03 0.  1.
</event>
<event>
 8    1  0.1183092E+005  0.1043930E+01  0.7957747E-01            NaN
         13   -1    0    0    0    0  0.00000000000E+00  0.00000000000E+00  0.74505805969E-08  0.10566000000E+00  0.10566000000E+00 0.  1.
     999900   -1    0    0    0    0 -0.00000000000E+00 -0.00000000000E+00 -0.74505805969E-08  0.93827000000E+00  0.93827000000E+00 0. -1.
     999902    2    1    2    0    0  0.99818458721E-02  0.17590467089E-01 -0.13356673523E-01  0.10196923741E+01  0.10194042748E+01 0.  0.
     999903    2    3    3    0    0  0.10356754160E+00  0.26634945400E-01  0.72223835435E-01  0.13055565319E+00  0.19820196444E-01 0.  0.
         14    1    1    2    0    0 -0.99818458721E-02 -0.17590467089E-01  0.13356673523E-01  0.24237625854E-01  0.00000000000E+00 0. -1.
     999901    1    3    3    0    0 -0.93585695725E-01 -0.90444783115E-02 -0.85580508958E-01  0.88913672095E+00  0.88000000000E+00 0. -1.
        -11    1    4    4    0    0  0.77179462068E-01  0.16748880233E-01  0.42872601399E-01  0.89863871638E-01  0.51100000000E-03 0. -1.
         11    1    4    4    0    0  0.26388079529E-01  0.98860651673E-02  0.29351234036E-01  0.40691781555E-01  0.51100000000E-03 0.  1.
</event>
<event>
 8    1  0.1183092E+005  0.1043930E+01  0.7957747E-01            NaN
         13   -1    0    0    0    0  0.00000000000E+00  0.00000000000E+00  0.74505805969E-08  0.10566000000E+00  0.10566000000E+00 0. -1.
     999900   -1    0    0    0    0 -0.00000000000E+00 -0.00000000000E+00 -0.74505805969E-08  0.93827000000E+00  0.93827000000E+00 0. -1.
     999902    2    1    2    0    0  0.92862821929E-02 -0.26745068168E-02  0.21264125298E-01  0.10205729658E+01  0.10203056539E+01 0.  0.
     999903    2    3    3    0    0 -0.37352595520E-01  0.74386484852E-01  0.10171583908E+00  0.13232409320E+00  0.15329324901E-01 0.  0.
         14    1    1    2    0    0 -0.92862821929E-02  0.26745068168E-02 -0.21264125298E-01  0.23357034237E-01  0.00000000000E+00 0.  1.
     999901    1    3    3    0    0  0.46638877713E-01 -0.77060991669E-01 -0.80451713782E-01  0.88824887256E+00  0.88000000000E+00 0. -1.
        -11    1    4    4    0    0 -0.55492053963E-02  0.26077660954E-01  0.28729084501E-01  0.39197697619E-01  0.51100000000E-03 0.  1.
         11    1    4    4    0    0 -0.31803390124E-01  0.48308823898E-01  0.72986754579E-01  0.93126395585E-01  0.51100000000E-03 0. -1.
</event>
<event>
 8    1  0.1183092E+005  0.1043930E+01  0.7957747E-01            NaN
         13   -1    0    0    0    0  0.00000000000E+00  0.00000000000E+00  0.74505805969E-08  0.10566000000E+00  0.10566000000E+00 0. -1.
     999900   -1    0    0    0    0 -0.00000000000E+00 -0.00000000000E+00 -0.74505805969E-08  0.93827000000E+00  0.93827000000E+00 0. -1.
     999902    2    1    2    0    0  0.19581115186E-01  0.99157810348E-02  0.69680260536E-02  0.10209018396E+01  0.10206420871E+01 0.  0.
     999903    2    3    3    0    0  0.12868526492E+00  0.16833190083E-02 -0.28020045583E-01  0.13343597878E+00  0.21384726050E-01 0.  0.
         14    1    1    2    0    0 -0.19581115186E-01 -0.99157810348E-02 -0.69680260536E-02  0.23028160425E-01  0.00000000000E+00 0.  1.
     999901    1    3    3    0    0 -0.10910414973E+00  0.82324620265E-02  0.34988071637E-01  0.88746586080E+00  0.88000000000E+00 0.  1.
        -11    1    4    4    0    0  0.76431839538E-01  0.67712553882E-02 -0.76250828046E-02  0.77110822869E-01  0.51100000000E-03 0. -1.
         11    1    4    4    0    0  0.52253425381E-01 -0.50879363800E-02 -0.20394962779E-01  0.56325155911E-01  0.51100000000E-03 0.  1.
</event>
<event>
 8    1  0.1183092E+005  0.1043930E+01  0.7957747E-01            NaN
         13   -1    0    0    0    0  0.00000000000E+00  0.00000000000E+00  0.74505805969E-08  0.10566000000E+00  0.10566000000E+00 0.  1.
     999900   -1    0    0    0    0 -0.00000000000E+00 -0.00000000000E+00 -0.74505805969E-08  0.93827000000E+00  0.93827000000E+00 0. -1.
     999902    2    1    2    0    0 -0.11100134155E-01 -0.19487667277E-01  0.78750404296E-02  0.10201603047E+01  0.10198833506E+01 0.  0.
     999903    2    3    3    0    0  0.25768397607E-02 -0.13105213622E+00 -0.75918992892E-02  0.13287629345E+00  0.20424737852E-01 0.  0.
         14    1    1    2    0    0  0.11100134155E-01  0.19487667277E-01 -0.78750404296E-02  0.23769695327E-01  0.00000000000E+00 0. -1.
     999901    1    3    3    0    0 -0.13676973915E-01  0.11156446894E+00  0.15466939719E-01  0.88728401122E+00  0.88000000000E+00 0.  1.
        -11    1    4    4    0    0 -0.17514373577E-03 -0.30840292321E-01  0.68332636920E-02  0.31592861844E-01  0.51100000000E-03 0. -1.
         11    1    4    4    0    0  0.27519834965E-02 -0.10021184390E+00 -0.14425162981E-01  0.10128343161E+00  0.51100000000E-03 0.  1.
</event>
<event>
 7    1  0.1183092E+005  0.1043930E+01  0.7957747E-01            NaN
         13   -1    0    0    0    0  0.00000000000E+00  0.00000000000E+00  0.74505805969E-08  0.10566000000E+00  0.10566000000E+00 0.  1.
     999900   -1    0    0    0    0 -0.00000000000E+00 -0.00000000000E+00 -0.74505805969E-08  0.93827000000E+00  0.93827000000E+00 0. -1.
     999903    2    1    2    0    0  0.41268010756E-01  0.64582561169E-01  0.80042717523E-01  0.11257565319E+00  0.19811237843E-01 0.  0.
         14    1    1    2    0    0 -0.17191376254E-01 -0.42042532296E-01  0.88006327855E-02  0.46266284450E-01  0.00000000000E+00 0. -1.
     999901    1    1    2    0    0 -0.24076634502E-01 -0.22540028873E-01 -0.88843350308E-01  0.88508806236E+00  0.88000000000E+00 0. -1.
        -11    1    3    3    0    0  0.13106350786E-01  0.26327611191E-01  0.44081063951E-01  0.52993592650E-01  0.51100000000E-03 0.  1.
         11    1    3    3    0    0  0.28161659970E-01  0.38254949978E-01  0.35961653572E-01  0.59582060544E-01  0.51100000000E-03 0. -1.
</event>
<event>
 8    1  0.1183092E+005  0.1043930E+01  0.7957747E-01            NaN
         13   -1    0    0    0    0  0.00000000000E+00  0.00000000000E+00  0.74505805969E-08  0.10566000000E+00  0.10566000000E+00 0. -1.
     999900   -1    0    0    0    0 -0.00000000000E+00 -0.00000000000E+00 -0.74505805969E-08  0.93827000000E+00  0.93827000000E+00 0.  1.
     999902    2    1    2    0    0  0.19228869356E-03  0.16609416036E-01 -0.16728575243E-01  0.10203555455E+01  0.10200831752E+01 0.  0.
     999903    2    3    3    0    0  0.23851990859E-01 -0.13872265306E-01 -0.12740369187E+00  0.13258423718E+00  0.24197562592E-01 0.  0.
         14    1    1    2    0    0 -0.19228869356E-03 -0.16609416036E-01  0.16728575243E-01  0.23574454514E-01  0.00000000000E+00 0. -1.
     999901    1    3    3    0    0 -0.23659702166E-01  0.30481681342E-01  0.11067511663E+00  0.88777130830E+00  0.88000000000E+00 0. -1.
        -11    1    4    4    0    0  0.64910172265E-02 -0.60766155139E-02 -0.91616126760E-01  0.92048000327E-01  0.51100000000E-03 0. -1.
         11    1    4    4    0    0  0.17360973633E-01 -0.77956497921E-02 -0.35787565108E-01  0.40536236857E-01  0.51100000000E-03 0.  1.
</event>
<event>
 8    1  0.1183092E+005  0.1043930E+01  0.7957747E-01            NaN
         13   -1    0    0    0    0  0.00000000000E+00  0.00000000000E+00  0.74505805969E-08  0.10566000000E+00  0.10566000000E+00 0. -1.
     999900   -1    0    0    0    0 -0.00000000000E+00 -0.00000000000E+00 -0.74505805969E-08  0.93827000000E+00  0.93827000000E+00 0.  1.
     999902    2    1    2    0    0 -0.20577413322E-01  0.88752098732E-02  0.66908986575E-02  0.10205426655E+01  0.10202746516E+01 0.  0.
     999903    2    3    3    0    0 -0.25286977039E-01  0.81899236427E-01  0.98905879409E-01  0.13270355221E+00  0.21930427548E-01 0.  0.
         14    1    1    2    0    0  0.20577413322E-01 -0.88752098732E-02 -0.66908986575E-02  0.23387334481E-01  0.00000000000E+00 0.  1.
     999901    1    3    3    0    0  0.47095637174E-02 -0.73024026554E-01 -0.92214980752E-01  0.88783911331E+00  0.88000000000E+00 0.  1.
        -11    1    4    4    0    0 -0.83510959927E-02  0.20916999153E-01  0.13034377088E-01  0.26027250430E-01  0.51100000000E-03 0.  1.
         11    1    4    4    0    0 -0.16935881046E-01  0.60982237274E-01  0.85871502321E-01  0.10667630178E+00  0.51100000000E-03 0. -1.
</event>
<event>
 8    1  0.1183092E+005  0.1043930E+01  0.7957747E-01            NaN
         13   -1    0    0    0    0  0.00000000000E+00  0.00000000000E+00  0.74505805969E-08  0.10566000000E+00  0.10566000000E+00 0.  1.
     999900   -1    0    0    0    0 -0.00000000000E+00 -0.00000000000E+00 -0.74505805969E-08  0.93827000000E+00  0.93827000000E+00 0.  1.
     999902    2    1    2    0    0 -0.15022592611E-01 -0.14423489055E-02 -0.16575771465E-01  0.10215131568E+01  0.10212671613E+01 0.  0.
     999903    2    3    3    0    0  0.12037144409E-01  0.12052831340E+00 -0.48826225761E-01  0.13210371024E+00  0.19885239778E-01 0.  0.
         14    1    1    2    0    0  0.15022592611E-01  0.14423489055E-02  0.16575771465E-01  0.22416843194E-01  0.00000000000E+00 0.  1.
     999901    1    3    3    0    0 -0.27059737020E-01 -0.12197066231E+00  0.32250454296E-01  0.88940944656E+00  0.88000000000E+00 0.  1.
        -11    1    4    4    0    0  0.52499980496E-02  0.86279050936E-01 -0.43541014668E-01  0.96786973242E-01  0.51100000000E-03 0.  1.
         11    1    4    4    0    0  0.67871463591E-02  0.34249262466E-01 -0.52852110924E-02  0.35316737002E-01  0.51100000000E-03 0. -1.
</event>
<event>
 8    1  0.1183092E+005  0.1043930E+01  0.7957747E-01            NaN
         13   -1    0    0    0    0  0.00000000000E+00  0.00000000000E+00  0.74505805969E-08  0.10566000000E+00  0.10566000000E+00 0.  1.
     999900   -1    0    0    0    0 -0.00000000000E+00 -0.00000000000E+00 -0.74505805969E-08  0.93827000000E+00  0.93827000000E+00 0.  1.
     999902    2    1    2    0    0  0.14520325637E-01  0.10164893700E-01 -0.17168668007E-01  0.10192535318E+01  0.10189547753E+01 0.  0.
     999903    2    3    3    0    0 -0.69362939948E-01  0.10308474643E+00 -0.34487394610E-01  0.13022572598E+00  0.18211999746E-01 0.  0.
         14    1    1    2    0    0 -0.14520325637E-01 -0.10164893700E-01  0.17168668007E-01  0.24676468177E-01  0.00000000000E+00 0.  1.
     999901    1    3    3    0    0  0.83883265585E-01 -0.92919852729E-01  0.17318726603E-01  0.88902780585E+00  0.88000000000E+00 0.  1.
        -11    1    4    4    0    0 -0.15995299115E-01  0.20719287337E-01 -0.14973330520E-01  0.30159579065E-01  0.51100000000E-03 0.  1.
         11    1    4    4    0    0 -0.53367640833E-01  0.82365459092E-01 -0.19514064090E-01  0.10006614691E+00  0.51100000000E-03 0. -1.
</event>
<event>
 8    1  0.1183092E+005  0.1043930E+01  0.7957747E-01            NaN
         13   -1    0    0    0    0  0.00000000000E+00  0.00000000000E+00  0.74505805969E-08  0.10566000000E+00  0.10566000000E+00 0.  1.
     999900   -1    0    0    0    0 -0.00000000000E+00 -0.00000000000E+00 -0.74505805969E-08  0.93827000000E+00  0.93827000000E+00 0. -1.
     999902    2    1    2    0    0 -0.59444388890E-02 -0.49248463955E-02 -0.22321240670E-01  0.10203116120E+01  0.10200382137E+01 0.  0.
     999903    2    3    3    0    0 -0.12721239946E+00  0.24956303281E-01 -0.81860393633E-02  0.13138045311E+00  0.19697730056E-01 0.  0.
         14    1    1    2    0    0  0.59444388890E-02  0.49248463955E-02  0.22321240670E-01  0.23618387980E-01  0.00000000000E+00 0.  1.
     999901    1    3    3    0    0  0.12126796057E+00 -0.29881149676E-01 -0.14135201307E-01  0.88893115891E+00  0.88000000000E+00 0.  1.
        -11    1    4    4    0    0 -0.67765803594E-01  0.10520197490E-01  0.51316948234E-02  0.68771172048E-01  0.51100000000E-03 0.  1.
         11    1    4    4    0    0 -0.59446595863E-01  0.14436105791E-01 -0.13317734187E-01  0.62609281061E-01  0.51100000000E-03 0. -1.
</event>
<event>
 8    1  0.1183092E+005  0.1043930E+01  0.7957747E-01            NaN
         13   -1    0    0    0    0  0.00000000000E+00  0.00000000000E+00  0.74505805969E-08  0.10566000000E+00  0.10566000000E+00 0.  1.
     999900   -1    0    0    0    0 -0.00000000000E+00 -0.00000000000E+00 -0.74505805969E-08  0.93827000000E+00  0.93827000000E+00 0.  1.
     999902    2    1    2    0    0  0.84310910680E-02 -0.24034103757E-01  0.18250398205E-02  0.10183946870E+01  0.10180744994E+01 0.  0.
     999903    2    3    3    0    0 -0.85659751333E-01  0.91242312389E-03  0.93411837957E-01  0.12830280555E+00  0.19935218230E-01 0.  0.
         14    1    1    2    0    0 -0.84310910680E-02  0.24034103757E-01 -0.18250398205E-02  0.25535313006E-01  0.00000000000E+00 0. -1.
     999901    1    3    3    0    0  0.94090842401E-01 -0.24946526880E-01 -0.91586798137E-01  0.89009188145E+00  0.88000000000E+00 0.  1.
        -11    1    4    4    0    0 -0.16968898933E-01 -0.48397368577E-02  0.10743156937E-01  0.20665021795E-01  0.51100000000E-03 0. -1.
         11    1    4    4    0    0 -0.68690852401E-01  0.57521599816E-02  0.82668681021E-01  0.10763778375E+00  0.51100000000E-03 0.  1.
</event>
<event>
 8    1  0.1183092E+005  0.1043930E+01  0.7957747E-01            NaN
         13   -1    0    0    0    0  0.00000000000E+00  0.00000000000E+00  0.74505805969E-08  0.10566000000E+00  0.10566000000E+00 0.  1.
     999900   -1    0    0    0    0 -0.00000000000E+00 -0.00000000000E+00 -0.74505805969E-08  0.93827000000E+00  0.93827000000E+00 0. -1.
     999902    2    1    2    0    0 -0.66377108979E-02 -0.14469614398E-01  0.17745700376E-01  0.10200901420E+01  0.10198115311E+01 0.  0.
     999903    2    3    3    0    0 -0.48136573698E-01  0.60522808713E-01  0.10463871661E+00  0.13166658571E+00  0.20166523623E-01 0.  0.
         14    1    1    2    0    0  0.66377108979E-02  0.14469614398E-01 -0.17745700376E-01  0.23839857982E-01  0.00000000000E+00 0. -1.
     999901    1    3    3    0    0  0.41498862800E-01 -0.74992423111E-01 -0.86893016238E-01  0.88842355631E+00  0.88000000000E+00 0. -1.
        -11    1    4    4    0    0 -0.68851076902E-02  0.23007684956E-01  0.35086272894E-01  0.42521358651E-01  0.51100000000E-03 0. -1.
         11    1    4    4    0    0 -0.41251466008E-01  0.37515123756E-01  0.69552443720E-01  0.89145227055E-01  0.51100000000E-03 0.  1.
</event>
<event>
 8    1  0.1183092E+005  0.1043930E+01  0.7957747E-01            NaN
         13   -1    0    0    0    0  0.00000000000E+00  0.00000000000E+00  0.74505805969E-08  0.10566000000E+00  0.10566000000E+00 0.  1.
     999900   -1    0    0    0    0 -0.00000000000E+00 -0.00000000000E+00 -0.74505805969E-08  0.93827000000E+00  0.93827000000E+00 0. -1.
     999902    2    1    2    0    0  0.42879813790E-02 -0.22674788615E-01  0.56276790457E-02  0.10201770298E+01  0.10199004699E+01 0.  0.
     999903    2    3    3    0    0 -0.34357986599E-01 -0.12311047422E+00  0.31736454226E-01  0.13323706229E+00  0.20205250197E-01 0.  0.
         14    1    1    2    0    0 -0.42879813790E-02  0.22674788615E-01 -0.56276790457E-02  0.23752970224E-01  0.00000000000E+00 0. -1.
     999901    1    3    3    0    0  0.38645967978E-01  0.10043568560E+00 -0.26108775180E-01  0.88693996749E+00  0.88000000000E+00 0.  1.
        -11    1    4    4    0    0 -0.34616949816E-01 -0.92273747901E-01  0.24686850151E-01  0.10159960363E+00  0.51100000000E-03 0.  1.
         11    1    4    4    0    0  0.25896321691E-03 -0.30836726316E-01  0.70496040749E-02  0.31637458660E-01  0.51100000000E-03 0. -1.
</event>
<event>
 8    1  0.1183092E+005  0.1043930E+01  0.7957747E-01            NaN
         13   -1    0    0    0    0  0.00000000000E+00  0.00000000000E+00  0.74505805969E-08  0.10566000000E+00  0.10566000000E+00 0.  1.
     999900   -1    0    0    0    0 -0.00000000000E+00 -0.00000000000E+00 -0.74505805969E-08  0.93827000000E+00  0.93827000000E+00 0.  1.
     999902    2    1    2    0    0 -0.18033328741E-01 -0.14612617053E-01 -0.57554289009E-03  0.10207123177E+01  0.10204482224E+01 0.  0.
     999903    2    3    3    0    0  0.23375615881E-01  0.18491359350E-01  0.12521202709E+00  0.13018826595E+00  0.19559730968E-01 0.  0.
         14    1    1    2    0    0  0.18033328741E-01  0.14612617053E-01  0.57554289009E-03  0.23217682318E-01  0.00000000000E+00 0.  1.
     999901    1    3    3    0    0 -0.41408944622E-01 -0.33103976402E-01 -0.12578756998E+00  0.89052405173E+00  0.88000000000E+00 0.  1.
        -11    1    4    4    0    0 -0.44756514917E-03  0.10482836678E-01  0.35746804192E-01  0.37258358932E-01  0.51100000000E-03 0. -1.
         11    1    4    4    0    0  0.23823181030E-01  0.80085226716E-02  0.89465222897E-01  0.92929907020E-01  0.51100000000E-03 0.  1.
</event>
<event>
 8    1  0.1183092E+005  0.1043930E+01  0.7957747E-01            NaN
         13   -1    0    0    0    0  0.00000000000E+00  0.00000000000E+00  0.74505805969E-08  0.10566000000E+00  0.10566000000E+00 0.  1.
     999900   -1    0    0    0    0 -0.00000000000E+00 -0.00000000000E+00 -0.74505805969E-08  0.93827000000E+00  0.93827000000E+00 0.  1.
     999902    2    1    2    0    0 -0.18700383018E-01  0.15875272483E-01  0.33639398092E-02  0.10191702607E+01  0.10188694595E+01 0.  0.
     999903    2    3    3    0    0 -0.80434685076E-02 -0.10673586007E+00 -0.66835205594E-01  0.12783700105E+00  0.20447809688E-01 0.  0.
         14    1    1    2    0    0  0.18700383018E-01 -0.15875272483E-01 -0.33639398092E-02  0.24759739346E-01  0.00000000000E+00 0. -1.
     999901    1    3    3    0    0 -0.10656914511E-01  0.12261113255E+00  0.70199145403E-01  0.89133325960E+00  0.88000000000E+00 0. -1.
        -11    1    4    4    0    0  0.45851786286E-03 -0.44532692120E-01 -0.38840009674E-01  0.59094656092E-01  0.51100000000E-03 0. -1.
         11    1    4    4    0    0 -0.85019863704E-02 -0.62203167951E-01 -0.27995195920E-01  0.68742344963E-01  0.51100000000E-03 0.  1.
</event>
<event>
 8    1  0.1183092E+005  0.1043930E+01  0.7957747E-01            NaN
         13   -1    0    0    0    0  0.00000000000E+00  0.00000000000E+00  0.74505805969E-08  0.10566000000E+00  0.10566000000E+00 0. -1.
     999900   -1    0    0    0    0 -0.00000000000E+00 -0.00000000000E+00 -0.74505805969E-08  0.93827000000E+00  0.93827000000E+00 0. -1.
     999902    2    1    2    0    0  0.59359704870E-02 -0.65521453025E-02 -0.24677585355E-01  0.10177164620E+01  0.10173788122E+01 0.  0.
     999903    2    3    3    0    0 -0.18920326661E-02 -0.12764882485E-01  0.12304533244E+00  0.12534773994E+00  0.20134052259E-01 0.  0.
         14    1    1    2    0    0 -0.59359704870E-02  0.65521453025E-02  0.24677585355E-01  0.26213537965E-01  0.00000000000E+00 0. -1.
     999901    1    3    3    0    0  0.78280031532E-02  0.62127371824E-02 -0.14772291779E+00  0.89236872210E+00  0.88000000000E+00 0. -1.
        -11    1    4    4    0    0 -0.59187586028E-03 -0.17204075674E-01  0.69555461458E-01  0.71655801416E-01  0.51100000000E-03 0. -1.
         11    1    4    4    0    0 -0.13001568059E-02  0.44391931893E-02  0.53489870979E-01  0.53691938522E-01  0.51100000000E-03 0.  1.
</event>
<event>
 8    1  0.1183092E+005  0.1043930E+01  0.7957747E-01            NaN
         13   -1    0    0    0    0  0.00000000000E+00  0.00000000000E+00  0.74505805969E-08  0.10566000000E+00  0.10566000000E+00 0.  1.
     999900   -1    0    0    0    0 -0.00000000000E+00 -0.00000000000E+00 -0.74505805969E-08  0.93827000000E+00  0.93827000000E+00 0.  1.
     999902    2    1    2    0    0 -0.17896462287E-01  0.11872787347E-01 -0.12645104278E-01  0.10190072172E+01  0.10187023920E+01 0.  0.
     999903    2    3    3    0    0 -0.38931815368E-01 -0.35345839432E-02 -0.12426139385E+00  0.13157380036E+00  0.18509224944E-01 0.  0.
         14    1    1    2    0    0  0.17896462287E-01 -0.11872787347E-01  0.12645104278E-01  0.24922782830E-01  0.00000000000E+00 0.  1.
     999901    1    3    3    0    0  0.21035353081E-01  0.15407371290E-01  0.11161628957E+00  0.88743341681E+00  0.88000000000E+00 0. -1.
        -11    1    4    4    0    0 -0.21378542908E-02 -0.35121956825E-02 -0.31645369844E-01  0.31915458528E-01  0.51100000000E-03 0.  1.
         11    1    4    4    0    0 -0.36793961077E-01 -0.22388260761E-04 -0.92616024009E-01  0.99658341834E-01  0.51100000000E-03 0. -1.
</event>
<event>
 8    1  0.1209520E+005  0.1043930E+01  0.7957747E-01            NaN
         13   -1    0    0    0    0  0.00000000000E+00  0.00000000000E+00  0.74505805969E-08  0.10566000000E+00  0.10566000000E+00 0. -1.
     999900   -1    0    0    0    0 -0.00000000000E+00 -0.00000000000E+00 -0.74505805969E-08  0.93827000000E+00  0.93827000000E+00 0. -1.
     999902    2    1    2    0    0  0.53642295087E-02  0.16331000676E-01  0.15914307292E-01  0.10205047632E+01  0.10202358698E+01 0.  0.
     999903    2    3    3    0    0  0.39683936004E-01  0.24606827013E-01 -0.11911937743E+00  0.12950508446E+00  0.20045700480E-01 0.  0.
         14    1    1    2    0    0 -0.53642295087E-02 -0.16331000676E-01 -0.15914307292E-01  0.23425236774E-01  0.00000000000E+00 0.  1.
     999901    1    3    3    0    0 -0.34319706495E-01 -0.82758263367E-02  0.13503368473E+00  0.89099967877E+00  0.88000000000E+00 0.  1.
        -11    1    4    4    0    0  0.16011475126E-01  0.21552973877E-01 -0.59281977272E-01  0.65080811065E-01  0.51100000000E-03 0.  1.
         11    1    4    4    0    0  0.23672460877E-01  0.30538531362E-02 -0.59837400162E-01  0.64424273392E-01  0.51100000000E-03 0. -1.
</event>
<event>
 8    1  0.1183092E+005  0.1043930E+01  0.7957747E-01            NaN
         13   -1    0    0    0    0  0.00000000000E+00  0.00000000000E+00  0.74505805969E-08  0.10566000000E+00  0.10566000000E+00 0.  1.
     999900   -1    0    0    0    0 -0.00000000000E+00 -0.00000000000E+00 -0.74505805969E-08  0.93827000000E+00  0.93827000000E+00 0.  1.
     999902    2    1    2    0    0 -0.16134535593E-01  0.18339341710E-01 -0.71538841829E-04  0.10195033791E+01  0.10192107143E+01 0.  0.
     999903    2    3    3    0    0  0.75945765514E-02 -0.12548863958E+00 -0.84186506094E-02  0.12747241925E+00  0.19320138100E-01 0.  0.
         14    1    1    2    0    0  0.16134535593E-01 -0.18339341710E-01  0.71538841829E-04  0.24426620948E-01  0.00000000000E+00 0. -1.
     999901    1    3    3    0    0 -0.23729112144E-01  0.14382798129E+00  0.83471117676E-02  0.89203095980E+00  0.88000000000E+00 0.  1.
        -11    1    4    4    0    0  0.44835745323E-02 -0.37197509306E-01  0.60268637890E-02  0.37951829301E-01  0.51100000000E-03 0. -1.
         11    1    4    4    0    0  0.31110020191E-02 -0.88291130271E-01 -0.14445514398E-01  0.89520589952E-01  0.51100000000E-03 0.  1.
</event>
<event>
 8    1  0.1183092E+005  0.1043930E+01  0.7957747E-01            NaN
         13   -1    0    0    0    0  0.00000000000E+00  0.00000000000E+00  0.74505805969E-08  0.10566000000E+00  0.10566000000E+00 0. -1.
     999900   -1    0    0    0    0 -0.00000000000E+00 -0.00000000000E+00 -0.74505805969E-08  0.93827000000E+00  0.93827000000E+00 0.  1.
     999902    2    1    2    0    0 -0.23445641160E-01 -0.60301848755E-02 -0.69674351876E-02  0.10187386052E+01  0.10184270908E+01 0.  0.
     999903    2    3    3    0    0  0.90647539542E-01  0.35365790420E-01  0.78325838105E-01  0.12632288194E+00  0.18836614045E-01 0.  0.
         14    1    1    2    0    0  0.23445641160E-01  0.60301848755E-02  0.69674351876E-02  0.25191394804E-01  0.00000000000E+00 0. -1.
     999901    1    3    3    0    0 -0.11409318070E+00 -0.41395975295E-01 -0.85293273293E-01  0.89241572326E+00  0.88000000000E+00 0.  1.
        -11    1    4    4    0    0  0.62727697141E-01  0.33475923112E-01  0.55139885045E-01  0.89978161021E-01  0.51100000000E-03 0. -1.
         11    1    4    4    0    0  0.27919842400E-01  0.18898673080E-02  0.23185953060E-01  0.36344720915E-01  0.51100000000E-03 0.  1.
</event>
<event>
 8    1  0.1183092E+005  0.1043930E+01  0.7957747E-01            NaN
         13   -1    0    0    0    0  0.00000000000E+00  0.00000000000E+00  0.74505805969E-08  0.10566000000E+00  0.10566000000E+00 0.  1.
     999900   -1    0    0    0    0 -0.00000000000E+00 -0.00000000000E+00 -0.74505805969E-08  0.93827000000E+00  0.93827000000E+00 0. -1.
     999902    2    1    2    0    0 -0.12061930602E-01  0.12140972143E-01 -0.16488875259E-01  0.10201649757E+01  0.10198881317E+01 0.  0.
     999903    2    3    3    0    0 -0.80997182465E-01 -0.93205077020E-01 -0.38703069723E-01  0.13092747676E+00  0.19908455858E-01 0.  0.
         14    1    1    2    0    0  0.12061930602E-01 -0.12140972143E-01  0.16488875259E-01  0.23765024337E-01  0.00000000000E+00 0.  1.
     999901    1    3    3    0    0  0.68935251863E-01  0.10534604916E+00  0.22214194463E-01  0.88923749891E+00  0.88000000000E+00 0.  1.
        -11    1    4    4    0    0 -0.30140738451E-01 -0.40984042661E-01 -0.25264405887E-01  0.56804112465E-01  0.51100000000E-03 0.  1.
         11    1    4    4    0    0 -0.50856444014E-01 -0.52221034359E-01 -0.13438663836E-01  0.74123364292E-01  0.51100000000E-03 0. -1.
</event>
<event>
 8    1  0.1183092E+005  0.1043930E+01  0.7957747E-01            NaN
         13   -1    0    0    0    0  0.00000000000E+00  0.00000000000E+00  0.74505805969E-08  0.10566000000E+00  0.10566000000E+00 0. -1.
     999900   -1    0    0    0    0 -0.00000000000E+00 -0.00000000000E+00 -0.74505805969E-08  0.93827000000E+00  0.93827000000E+00 0.  1.
     999902    2    1    2    0    0 -0.39244206429E-03 -0.20502337534E-01 -0.12915664756E-01  0.10196954327E+01  0.10194074069E+01 0.  0.
     999903    2    3    3    0    0  0.63640795726E-01  0.10912269163E+00  0.10432804066E-02  0.12778862376E+00  0.19259574714E-01 0.  0.
         14    1    1    2    0    0  0.39244206429E-03  0.20502337534E-01  0.12915664756E-01  0.24234567279E-01  0.00000000000E+00 0. -1.
     999901    1    3    3    0    0 -0.64033237790E-01 -0.12962502916E+00 -0.13958945162E-01  0.89190680896E+00  0.88000000000E+00 0.  1.
        -11    1    4    4    0    0  0.15252284793E-01  0.12521314688E-01  0.15540638480E-03  0.19740840536E-01  0.51100000000E-03 0.  1.
         11    1    4    4    0    0  0.48388510933E-01  0.96601376942E-01  0.88787402181E-03  0.10804778322E+00  0.51100000000E-03 0. -1.
</event>
<event>
 8    1  0.1183092E+005  0.1043930E+01  0.7957747E-01            NaN
         13   -1    0    0    0    0  0.00000000000E+00  0.00000000000E+00  0.74505805969E-08  0.10566000000E+00  0.10566000000E+00 0. -1.
     999900   -1    0    0    0    0 -0.00000000000E+00 -0.00000000000E+00 -0.74505805969E-08  0.93827000000E+00  0.93827000000E+00 0. -1.
     999902    2    1    2    0    0 -0.64322944989E-02 -0.17046985332E-01 -0.14328831624E-01  0.10207504932E+01  0.10204872756E+01 0.  0.
     999903    2    3    3    0    0  0.14199448604E-01  0.72693688141E-01  0.10280622719E+00  0.12822616335E+00  0.19668044700E-01 0.  0.
         14    1    1    2    0    0  0.64322944989E-02  0.17046985332E-01  0.14328831624E-01  0.23179506836E-01  0.00000000000E+00 0.  1.
     999901    1    3    3    0    0 -0.20631743102E-01 -0.89740673473E-01 -0.11713505882E+00  0.89252432981E+00  0.88000000000E+00 0. -1.
        -11    1    4    4    0    0  0.50770061719E-02  0.42948235896E-01  0.44017106958E-01  0.61709754368E-01  0.51100000000E-03 0. -1.
         11    1    4    4    0    0  0.91224424317E-02  0.29745452245E-01  0.58789120236E-01  0.66516408986E-01  0.51100000000E-03 0.  1.
</event>
<event>
 8    1  0.1183092E+005  0.1043930E+01  0.7957747E-01            NaN
         13   -1    0    0    0    0  0.00000000000E+00  0.00000000000E+00  0.74505805969E-08  0.10566000000E+00  0.10566000000E+00 0. -1.
     999900   -1    0    0    0    0 -0.00000000000E+00 -0.00000000000E+00 -0.74505805969E-08  0.93827000000E+00  0.93827000000E+00 0.  1.
     999902    2    1    2    0    0 -0.33576566101E-02  0.17262467995E-01 -0.11222775634E-01  0.10230681364E+01  0.10228554123E+01 0.  0.
     999903    2    3    3    0    0 -0.24840163226E-01  0.85834262700E-01  0.97063008733E-01  0.13352364612E+00  0.20561664504E-01 0.  0.
         14    1    1    2    0    0  0.33576566101E-02 -0.17262467995E-01  0.11222775634E-01  0.20861863582E-01  0.00000000000E+00 0. -1.
     999901    1    3    3    0    0  0.21482506616E-01 -0.68571794705E-01 -0.10828578437E+00  0.88954449030E+00  0.88000000000E+00 0.  1.
        -11    1    4    4    0    0 -0.10410095072E-01  0.32341548832E-01  0.23012214395E-01  0.41038628055E-01  0.51100000000E-03 0. -1.
         11    1    4    4    0    0 -0.14430068154E-01  0.53492713868E-01  0.74050794337E-01  0.92485018067E-01  0.51100000000E-03 0.  1.
</event>
<event>
 8    1  0.1183092E+005  0.1043930E+01  0.7957747E-01            NaN
         13   -1    0    0    0    0  0.00000000000E+00  0.00000000000E+00  0.74505805969E-08  0.10566000000E+00  0.10566000000E+00 0. -1.
     999900   -1    0    0    0    0 -0.00000000000E+00 -0.00000000000E+00 -0.74505805969E-08  0.93827000000E+00  0.93827000000E+00 0. -1.
     999902    2    1    2    0    0 -0.66473534567E-02  0.16126134192E-01  0.15834033900E-01  0.10203724929E+01  0.10201005186E+01 0.  0.
     999903    2    3    3    0    0  0.49643988477E-01 -0.70108170202E-01 -0.93259376708E-01  0.12767632807E+00  0.14975055425E-01 0.  0.
         14    1    1    2    0    0  0.66473534567E-02 -0.16126134192E-01 -0.15834033900E-01  0.23557507116E-01  0.00000000000E+00 0. -1.
     999901    1    3    3    0    0 -0.56291341933E-01  0.86234304395E-01  0.10909341061E+00  0.89269616481E+00  0.88000000000E+00 0.  1.
        -11    1    4    4    0    0  0.27662025008E-01 -0.38734689773E-01 -0.62394970289E-01  0.78479024317E-01  0.51100000000E-03 0. -1.
         11    1    4    4    0    0  0.21981963468E-01 -0.31373480429E-01 -0.30864406419E-01  0.49197303755E-01  0.51100000000E-03 0.  1.
</event>
<event>
 8    1  0.1183092E+005  0.1043930E+01  0.7957747E-01            NaN
         13   -1    0    0    0    0  0.00000000000E+00  0.00000000000E+00  0.74505805969E-08  0.10566000000E+00  0.10566000000E+00 0. -1.
     999900   -1    0    0    0    0 -0.00000000000E+00 -0.00000000000E+00 -0.74505805969E-08  0.93827000000E+00  0.93827000000E+00 0. -1.
     999902    2    1    2    0    0 -0.66549131382E-02 -0.24402851921E-01  0.12211731703E-02  0.10186065264E+01  0.10182916956E+01 0.  0.
     999903    2    3    3    0    0 -0.26424342940E-01 -0.12342208039E+00 -0.34223874059E-01  0.13212359407E+00  0.18817936281E-01 0.  0.
         14    1    1    2    0    0  0.66549131382E-02  0.24402851921E-01 -0.12211731703E-02  0.25323473590E-01  0.00000000000E+00 0. -1.
     999901    1    3    3    0    0  0.19769429802E-01  0.99019228470E-01  0.35445047229E-01  0.88648293234E+00  0.88000000000E+00 0. -1.
        -11    1    4    4    0    0 -0.18589379758E-01 -0.63837536777E-01 -0.26301571308E-01  0.71504055240E-01  0.51100000000E-03 0. -1.
         11    1    4    4    0    0 -0.78349631824E-02 -0.59584543614E-01 -0.79223027508E-02  0.60619538827E-01  0.51100000000E-03 0.  1.
</event>
<event>
 8    1  0.1183092E+005  0.1043930E+01  0.7957747E-01            NaN
         13   -1    0    0    0    0  0.00000000000E+00  0.00000000000E+00  0.74505805969E-08  0.10566000000E+00  0.10566000000E+00 0.  1.
     999900   -1    0    0    0    0 -0.00000000000E+00 -0.00000000000E+00 -0.74505805969E-08  0.93827000000E+00  0.93827000000E+00 0.  1.
     999902    2    1    2    0    0  0.76835943758E-02 -0.63811634785E-03  0.29373740596E-01  0.10135612422E+01  0.10131061791E+01 0.  0.
     999903    2    3    3    0    0 -0.11623336080E+00  0.30967653483E-02  0.40336784556E-01  0.12480393591E+00  0.20716710933E-01 0.  0.
         14    1    1    2    0    0 -0.76835943758E-02  0.63811634785E-03 -0.29373740596E-01  0.30368757821E-01  0.00000000000E+00 0. -1.
     999901    1    3    3    0    0  0.12391695517E+00 -0.37348816962E-02 -0.10963043960E-01  0.88875730627E+00  0.88000000000E+00 0.  1.
        -11    1    4    4    0    0 -0.54753816970E-01  0.75987823046E-02  0.27872934546E-01  0.61910286435E-01  0.51100000000E-03 0. -1.
         11    1    4    4    0    0 -0.61479543826E-01 -0.45020169563E-02  0.12463850010E-01  0.62893649471E-01  0.51100000000E-03 0.  1.
</event>
<event>
 8    1  0.1183092E+005  0.1043930E+01  0.7957747E-01            NaN
         13   -1    0    0    0    0  0.00000000000E+00  0.00000000000E+00  0.74505805969E-08  0.10566000000E+00  0.10566000000E+00 0.  1.
     999900   -1    0    0    0    0 -0.00000000000E+00 -0.00000000000E+00 -0.74505805969E-08  0.93827000000E+00  0.93827000000E+00 0.  1.
     999902    2    1    2    0    0  0.18452697979E-01 -0.54122598927E-02 -0.13050632247E-01  0.10206896553E+01  0.10204250383E+01 0.  0.
     999903    2    3    3    0    0 -0.45964790907E-01  0.13978791887E-01  0.11754032195E+00  0.12851275407E+00  0.19789695510E-01 0.  0.
         14    1    1    2    0    0 -0.18452697979E-01  0.54122598927E-02  0.13050632247E-01  0.23240344703E-01  0.00000000000E+00 0. -1.
     999901    1    3    3    0    0  0.64417488886E-01 -0.19391051779E-01 -0.13059095420E+00  0.89217690123E+00  0.88000000000E+00 0.  1.
        -11    1    4    4    0    0 -0.20551404739E-01  0.94556300438E-02  0.78590442922E-01  0.81783176852E-01  0.51100000000E-03 0.  1.
         11    1    4    4    0    0 -0.25413386168E-01  0.45231618430E-02  0.38949879031E-01  0.46729577219E-01  0.51100000000E-03 0. -1.
</event>
<event>
 8    1  0.1183092E+005  0.1043930E+01  0.7957747E-01            NaN
         13   -1    0    0    0    0  0.00000000000E+00  0.00000000000E+00  0.74505805969E-08  0.10566000000E+00  0.10566000000E+00 0. -1.
     999900   -1    0    0    0    0 -0.00000000000E+00 -0.00000000000E+00 -0.74505805969E-08  0.93827000000E+00  0.93827000000E+00 0.  1.
     999902    2    1    2    0    0 -0.80596230066E-02  0.59509896264E-02  0.21291699161E-01  0.10203989938E+01  0.10201276382E+01 0.  0.
     999903    2    3    3    0    0 -0.27034562591E-01  0.62808137926E-01 -0.10748665087E+00  0.12900870492E+00  0.20350333250E-01 0.  0.
         14    1    1    2    0    0  0.80596230066E-02 -0.59509896264E-02 -0.21291699161E-01  0.23531006220E-01  0.00000000000E+00 0.  1.
     999901    1    3    3    0    0  0.18974939584E-01 -0.56857148300E-01  0.12877835004E+00  0.89139028887E+00  0.88000000000E+00 0. -1.
        -11    1    4    4    0    0 -0.28793557735E-01  0.45443681515E-01 -0.78420470427E-01  0.95101148571E-01  0.51100000000E-03 0.  1.
         11    1    4    4    0    0  0.17589951437E-02  0.17364456412E-01 -0.29066180448E-01  0.33907556344E-01  0.51100000000E-03 0. -1.
</event>
<event>
 8    1  0.1183092E+005  0.1043930E+01  0.7957747E-01            NaN
         13   -1    0    0    0    0  0.00000000000E+00  0.00000000000E+00  0.74505805969E-08  0.10566000000E+00  0.10566000000E+00 0.  1.
     999900   -1    0    0    0    0 -0.00000000000E+00 -0.00000000000E+00 -0.74505805969E-08  0.93827000000E+00  0.93827000000E+00 0. -1.
     999902    2    1    2    0    0 -0.78876198403E-02  0.60706575299E-03 -0.22741967691E-01  0.10198513752E+01  0.10195670882E+01 0.  0.
     999903    2    3    3    0    0 -0.20222238099E-01  0.96549928112E-01  0.80796157415E-01  0.12851680339E+00  0.16053727518E-01 0.  0.
         14    1    1    2    0    0  0.78876198403E-02 -0.60706575299E-03  0.22741967691E-01  0.24078624753E-01  0.00000000000E+00 0.  1.
     999901    1    3    3    0    0  0.12334618258E-01 -0.95942862359E-01 -0.10353812511E+00  0.89133457186E+00  0.88000000000E+00 0.  1.
        -11    1    4    4    0    0 -0.23830780716E-02  0.66890251324E-02  0.11974741644E-01  0.13931176431E-01  0.51100000000E-03 0. -1.
         11    1    4    4    0    0 -0.17839160027E-01  0.89860902979E-01  0.68821415771E-01  0.11458562695E+00  0.51100000000E-03 0.  1.
</event>
<event>
 8    1  0.1183092E+005  0.1043930E+01  0.7957747E-01            NaN
         13   -1    0    0    0    0  0.00000000000E+00  0.00000000000E+00  0.74505805969E-08  0.10566000000E+00  0.10566000000E+00 0.  1.
     999900   -1    0    0    0    0 -0.00000000000E+00 -0.00000000000E+00 -0.74505805969E-08  0.93827000000E+00  0.93827000000E+00 0.  1.
     999902    2    1    2    0    0 -0.20561189090E-01  0.37772526914E-02  0.11865312401E-01  0.10198922012E+01  0.10196088888E+01 0.  0.
     999903    2    3    3    0    0  0.98879159191E-01  0.70062676483E-02 -0.77341140348E-01  0.12734852461E+00  0.20243982361E-01 0.  0.
         14    1    1    2    0    0  0.20561189090E-01 -0.37772526914E-02 -0.11865312401E-01  0.24037798840E-01  0.00000000000E+00 0.  1.
     999901    1    3    3    0    0 -0.11944034828E+00 -0.32290149569E-02  0.89206452749E-01  0.89254367655E+00  0.88000000000E+00 0. -1.
        -11    1    4    4    0    0  0.51135037649E-02 -0.38565707816E-02 -0.25364533543E-02  0.69076606435E-02  0.51100000000E-03 0.  1.
         11    1    4    4    0    0  0.93765655426E-01  0.10862838430E-01 -0.74804686994E-01  0.12044086397E+00  0.51100000000E-03 0. -1.
</event>
<event>
 8    1  0.1183092E+005  0.1043930E+01  0.7957747E-01            NaN
         13   -1    0    0    0    0  0.00000000000E+00  0.00000000000E+00  0.74505805969E-08  0.10566000000E+00  0.10566000000E+00 0.  1.
     999900   -1    0    0    0    0 -0.00000000000E+00 -0.00000000000E+00 -0.74505805969E-08  0.93827000000E+00  0.93827000000E+00 0.  1.
     999902    2    1    2    0    0 -0.16705779183E-01 -0.14832045535E-01 -0.62041871170E-02  0.10207445612E+01  0.10204812074E+01 0.  0.
     999903    2    3    3    0    0  0.92595658661E-01 -0.78991857110E-01 -0.43826582777E-01  0.13086887869E+00  0.19804660020E-01 0.  0.
         14    1    1    2    0    0  0.16705779183E-01  0.14832045535E-01  0.62041871170E-02  0.23185438764E-01  0.00000000000E+00 0. -1.
     999901    1    3    3    0    0 -0.10930143784E+00  0.64159811575E-01  0.37622395660E-01  0.88987568255E+00  0.88000000000E+00 0. -1.
        -11    1    4    4    0    0  0.32996496473E-01 -0.17500165063E-01 -0.90038195117E-02  0.38423358046E-01  0.51100000000E-03 0. -1.
         11    1    4    4    0    0  0.59599162188E-01 -0.61491692047E-01 -0.34822763265E-01  0.92445520642E-01  0.51100000000E-03 0.  1.
</event>
<event>
 8    1  0.1183092E+005  0.1043930E+01  0.7957747E-01            NaN
         13   -1    0    0    0    0  0.00000000000E+00  0.00000000000E+00  0.74505805969E-08  0.10566000000E+00  0.10566000000E+00 0. -1.
     999900   -1    0    0    0    0 -0.00000000000E+00 -0.00000000000E+00 -0.74505805969E-08  0.93827000000E+00  0.93827000000E+00 0. -1.
     999902    2    1    2    0    0 -0.10505463673E-01  0.83211287621E-02  0.14749087301E-01  0.10240015900E+01  0.10238076551E+01 0.  0.
     999903    2    3    3    0    0  0.43093967130E-02  0.82575729674E-01  0.10528923537E+00  0.13612167450E+00  0.24616359475E-01 0.  0.
         14    1    1    2    0    0  0.10505463673E-01 -0.83211287621E-02 -0.14749087301E-01  0.19928410049E-01  0.00000000000E+00 0.  1.
     999901    1    3    3    0    0 -0.14814860386E-01 -0.74254600911E-01 -0.90540148067E-01  0.88787991545E+00  0.88000000000E+00 0. -1.
        -11    1    4    4    0    0  0.22897521363E-02  0.35892851013E-01  0.27111256401E-01  0.45042436250E-01  0.51100000000E-03 0.  1.
         11    1    4    4    0    0  0.20196445766E-02  0.46682878661E-01  0.78177978968E-01  0.91079238253E-01  0.51100000000E-03 0. -1.
</event>
<event>
 8    1  0.1183092E+005  0.1043930E+01  0.7957747E-01            NaN
         13   -1    0    0    0    0  0.00000000000E+00  0.00000000000E+00  0.74505805969E-08  0.10566000000E+00  0.10566000000E+00 0.  1.
     999900   -1    0    0    0    0 -0.00000000000E+00 -0.00000000000E+00 -0.74505805969E-08  0.93827000000E+00  0.93827000000E+00 0. -1.
     999902    2    1    2    0    0 -0.20042526708E-01 -0.80557947503E-02 -0.89102697570E-02  0.10205635366E+01  0.10202960063E+01 0.  0.
     999903    2    3    3    0    0  0.80666174501E-01 -0.71739628699E-01 -0.70273862695E-01  0.13041559171E+00  0.20401096754E-01 0.  0.
         14    1    1    2    0    0  0.20042526708E-01  0.80557947503E-02  0.89102697570E-02  0.23366463426E-01  0.00000000000E+00 0. -1.
     999901    1    3    3    0    0 -0.10070870121E+00  0.63683833949E-01  0.61363592938E-01  0.89014794486E+00  0.88000000000E+00 0. -1.
        -11    1    4    4    0    0  0.55726008436E-01 -0.36256919301E-01 -0.43078838456E-01  0.79221207118E-01  0.51100000000E-03 0.  1.
         11    1    4    4    0    0  0.24940166065E-01 -0.35482709398E-01 -0.27195024239E-01  0.51194384593E-01  0.51100000000E-03 0. -1.
</event>
<event>
 8    1  0.1183092E+005  0.1043930E+01  0.7957747E-01            NaN
         13   -1    0    0    0    0  0.00000000000E+00  0.00000000000E+00  0.74505805969E-08  0.10566000000E+00  0.10566000000E+00 0. -1.
     999900   -1    0    0    0    0 -0.00000000000E+00 -0.00000000000E+00 -0.74505805969E-08  0.93827000000E+00  0.93827000000E+00 0. -1.
     999902    2    1    2    0    0 -0.11017220977E-01 -0.16888225945E-01 -0.12747004297E-01  0.10200746557E+01  0.10197956784E+01 0.  0.
     999903    2    3    3    0    0 -0.27769815515E-01  0.39812459939E-01 -0.12015529481E+00  0.13157470742E+00  0.22768709680E-01 0.  0.
         14    1    1    2    0    0  0.11017220977E-01  0.16888225945E-01  0.12747004297E-01  0.23855344311E-01  0.00000000000E+00 0. -1.
     999901    1    3    3    0    0  0.16752594538E-01 -0.56700685884E-01  0.10740829052E+00  0.88849994827E+00  0.88000000000E+00 0. -1.
        -11    1    4    4    0    0 -0.11306653152E-01  0.26091217425E-02 -0.40463024111E-01  0.42097094472E-01  0.51100000000E-03 0. -1.
         11    1    4    4    0    0 -0.16463162364E-01  0.37203338197E-01 -0.79692270704E-01  0.89477612948E-01  0.51100000000E-03 0.  1.
</event>
<event>
 8    1  0.1183092E+005  0.1043930E+01  0.7957747E-01            NaN
         13   -1    0    0    0    0  0.00000000000E+00  0.00000000000E+00  0.74505805969E-08  0.10566000000E+00  0.10566000000E+00 0. -1.
     999900   -1    0    0    0    0 -0.00000000000E+00 -0.00000000000E+00 -0.74505805969E-08  0.93827000000E+00  0.93827000000E+00 0.  1.
     999902    2    1    2    0    0 -0.64760822173E-02 -0.11217028044E-01 -0.19719170056E-01  0.10203374794E+01  0.10200646866E+01 0.  0.
     999903    2    3    3    0    0  0.92107488961E-01  0.51249617945E-01 -0.75006556911E-01  0.13091210453E+00  0.20042022646E-01 0.  0.
         14    1    1    2    0    0  0.64760822173E-02  0.11217028044E-01  0.19719170056E-01  0.23592520567E-01  0.00000000000E+00 0. -1.
     999901    1    3    3    0    0 -0.98583571179E-01 -0.62466645988E-01  0.55287386855E-01  0.88942537490E+00  0.88000000000E+00 0. -1.
        -11    1    4    4    0    0  0.52994077547E-01  0.37873192379E-01 -0.37906801332E-01  0.75365361170E-01  0.51100000000E-03 0.  1.
         11    1    4    4    0    0  0.39113411414E-01  0.13376425566E-01 -0.37099755579E-01  0.55546743365E-01  0.51100000000E-03 0. -1.
</event>
<event>
 8    1  0.1183092E+005  0.1043930E+01  0.7957747E-01            NaN
         13   -1    0    0    0    0  0.00000000000E+00  0.00000000000E+00  0.74505805969E-08  0.10566000000E+00  0.10566000000E+00 0. -1.
     999900   -1    0    0    0    0 -0.00000000000E+00 -0.00000000000E+00 -0.74505805969E-08  0.93827000000E+00  0.93827000000E+00 0. -1.
     999902    2    1    2    0    0 -0.10588934916E-01 -0.14271602356E-01  0.15592299883E-01  0.10202884266E+01  0.10200144849E+01 0.  0.
     999903    2    3    3    0    0 -0.79662794328E-01  0.32189634642E-02 -0.10052693282E+00  0.12980496571E+00  0.19675933892E-01 0.  0.
         14    1    1    2    0    0  0.10588934916E-01  0.14271602356E-01 -0.15592299883E-01  0.23641573385E-01  0.00000000000E+00 0.  1.
     999901    1    3    3    0    0  0.69073859412E-01 -0.17490565820E-01  0.11611923270E+00  0.89048346091E+00  0.88000000000E+00 0.  1.
        -11    1    4    4    0    0 -0.24239027822E-01 -0.78505639656E-02 -0.28109583722E-01  0.37941687395E-01  0.51100000000E-03 0. -1.
         11    1    4    4    0    0 -0.55423766505E-01  0.11069527430E-01 -0.72417349096E-01  0.91863278312E-01  0.51100000000E-03 0.  1.
</event>
<event>
 8    1  0.1183092E+005  0.1043930E+01  0.7957747E-01            NaN
         13   -1    0    0    0    0  0.00000000000E+00  0.00000000000E+00  0.74505805969E-08  0.10566000000E+00  0.10566000000E+00 0. -1.
     999900   -1    0    0    0    0 -0.00000000000E+00 -0.00000000000E+00 -0.74505805969E-08  0.93827000000E+00  0.93827000000E+00 0.  1.
     999902    2    1    2    0    0  0.16116441298E-01 -0.10228122979E-01 -0.49395700291E-03  0.10248355460E+01  0.10246576493E+01 0.  0.
     999903    2    3    3    0    0  0.10609348777E+00 -0.74955757049E-01 -0.38796452904E-01  0.13705594684E+00  0.20123969384E-01 0.  0.
         14    1    1    2    0    0 -0.16116441298E-01  0.10228122979E-01  0.49395700291E-03  0.19094453993E-01  0.00000000000E+00 0. -1.
     999901    1    3    3    0    0 -0.89977046475E-01  0.64727634069E-01  0.38302495901E-01  0.88777959917E+00  0.88000000000E+00 0.  1.
        -11    1    4    4    0    0  0.57827034993E-01 -0.50674879499E-01 -0.28797354159E-01  0.82106382918E-01  0.51100000000E-03 0. -1.
         11    1    4    4    0    0  0.48266452779E-01 -0.24280877549E-01 -0.99990987450E-02  0.54949563921E-01  0.51100000000E-03 0.  1.
</event>
<event>
 8    1  0.1183092E+005  0.1043930E+01  0.7957747E-01            NaN
         13   -1    0    0    0    0  0.00000000000E+00  0.00000000000E+00  0.74505805969E-08  0.10566000000E+00  0.10566000000E+00 0.  1.
     999900   -1    0    0    0    0 -0.00000000000E+00 -0.00000000000E+00 -0.74505805969E-08  0.93827000000E+00  0.93827000000E+00 0. -1.
     999902    2    1    2    0    0 -0.14650075378E-01  0.13769295980E-01 -0.12160070947E-01  0.10204334993E+01  0.10201629482E+01 0.  0.
     999903    2    3    3    0    0  0.50738499233E-01 -0.24717437351E-02  0.11630544316E+00  0.12855748471E+00  0.20483308948E-01 0.  0.
         14    1    1    2    0    0  0.14650075378E-01 -0.13769295980E-01  0.12160070947E-01  0.23496500714E-01  0.00000000000E+00 0.  1.
     999901    1    3    3    0    0 -0.65388574611E-01  0.16241039715E-01 -0.12846551410E+00  0.89187601458E+00  0.88000000000E+00 0. -1.
        -11    1    4    4    0    0  0.49063053152E-01 -0.22466175582E-02  0.92897375822E-01  0.10508289124E+00  0.51100000000E-03 0.  1.
         11    1    4    4    0    0  0.16754460811E-02 -0.22512617687E-03  0.23408067335E-01  0.23474593473E-01  0.51100000000E-03 0. -1.
</event>
<event>
 8    1  0.1183092E+005  0.1043930E+01  0.7957747E-01            NaN
         13   -1    0    0    0    0  0.00000000000E+00  0.00000000000E+00  0.74505805969E-08  0.10566000000E+00  0.10566000000E+00 0.  1.
     999900   -1    0    0    0    0 -0.00000000000E+00 -0.00000000000E+00 -0.74505805969E-08  0.93827000000E+00  0.93827000000E+00 0.  1.
     999902    2    1    2    0    0  0.35132993729E-02 -0.19591904909E-01  0.12521149673E-01  0.10204147879E+01  0.10201438007E+01 0.  0.
     999903    2    3    3    0    0 -0.94741072206E-01 -0.85951908346E-01  0.27377403450E-01  0.13233918310E+00  0.20013391816E-01 0.  0.
         14    1    1    2    0    0 -0.35132993729E-02  0.19591904909E-01 -0.12521149673E-01  0.23515212088E-01  0.00000000000E+00 0. -1.
     999901    1    3    3    0    0  0.98254371579E-01  0.66360003437E-01 -0.14856253778E-01  0.88807560481E+00  0.88000000000E+00 0. -1.
        -11    1    4    4    0    0 -0.66979002300E-01 -0.54555003464E-01  0.26703755137E-01  0.90420057573E-01  0.51100000000E-03 0. -1.
         11    1    4    4    0    0 -0.27762069906E-01 -0.31396904882E-01  0.67364831301E-03  0.41919125524E-01  0.51100000000E-03 0.  1.
</event>
<event>
 8    1  0.1183092E+005  0.1043930E+01  0.7957747E-01            NaN
         13   -1    0    0    0    0  0.00000000000E+00  0.00000000000E+00  0.74505805969E-08  0.10566000000E+00  0.10566000000E+00 0.  1.
     999900   -1    0    0    0    0 -0.00000000000E+00 -0.00000000000E+00 -0.74505805969E-08  0.93827000000E+00  0.93827000000E+00 0.  1.
     999902    2    1    2    0    0  0.83778826379E-02  0.21629146919E-01  0.17488510967E-02  0.10206691446E+01  0.10204040549E+01 0.  0.
     999903    2    3    3    0    0  0.46292207823E-01 -0.11333350020E+00  0.35087660817E-01  0.12894952027E+00  0.20233241587E-01 0.  0.
         14    1    1    2    0    0 -0.83778826379E-02 -0.21629146919E-01 -0.17488510967E-02  0.23260855403E-01  0.00000000000E+00 0. -1.
     999901    1    3    3    0    0 -0.37914325185E-01  0.13496264712E+00 -0.33338809720E-01  0.89171962432E+00  0.88000000000E+00 0.  1.
        -11    1    4    4    0    0  0.36324633334E-01 -0.92029288838E-01  0.19826627849E-01  0.10090701306E+00  0.51100000000E-03 0. -1.
         11    1    4    4    0    0  0.99675744891E-02 -0.21304211359E-01  0.15261032968E-01  0.28042507218E-01  0.51100000000E-03 0.  1.
</event>
<event>
 8    1  0.1183092E+005  0.1043930E+01  0.7957747E-01            NaN
         13   -1    0    0    0    0  0.00000000000E+00  0.00000000000E+00  0.74505805969E-08  0.10566000000E+00  0.10566000000E+00 0. -1.
     999900   -1    0    0    0    0 -0.00000000000E+00 -0.00000000000E+00 -0.74505805969E-08  0.93827000000E+00  0.93827000000E+00 0.  1.
     999902    2    1    2    0    0  0.13126385204E-01 -0.60268121688E-02 -0.17445862523E-01  0.10212808814E+01  0.10210297039E+01 0.  0.
     999903    2    3    3    0    0 -0.42211867156E-01  0.18269138628E-01 -0.12272703556E+00  0.13294719366E+00  0.22303091521E-01 0.  0.
         14    1    1    2    0    0 -0.13126385204E-01  0.60268121688E-02  0.17445862523E-01  0.22649118584E-01  0.00000000000E+00 0. -1.
     999901    1    3    3    0    0  0.55338252360E-01 -0.24295950797E-01  0.10528117304E+00  0.88833368775E+00  0.88000000000E+00 0. -1.
        -11    1    4    4    0    0 -0.31112203921E-01  0.18886681746E-01 -0.68298788321E-01  0.77392903986E-01  0.51100000000E-03 0.  1.
         11    1    4    4    0    0 -0.11099663235E-01 -0.61754311801E-03 -0.54428247237E-01  0.55554289679E-01  0.51100000000E-03 0. -1.
</event>
<event>
 8    1  0.1183092E+005  0.1043930E+01  0.7957747E-01            NaN
         13   -1    0    0    0    0  0.00000000000E+00  0.00000000000E+00  0.74505805969E-08  0.10566000000E+00  0.10566000000E+00 0.  1.
     999900   -1    0    0    0    0 -0.00000000000E+00 -0.00000000000E+00 -0.74505805969E-08  0.93827000000E+00  0.93827000000E+00 0.  1.
     999902    2    1    2    0    0 -0.15194321836E-01 -0.17405898983E-01  0.58665914102E-02  0.10200920129E+01  0.10198134462E+01 0.  0.
     999903    2    3    3    0    0 -0.13243395575E-01  0.12068198406E+00 -0.36661656391E-01  0.12830688101E+00  0.19469202929E-01 0.  0.
         14    1    1    2    0    0  0.15194321836E-01  0.17405898983E-01 -0.58665914102E-02  0.23837987126E-01  0.00000000000E+00 0. -1.
     999901    1    3    3    0    0 -0.19509262604E-02 -0.13808788304E+00  0.42528247801E-01  0.89178513187E+00  0.88000000000E+00 0. -1.
        -11    1    4    4    0    0 -0.87345394698E-02  0.75179646466E-01 -0.32565796777E-01  0.82395774547E-01  0.51100000000E-03 0. -1.
         11    1    4    4    0    0 -0.45088561057E-02  0.45502337589E-01 -0.40958596146E-02  0.45911106461E-01  0.51100000000E-03 0.  1.
</event>
<event>
 8    1  0.1183092E+005  0.1043930E+01  0.7957747E-01            NaN
         13   -1    0    0    0    0  0.00000000000E+00  0.00000000000E+00  0.74505805969E-08  0.10566000000E+00  0.10566000000E+00 0. -1.
     999900   -1    0    0    0    0 -0.00000000000E+00 -0.00000000000E+00 -0.74505805969E-08  0.93827000000E+00  0.93827000000E+00 0. -1.
     999902    2    1    2    0    0 -0.44578195946E-02  0.23352458252E-01  0.43218147681E-02  0.10197662349E+01  0.10194799097E+01 0.  0.
     999903    2    3    3    0    0 -0.56755983890E-01  0.61570570110E-01  0.10015442919E+00  0.13219673785E+00  0.20806032820E-01 0.  0.
         14    1    1    2    0    0  0.44578195946E-02 -0.23352458252E-01 -0.43218147681E-02  0.24163765121E-01  0.00000000000E+00 0. -1.
     999901    1    3    3    0    0  0.52298164296E-01 -0.38218111858E-01 -0.95832614422E-01  0.88756949703E+00  0.88000000000E+00 0. -1.
        -11    1    4    4    0    0 -0.79237277553E-02  0.17959400535E-01  0.33046804090E-01  0.38440576357E-01  0.51100000000E-03 0.  1.
         11    1    4    4    0    0 -0.48832256135E-01  0.43611169576E-01  0.67107625100E-01  0.93756161496E-01  0.51100000000E-03 0. -1.
</event>
<event>
 8    1  0.1183092E+005  0.1043930E+01  0.7957747E-01            NaN
         13   -1    0    0    0    0  0.00000000000E+00  0.00000000000E+00  0.74505805969E-08  0.10566000000E+00  0.10566000000E+00 0.  1.
     999900   -1    0    0    0    0 -0.00000000000E+00 -0.00000000000E+00 -0.74505805969E-08  0.93827000000E+00  0.93827000000E+00 0.  1.
     999902    2    1    2    0    0  0.10598909942E-01 -0.14895491801E-01 -0.15611950979E-01  0.10198895012E+01  0.10196061245E+01 0.  0.
     999903    2    3    3    0    0 -0.11353259321E+00  0.54038619251E-01 -0.17907915718E-01  0.12850528934E+00  0.19572783483E-01 0.  0.
         14    1    1    2    0    0 -0.10598909942E-01  0.14895491801E-01  0.15611950979E-01  0.24040498774E-01  0.00000000000E+00 0.  1.
     999901    1    3    3    0    0  0.12413150315E+00 -0.68934111052E-01  0.22959647397E-02  0.89138421188E+00  0.88000000000E+00 0. -1.
        -11    1    4    4    0    0 -0.30084949733E-01  0.59226303084E-02 -0.78434592622E-02  0.31653794787E-01  0.51100000000E-03 0. -1.
         11    1    4    4    0    0 -0.83447643473E-01  0.48115988943E-01 -0.10064456456E-01  0.96851494557E-01  0.51100000000E-03 0.  1.
</event>
<event>
 8    1  0.1183092E+005  0.1043930E+01  0.7957747E-01            NaN
         13   -1    0    0    0    0  0.00000000000E+00  0.00000000000E+00  0.74505805969E-08  0.10566000000E+00  0.10566000000E+00 0. -1.
     999900   -1    0    0    0    0 -0.00000000000E+00 -0.00000000000E+00 -0.74505805969E-08  0.93827000000E+00  0.93827000000E+00 0. -1.
     999902    2    1    2    0    0 -0.34448732153E-02  0.19542646140E-01 -0.13531365704E-01  0.10199116731E+01  0.10196288251E+01 0.  0.
     999903    2    3    3    0    0  0.12399972105E+00 -0.28217735293E-01 -0.11958508107E-01  0.12944794417E+00  0.21014112602E-01 0.  0.
         14    1    1    2    0    0  0.34448732153E-02 -0.19542646140E-01  0.13531365704E-01  0.24018326907E-01  0.00000000000E+00 0.  1.
     999901    1    3    3    0    0 -0.12744459427E+00  0.47760381433E-01 -0.15728575971E-02  0.89046372892E+00  0.88000000000E+00 0.  1.
        -11    1    4    4    0    0  0.76043971010E-01 -0.23998711519E-01  0.39888767745E-03  0.79743613625E-01  0.51100000000E-03 0.  1.
         11    1    4    4    0    0  0.47955750040E-01 -0.42190237738E-02 -0.12357395784E-01  0.49704330547E-01  0.51100000000E-03 0. -1.
</event>
<event>
 7    1  0.1183092E+005  0.1043930E+01  0.7957747E-01            NaN
         13   -1    0    0    0    0  0.00000000000E+00  0.00000000000E+00  0.74505805969E-08  0.10566000000E+00  0.10566000000E+00 0.  1.
     999900   -1    0    0    0    0 -0.00000000000E+00 -0.00000000000E+00 -0.74505805969E-08  0.93827000000E+00  0.93827000000E+00 0. -1.
     999903    2    1    2    0    0 -0.15877066556E-01  0.51056259248E-01  0.52978520047E-01  0.77892388365E-01  0.20041899313E-01 0.  0.
         14    1    1    2    0    0  0.41571325790E-01 -0.62465447223E-01  0.31845125644E-01  0.81512080406E-01  0.00000000000E+00 0. -1.
     999901    1    1    2    0    0 -0.25694259234E-01  0.11409187976E-01 -0.84823645691E-01  0.88452553123E+00  0.88000000000E+00 0. -1.
        -11    1    3    3    0    0  0.19054173008E-02  0.21945052722E-01  0.27894155097E-01  0.35546602702E-01  0.51100000000E-03 0. -1.
         11    1    3    3    0    0 -0.17782483857E-01  0.29111206526E-01  0.25084364950E-01  0.42345785664E-01  0.51100000000E-03 0.  1.
</event>
<event>
 8    1  0.1183092E+005  0.1043930E+01  0.7957747E-01            NaN
         13   -1    0    0    0    0  0.00000000000E+00  0.00000000000E+00  0.74505805969E-08  0.10566000000E+00  0.10566000000E+00 0. -1.
     999900   -1    0    0    0    0 -0.00000000000E+00 -0.00000000000E+00 -0.74505805969E-08  0.93827000000E+00  0.93827000000E+00 0.  1.
     999902    2    1    2    0    0  0.14671597162E-01 -0.64980750915E-02 -0.17563824361E-01  0.10201399040E+01  0.10198624687E+01 0.  0.
     999903    2    3    3    0    0 -0.23353951059E-01  0.33037072061E-01 -0.12397679721E+00  0.13203366541E+00  0.20634616382E-01 0.  0.
         14    1    1    2    0    0 -0.14671597162E-01  0.64980750915E-02  0.17563824361E-01  0.23790096035E-01  0.00000000000E+00 0.  1.
     999901    1    3    3    0    0  0.38025548221E-01 -0.39535147153E-01  0.10641297285E+00  0.88810623856E+00  0.88000000000E+00 0. -1.
        -11    1    4    4    0    0 -0.25211381519E-01  0.31673783362E-01 -0.99183353349E-01  0.10712815229E+00  0.51100000000E-03 0.  1.
         11    1    4    4    0    0  0.18574304604E-02  0.13632886992E-02 -0.24793443861E-01  0.24905513114E-01  0.51100000000E-03 0. -1.
</event>
<event>
 8    1  0.1183092E+005  0.1043930E+01  0.7957747E-01            NaN
         13   -1    0    0    0    0  0.00000000000E+00  0.00000000000E+00  0.74505805969E-08  0.10566000000E+00  0.10566000000E+00 0. -1.
     999900   -1    0    0    0    0 -0.00000000000E+00 -0.00000000000E+00 -0.74505805969E-08  0.93827000000E+00  0.93827000000E+00 0.  1.
     999902    2    1    2    0    0 -0.10001755996E-01  0.21478939135E-01 -0.56268133761E-02  0.10195775673E+01  0.10192866990E+01 0.  0.
     999903    2    3    3    0    0 -0.89241643570E-01  0.36519342485E-02 -0.94296623487E-01  0.13140016548E+00  0.19918401461E-01 0.  0.
         14    1    1    2    0    0  0.10001755996E-01 -0.21478939135E-01  0.56268133761E-02  0.24352432694E-01  0.00000000000E+00 0. -1.
     999901    1    3    3    0    0  0.79239887574E-01  0.17827004886E-01  0.88669810111E-01  0.88817740182E+00  0.88000000000E+00 0. -1.
        -11    1    4    4    0    0 -0.42059556283E-01  0.98732938192E-02 -0.53071499042E-01  0.68434883920E-01  0.51100000000E-03 0. -1.
         11    1    4    4    0    0 -0.47182087287E-01 -0.62213595707E-02 -0.41225124445E-01  0.62965281562E-01  0.51100000000E-03 0.  1.
</event>
<event>
 8    1  0.1183092E+005  0.1043930E+01  0.7957747E-01            NaN
         13   -1    0    0    0    0  0.00000000000E+00  0.00000000000E+00  0.74505805969E-08  0.10566000000E+00  0.10566000000E+00 0. -1.
     999900   -1    0    0    0    0 -0.00000000000E+00 -0.00000000000E+00 -0.74505805969E-08  0.93827000000E+00  0.93827000000E+00 0.  1.
     999902    2    1    2    0    0  0.16255504879E-01 -0.18529576813E-01  0.39368289646E-03  0.10192775834E+01  0.10189794161E+01 0.  0.
     999903    2    3    3    0    0 -0.13541361293E-02  0.10380124612E+00  0.72210341662E-01  0.12774375785E+00  0.18099774770E-01 0.  0.
         14    1    1    2    0    0 -0.16255504879E-01  0.18529576813E-01 -0.39368289646E-03  0.24652416555E-01  0.00000000000E+00 0.  1.
     999901    1    3    3    0    0  0.17609641008E-01 -0.12233082294E+00 -0.71816658765E-01  0.89153382559E+00  0.88000000000E+00 0.  1.
        -11    1    4    4    0    0 -0.38119321693E-02  0.98293065920E-01  0.71585061365E-01  0.12165829099E+00  0.51100000000E-03 0. -1.
         11    1    4    4    0    0  0.24577960401E-02  0.55081802027E-02  0.62528029628E-03  0.60854668653E-02  0.51100000000E-03 0.  1.
</event>
<event>
 8    1  0.1183092E+005  0.1043930E+01  0.7957747E-01            NaN
         13   -1    0    0    0    0  0.00000000000E+00  0.00000000000E+00  0.74505805969E-08  0.10566000000E+00  0.10566000000E+00 0.  1.
     999900   -1    0    0    0    0 -0.00000000000E+00 -0.00000000000E+00 -0.74505805969E-08  0.93827000000E+00  0.93827000000E+00 0. -1.
     999902    2    1    2    0    0  0.90866772025E-02  0.11317707351E-01 -0.18835299378E-01  0.10201512972E+01  0.10198741307E+01 0.  0.
     999903    2    3    3    0    0  0.72393432310E-01 -0.11032303538E-01  0.10441431989E+00  0.12902967991E+00  0.19590490979E-01 0.  0.
         14    1    1    2    0    0 -0.90866772025E-02 -0.11317707351E-01  0.18835299378E-01  0.23778702760E-01  0.00000000000E+00 0.  1.
     999901    1    3    3    0    0 -0.63306755108E-01  0.22350010889E-01 -0.12324961926E+00  0.89112161733E+00  0.88000000000E+00 0. -1.
        -11    1    4    4    0    0  0.41501812997E-01 -0.16056237835E-01  0.61105547262E-01  0.75593334909E-01  0.51100000000E-03 0.  1.
         11    1    4    4    0    0  0.30891619313E-01  0.50239342976E-02  0.43308772624E-01  0.53436344998E-01  0.51100000000E-03 0. -1.
</event>
<event>
 8    1  0.1183092E+005  0.1043930E+01  0.7957747E-01            NaN
         13   -1    0    0    0    0  0.00000000000E+00  0.00000000000E+00  0.74505805969E-08  0.10566000000E+00  0.10566000000E+00 0. -1.
     999900   -1    0    0    0    0 -0.00000000000E+00 -0.00000000000E+00 -0.74505805969E-08  0.93827000000E+00  0.93827000000E+00 0. -1.
     999902    2    1    2    0    0  0.15261872226E-01 -0.14833422840E-01 -0.11542860291E-01  0.10197185812E+01  0.10194311120E+01 0.  0.
     999903    2    3    3    0    0  0.43823989412E-01 -0.12342013019E+00  0.54712155653E-02  0.13242136699E+00  0.18772683664E-01 0.  0.
         14    1    1    2    0    0 -0.15261872226E-01  0.14833422840E-01  0.11542860291E-01  0.24211418807E-01  0.00000000000E+00 0. -1.
     999901    1    3    3    0    0 -0.28562117187E-01  0.10858670735E+00 -0.17014075856E-01  0.88729721420E+00  0.88000000000E+00 0. -1.
        -11    1    4    4    0    0  0.34305933403E-01 -0.87497642369E-01 -0.39960719574E-02  0.94068933229E-01  0.51100000000E-03 0.  1.
         11    1    4    4    0    0  0.95180560097E-02 -0.35922487822E-01  0.94672875227E-02  0.38352433763E-01  0.51100000000E-03 0. -1.
</event>
<event>
 8    1  0.1183092E+005  0.1043930E+01  0.7957747E-01            NaN
         13   -1    0    0    0    0  0.00000000000E+00  0.00000000000E+00  0.74505805969E-08  0.10566000000E+00  0.10566000000E+00 0. -1.
     999900   -1    0    0    0    0 -0.00000000000E+00 -0.00000000000E+00 -0.74505805969E-08  0.93827000000E+00  0.93827000000E+00 0. -1.
     999902    2    1    2    0    0  0.22809623027E-01  0.75612982993E-03 -0.72100641651E-03  0.10210964614E+01  0.10208411301E+01 0.  0.
     999903    2    3    3    0    0  0.73585741460E-01 -0.48604964517E-01  0.97508283748E-01  0.13280387149E+00  0.18753638599E-01 0.  0.
         14    1    1    2    0    0 -0.22809623027E-01 -0.75612982993E-03  0.72100641651E-03  0.22833538605E-01  0.00000000000E+00 0. -1.
     999901    1    3    3    0    0 -0.50776118433E-01  0.49361094347E-01 -0.98229290165E-01  0.88829258991E+00  0.88000000000E+00 0. -1.
        -11    1    4    4    0    0  0.76776519675E-02 -0.10468281838E-01  0.22100244351E-01  0.25636169482E-01  0.51100000000E-03 0. -1.
         11    1    4    4    0    0  0.65908089493E-01 -0.38136682679E-01  0.75408039398E-01  0.10716770201E+00  0.51100000000E-03 0.  1.
</event>
<event>
 8    1  0.1183092E+005  0.1043930E+01  0.7957747E-01            NaN
         13   -1    0    0    0    0  0.00000000000E+00  0.00000000000E+00  0.74505805969E-08  0.10566000000E+00  0.10566000000E+00 0. -1.
     999900   -1    0    0    0    0 -0.00000000000E+00 -0.00000000000E+00 -0.74505805969E-08  0.93827000000E+00  0.93827000000E+00 0.  1.
     999902    2    1    2    0    0  0.52569534940E-02  0.11684458214E-01 -0.20445667217E-01  0.10198014395E+01  0.10195159580E+01 0.  0.
     999903    2    3    3    0    0  0.65335747589E-02 -0.88024370748E-01 -0.94643558980E-01  0.13106705428E+00  0.20741070759E-01 0.  0.
         14    1    1    2    0    0 -0.52569534940E-02 -0.11684458214E-01  0.20445667217E-01  0.24128560499E-01  0.00000000000E+00 0. -1.
     999901    1    3    3    0    0 -0.12766212649E-02  0.99708828962E-01  0.74197891763E-01  0.88873438522E+00  0.88000000000E+00 0. -1.
        -11    1    4    4    0    0 -0.44386070717E-03 -0.49690993369E-01 -0.39176602270E-01  0.63280795829E-01  0.51100000000E-03 0. -1.
         11    1    4    4    0    0  0.69774354661E-02 -0.38333377379E-01 -0.55466956710E-01  0.67786258449E-01  0.51100000000E-03 0.  1.
</event>
<event>
 8    1  0.1183092E+005  0.1043930E+01  0.7957747E-01            NaN
         13   -1    0    0    0    0  0.00000000000E+00  0.00000000000E+00  0.74505805969E-08  0.10566000000E+00  0.10566000000E+00 0.  1.
     999900   -1    0    0    0    0 -0.00000000000E+00 -0.00000000000E+00 -0.74505805969E-08  0.93827000000E+00  0.93827000000E+00 0.  1.
     999902    2    1    2    0    0 -0.43749505453E-02  0.20868863076E-01 -0.10589816380E-01  0.10201225674E+01  0.10198447228E+01 0.  0.
     999903    2    3    3    0    0 -0.68225498063E-01  0.47173507478E-01  0.98846895658E-01  0.13065912197E+00  0.20519234335E-01 0.  0.
         14    1    1    2    0    0  0.43749505453E-02 -0.20868863076E-01  0.10589816380E-01  0.23807432649E-01  0.00000000000E+00 0.  1.
     999901    1    3    3    0    0  0.63850547518E-01 -0.26304644401E-01 -0.10943671204E+00  0.88946344539E+00  0.88000000000E+00 0.  1.
        -11    1    4    4    0    0 -0.63603494368E-01  0.35628838965E-01  0.82168333858E-01  0.10984859977E+00  0.51100000000E-03 0.  1.
         11    1    4    4    0    0 -0.46220036949E-02  0.11544668513E-01  0.16678561801E-01  0.20810522194E-01  0.51100000000E-03 0. -1.
</event>
<event>
 8    1  0.1183092E+005  0.1043930E+01  0.7957747E-01            NaN
         13   -1    0    0    0    0  0.00000000000E+00  0.00000000000E+00  0.74505805969E-08  0.10566000000E+00  0.10566000000E+00 0.  1.
     999900   -1    0    0    0    0 -0.00000000000E+00 -0.00000000000E+00 -0.74505805969E-08  0.93827000000E+00  0.93827000000E+00 0.  1.
     999902    2    1    2    0    0  0.24394149351E-02  0.11566414021E-02  0.23574976074E-01  0.10202009448E+01  0.10199249481E+01 0.  0.
     999903    2    3    3    0    0  0.15651849340E-01  0.98102363849E-01  0.85593852007E-01  0.13260904391E+00  0.19743273411E-01 0.  0.
         14    1    1    2    0    0 -0.24394149351E-02 -0.11566414021E-02 -0.23574976074E-01  0.23729055216E-01  0.00000000000E+00 0. -1.
     999901    1    3    3    0    0 -0.13212434405E-01 -0.96945722447E-01 -0.62018875933E-01  0.88759190087E+00  0.88000000000E+00 0.  1.
        -11    1    4    4    0    0  0.68363620300E-02  0.85822014456E-01  0.71069172863E-01  0.11163889315E+00  0.51100000000E-03 0.  1.
         11    1    4    4    0    0  0.88154873101E-02  0.12280349393E-01  0.14524679144E-01  0.20970150762E-01  0.51100000000E-03 0. -1.
</event>
<event>
 8    1  0.1183092E+005  0.1043930E+01  0.7957747E-01            NaN
         13   -1    0    0    0    0  0.00000000000E+00  0.00000000000E+00  0.74505805969E-08  0.10566000000E+00  0.10566000000E+00 0.  1.
     999900   -1    0    0    0    0 -0.00000000000E+00 -0.00000000000E+00 -0.74505805969E-08  0.93827000000E+00  0.93827000000E+00 0.  1.
     999902    2    1    2    0    0  0.12117094503E-01  0.92820970038E-02  0.17512485798E-01  0.10206992346E+01  0.10204348382E+01 0.  0.
     999903    2    3    3    0    0 -0.10995276221E+00  0.12799733235E-01  0.66947455525E-01  0.13089181725E+00  0.19931455869E-01 0.  0.
         14    1    1    2    0    0 -0.12117094503E-01 -0.92820970038E-02 -0.17512485798E-01  0.23230765437E-01  0.00000000000E+00 0.  1.
     999901    1    3    3    0    0  0.12206985671E+00 -0.35176362312E-02 -0.49434969727E-01  0.88980741732E+00  0.88000000000E+00 0.  1.
        -11    1    4    4    0    0 -0.10509462042E-01  0.61319508821E-02  0.11925840931E-01  0.17045128833E-01  0.51100000000E-03 0.  1.
         11    1    4    4    0    0 -0.99443300163E-01  0.66677823528E-02  0.55021614594E-01  0.11384668841E+00  0.51100000000E-03 0. -1.
</event>
<event>
 8    1  0.1183092E+005  0.1043930E+01  0.7957747E-01            NaN
         13   -1    0    0    0    0  0.00000000000E+00  0.00000000000E+00  0.74505805969E-08  0.10566000000E+00  0.10566000000E+00 0.  1.
     999900   -1    0    0    0    0 -0.00000000000E+00 -0.00000000000E+00 -0.74505805969E-08  0.93827000000E+00  0.93827000000E+00 0.  1.
     999902    2    1    2    0    0 -0.13468684711E-01  0.20785589032E-01  0.84250595031E-02  0.10177684288E+01  0.10174321338E+01 0.  0.
     999903    2    3    3    0    0 -0.23760659785E-01  0.11689196377E+00  0.51532491799E-01  0.13142729204E+00  0.19729045497E-01 0.  0.
         14    1    1    2    0    0  0.13468684711E-01 -0.20785589032E-01 -0.84250595031E-02  0.26161571185E-01  0.00000000000E+00 0. -1.
     999901    1    3    3    0    0  0.10291975074E-01 -0.96106374733E-01 -0.43107432296E-01  0.88634113677E+00  0.88000000000E+00 0.  1.
        -11    1    4    4    0    0 -0.14980056294E-02  0.38931893608E-01  0.95174683969E-02  0.40109595940E-01  0.51100000000E-03 0.  1.
         11    1    4    4    0    0 -0.22262654155E-01  0.77960070158E-01  0.42015023402E-01  0.91317696103E-01  0.51100000000E-03 0. -1.
</event>
<event>
 8    1  0.1183092E+005  0.1043930E+01  0.7957747E-01            NaN
         13   -1    0    0    0    0  0.00000000000E+00  0.00000000000E+00  0.74505805969E-08  0.10566000000E+00  0.10566000000E+00 0.  1.
     999900   -1    0    0    0    0 -0.00000000000E+00 -0.00000000000E+00 -0.74505805969E-08  0.93827000000E+00  0.93827000000E+00 0. -1.
     999902    2    1    2    0    0  0.21247490651E-01  0.10887211748E-01 -0.13303222041E-02  0.10200185593E+01  0.10197382529E+01 0.  0.
     999903    2    3    3    0    0  0.61831223043E-01 -0.10756914820E+00  0.34829318368E-01  0.13041951022E+00  0.20048577022E-01 0.  0.
         14    1    1    2    0    0 -0.21247490651E-01 -0.10887211748E-01  0.13303222041E-02  0.23911440688E-01  0.00000000000E+00 0. -1.
     999901    1    3    3    0    0 -0.40583732392E-01  0.11845635994E+00 -0.36159640572E-01  0.88959904910E+00  0.88000000000E+00 0. -1.
        -11    1    4    4    0    0  0.41382746762E-01 -0.64955371880E-01  0.30903295681E-01  0.82987992328E-01  0.51100000000E-03 0.  1.
         11    1    4    4    0    0  0.20448476281E-01 -0.42613776315E-01  0.39260226869E-02  0.47431517888E-01  0.51100000000E-03 0. -1.
</event>
<event>
 8    1  0.1183092E+005  0.1043930E+01  0.7957747E-01            NaN
         13   -1    0    0    0    0  0.00000000000E+00  0.00000000000E+00  0.74505805969E-08  0.10566000000E+00  0.10566000000E+00 0. -1.
     999900   -1    0    0    0    0 -0.00000000000E+00 -0.00000000000E+00 -0.74505805969E-08  0.93827000000E+00  0.93827000000E+00 0.  1.
     999902    2    1    2    0    0  0.14258021149E-01 -0.13280224450E-01  0.13669588871E-01  0.10201284625E+01  0.10198507571E+01 0.  0.
     999903    2    3    3    0    0 -0.26316598226E-01  0.45858669444E-01  0.11820021019E+00  0.13104446234E+00  0.20143994510E-01 0.  0.
         14    1    1    2    0    0 -0.14258021149E-01  0.13280224450E-01 -0.13669588871E-01  0.23801537523E-01  0.00000000000E+00 0.  1.
     999901    1    3    3    0    0  0.40574619375E-01 -0.59138893894E-01 -0.10453062132E+00  0.88908400014E+00  0.88000000000E+00 0.  1.
        -11    1    4    4    0    0 -0.18524333916E-01  0.41243564989E-01  0.81114282973E-01  0.92865335961E-01  0.51100000000E-03 0. -1.
         11    1    4    4    0    0 -0.77922643100E-02  0.46151044548E-02  0.37085927220E-01  0.38179126378E-01  0.51100000000E-03 0.  1.
</event>
<event>
 8    1  0.1183092E+005  0.1043930E+01  0.7957747E-01            NaN
         13   -1    0    0    0    0  0.00000000000E+00  0.00000000000E+00  0.74505805969E-08  0.10566000000E+00  0.10566000000E+00 0.  1.
     999900   -1    0    0    0    0 -0.00000000000E+00 -0.00000000000E+00 -0.74505805969E-08  0.93827000000E+00  0.93827000000E+00 0.  1.
     999902    2    1    2    0    0  0.31619186979E-02 -0.16808719296E-01 -0.19376442969E-01  0.10180847429E+01  0.10177566341E+01 0.  0.
     999903    2    3    3    0    0  0.54897565038E-01  0.80744729939E-01 -0.81721053457E-01  0.12899526311E+00  0.20687998118E-01 0.  0.
         14    1    1    2    0    0 -0.31619186979E-02  0.16808719296E-01  0.19376442969E-01  0.25845257134E-01  0.00000000000E+00 0.  1.
     999901    1    3    3    0    0 -0.51735646340E-01 -0.97553449235E-01  0.62344610488E-01  0.88908947976E+00  0.88000000000E+00 0. -1.
        -11    1    4    4    0    0  0.14504636577E-01  0.81277536162E-02 -0.15546635167E-01  0.22768483636E-01  0.51100000000E-03 0.  1.
         11    1    4    4    0    0  0.40392928461E-01  0.72616976322E-01 -0.66174418290E-01  0.10622677947E+00  0.51100000000E-03 0. -1.
</event>
<event>
 8    1  0.1183092E+005  0.1043930E+01  0.7957747E-01            NaN
         13   -1    0    0    0    0  0.00000000000E+00  0.00000000000E+00  0.74505805969E-08  0.10566000000E+00  0.10566000000E+00 0. -1.
     999900   -1    0    0    0    0 -0.00000000000E+00 -0.00000000000E+00 -0.74505805969E-08  0.93827000000E+00  0.93827000000E+00 0.  1.
     999902    2    1    2    0    0  0.14673845936E-01 -0.15937105093E-01 -0.78776596422E-02  0.10208785229E+01  0.10206182381E+01 0.  0.
     999903    2    3    3    0    0 -0.12070861386E+00 -0.22185119834E-01 -0.37317963421E-01  0.13001704123E+00  0.21190837956E-01 0.  0.
         14    1    1    2    0    0 -0.14673845936E-01  0.15937105093E-01  0.78776596422E-02  0.23051477062E-01  0.00000000000E+00 0. -1.
     999901    1    3    3    0    0  0.13538245980E+00  0.62480147410E-02  0.29440303778E-01  0.89086148171E+00  0.88000000000E+00 0. -1.
        -11    1    4    4    0    0 -0.66986795926E-01 -0.20681913886E-01 -0.14310972595E-01  0.71554436955E-01  0.51100000000E-03 0.  1.
         11    1    4    4    0    0 -0.53721817935E-01 -0.15032059484E-02 -0.23006990825E-01  0.58462604272E-01  0.51100000000E-03 0. -1.
</event>
<event>
 8    1  0.1183092E+005  0.1043930E+01  0.7957747E-01            NaN
         13   -1    0    0    0    0  0.00000000000E+00  0.00000000000E+00  0.74505805969E-08  0.10566000000E+00  0.10566000000E+00 0.  1.
     999900   -1    0    0    0    0 -0.00000000000E+00 -0.00000000000E+00 -0.74505805969E-08  0.93827000000E+00  0.93827000000E+00 0.  1.
     999902    2    1    2    0    0 -0.98628444377E-02  0.10872586439E-01 -0.18932082913E-01  0.10199735270E+01  0.10196921512E+01 0.  0.
     999903    2    3    3    0    0 -0.64468303514E-01  0.28413618476E-01  0.10552107803E+00  0.12936809625E+00  0.25256891057E-01 0.  0.
         14    1    1    2    0    0  0.98628444377E-02 -0.10872586439E-01  0.18932082913E-01  0.23956473023E-01  0.00000000000E+00 0.  1.
     999901    1    3    3    0    0  0.54605459077E-01 -0.17541032036E-01 -0.12445316095E+00  0.89060543072E+00  0.88000000000E+00 0.  1.
        -11    1    4    4    0    0 -0.22029643611E-01  0.18681328142E-01  0.58731536596E-01  0.65451903950E-01  0.51100000000E-03 0. -1.
         11    1    4    4    0    0 -0.42438659904E-01  0.97322903337E-02  0.46789541436E-01  0.63916192302E-01  0.51100000000E-03 0.  1.
</event>
<event>
 8    1  0.1183092E+005  0.1043930E+01  0.7957747E-01            NaN
         13   -1    0    0    0    0  0.00000000000E+00  0.00000000000E+00  0.74505805969E-08  0.10566000000E+00  0.10566000000E+00 0. -1.
     999900   -1    0    0    0    0 -0.00000000000E+00 -0.00000000000E+00 -0.74505805969E-08  0.93827000000E+00  0.93827000000E+00 0.  1.
     999902    2    1    2    0    0  0.10024300635E-01 -0.20391161589E-01 -0.68042027846E-02  0.10202111626E+01  0.10199354063E+01 0.  0.
     999903    2    3    3    0    0 -0.12327754843E+00  0.20979761406E-01 -0.20238338270E-01  0.12910992688E+00  0.24945511528E-01 0.  0.
         14    1    1    2    0    0 -0.10024300635E-01  0.20391161589E-01  0.68042027846E-02  0.23718837445E-01  0.00000000000E+00 0. -1.
     999901    1    3    3    0    0  0.13330184907E+00 -0.41370922995E-01  0.13434135485E-01  0.89110123568E+00  0.88000000000E+00 0. -1.
        -11    1    4    4    0    0 -0.67109636581E-01  0.42585210117E-02 -0.21157715571E-01  0.70496442268E-01  0.51100000000E-03 0. -1.
         11    1    4    4    0    0 -0.56167911852E-01  0.16721240394E-01  0.91937730116E-03  0.58613484607E-01  0.51100000000E-03 0.  1.
</event>
<event>
 8    1  0.1183092E+005  0.1043930E+01  0.7957747E-01            NaN
         13   -1    0    0    0    0  0.00000000000E+00  0.00000000000E+00  0.74505805969E-08  0.10566000000E+00  0.10566000000E+00 0.  1.
     999900   -1    0    0    0    0 -0.00000000000E+00 -0.00000000000E+00 -0.74505805969E-08  0.93827000000E+00  0.93827000000E+00 0. -1.
     999902    2    1    2    0    0 -0.10034054169E-01 -0.19226051814E-01 -0.11593414638E-01  0.10193387297E+01  0.10190420577E+01 0.  0.
     999903    2    3    3    0    0  0.42775346673E-01  0.64759818326E-01 -0.10110892844E+00  0.12925138208E+00  0.21432218918E-01 0.  0.
         14    1    1    2    0    0  0.10034054169E-01  0.19226051814E-01  0.11593414638E-01  0.24591270288E-01  0.00000000000E+00 0.  1.
     999901    1    3    3    0    0 -0.52809400842E-01 -0.83985870140E-01  0.89515513799E-01  0.89008734763E+00  0.88000000000E+00 0.  1.
        -11    1    4    4    0    0  0.21334420494E-01  0.21461345110E-01 -0.53204211904E-01  0.61210261534E-01  0.51100000000E-03 0.  1.
         11    1    4    4    0    0  0.21440926180E-01  0.43298473216E-01 -0.47904716533E-01  0.68041120548E-01  0.51100000000E-03 0. -1.
</event>
<event>
 8    1  0.1183092E+005  0.1043930E+01  0.7957747E-01            NaN
         13   -1    0    0    0    0  0.00000000000E+00  0.00000000000E+00  0.74505805969E-08  0.10566000000E+00  0.10566000000E+00 0.  1.
     999900   -1    0    0    0    0 -0.00000000000E+00 -0.00000000000E+00 -0.74505805969E-08  0.93827000000E+00  0.93827000000E+00 0.  1.
     999902    2    1    2    0    0  0.16797845052E-01 -0.27494943977E-02  0.15701123302E-01  0.10207728717E+01  0.10205101680E+01 0.  0.
     999903    2    3    3    0    0  0.77987245601E-02 -0.53144668864E-01  0.12031402343E+00  0.13309921734E+00  0.18835113195E-01 0.  0.
         14    1    1    2    0    0 -0.16797845052E-01  0.27494943977E-02 -0.15701123302E-01  0.23157128293E-01  0.00000000000E+00 0. -1.
     999901    1    3    3    0    0  0.89991204924E-02  0.50395174466E-01 -0.10461290013E+00  0.88767365436E+00  0.88000000000E+00 0.  1.
        -11    1    4    4    0    0  0.13492697498E-01 -0.27857359675E-01  0.67886639663E-01  0.74611945019E-01  0.51100000000E-03 0. -1.
         11    1    4    4    0    0 -0.56939729375E-02 -0.25287309189E-01  0.52427383771E-01  0.58487272323E-01  0.51100000000E-03 0.  1.
</event>
<event>
 8    1  0.1183092E+005  0.1043930E+01  0.7957747E-01            NaN
         13   -1    0    0    0    0  0.00000000000E+00  0.00000000000E+00  0.74505805969E-08  0.10566000000E+00  0.10566000000E+00 0.  1.
     999900   -1    0    0    0    0 -0.00000000000E+00 -0.00000000000E+00 -0.74505805969E-08  0.93827000000E+00  0.93827000000E+00 0.  1.
     999902    2    1    2    0    0  0.18763967049E-01 -0.67418516114E-02  0.12425529194E-01  0.10204367499E+01  0.10201662746E+01 0.  0.
     999903    2    3    3    0    0 -0.10979298373E+00  0.55207947112E-01 -0.30449011013E-01  0.12791061959E+00  0.18208998681E-01 0.  0.
         14    1    1    2    0    0 -0.18763967049E-01  0.67418516114E-02 -0.12425529194E-01  0.23493250059E-01  0.00000000000E+00 0. -1.
     999901    1    3    3    0    0  0.12855695078E+00 -0.61949798724E-01  0.42874540207E-01  0.89252613035E+00  0.88000000000E+00 0.  1.
        -11    1    4    4    0    0 -0.80464872763E-01  0.39891402333E-01 -0.30407689729E-01  0.94819873679E-01  0.51100000000E-03 0. -1.
         11    1    4    4    0    0 -0.29328110965E-01  0.15316544780E-01 -0.41321283982E-04  0.33090745915E-01  0.51100000000E-03 0.  1.
</event>
<event>
 8    1  0.1183092E+005  0.1043930E+01  0.7957747E-01            NaN
         13   -1    0    0    0    0  0.00000000000E+00  0.00000000000E+00  0.74505805969E-08  0.10566000000E+00  0.10566000000E+00 0. -1.
     999900   -1    0    0    0    0 -0.00000000000E+00 -0.00000000000E+00 -0.74505805969E-08  0.93827000000E+00  0.93827000000E+00 0. -1.
     999902    2    1    2    0    0  0.68624401400E-02 -0.11727365088E-01 -0.21061160490E-01  0.10188661484E+01  0.10185578195E+01 0.  0.
     999903    2    3    3    0    0  0.10897165448E+00  0.63739558863E-01 -0.25271989270E-01  0.12974339008E+00  0.16034992406E-01 0.  0.
         14    1    1    2    0    0 -0.68624401400E-02  0.11727365088E-01  0.21061160490E-01  0.25063851615E-01  0.00000000000E+00 0. -1.
     999901    1    3    3    0    0 -0.10210921434E+00 -0.75466923951E-01  0.42108287800E-02  0.88912275831E+00  0.88000000000E+00 0.  1.
        -11    1    4    4    0    0  0.42780334702E-01  0.32229437806E-01 -0.15651039811E-01  0.55804210116E-01  0.51100000000E-03 0. -1.
         11    1    4    4    0    0  0.66191319782E-01  0.31510121057E-01 -0.96209494589E-02  0.73939179959E-01  0.51100000000E-03 0.  1.
</event>
<event>
 8    1  0.1183092E+005  0.1043930E+01  0.7957747E-01            NaN
         13   -1    0    0    0    0  0.00000000000E+00  0.00000000000E+00  0.74505805969E-08  0.10566000000E+00  0.10566000000E+00 0.  1.
     999900   -1    0    0    0    0 -0.00000000000E+00 -0.00000000000E+00 -0.74505805969E-08  0.93827000000E+00  0.93827000000E+00 0.  1.
     999902    2    1    2    0    0 -0.15587018087E-01  0.14257137861E-01  0.11941400890E-01  0.10196644242E+01  0.10193756520E+01 0.  0.
     999903    2    3    3    0    0 -0.81091778846E-02 -0.12650618609E+00  0.47539934182E-02  0.12841704538E+00  0.19969056190E-01 0.  0.
         14    1    1    2    0    0  0.15587018087E-01 -0.14257137861E-01 -0.11941400890E-01  0.24265575782E-01  0.00000000000E+00 0.  1.
     999901    1    3    3    0    0 -0.74778402019E-02  0.14076332395E+00  0.71874074718E-02  0.89124737884E+00  0.88000000000E+00 0.  1.
        -11    1    4    4    0    0 -0.41598326883E-03 -0.78421245524E-01  0.11465090366E-01  0.79257644487E-01  0.51100000000E-03 0.  1.
         11    1    4    4    0    0 -0.76931946158E-02 -0.48084940566E-01 -0.67110969477E-02  0.49159400890E-01  0.51100000000E-03 0. -1.
</event>
<event>
 8    1  0.1183092E+005  0.1043930E+01  0.7957747E-01            NaN
         13   -1    0    0    0    0  0.00000000000E+00  0.00000000000E+00  0.74505805969E-08  0.10566000000E+00  0.10566000000E+00 0.  1.
     999900   -1    0    0    0    0 -0.00000000000E+00 -0.00000000000E+00 -0.74505805969E-08  0.93827000000E+00  0.93827000000E+00 0. -1.
     999902    2    1    2    0    0  0.25837954507E-02 -0.20795097010E-01 -0.94881549238E-02  0.10209270188E+01  0.10206678405E+01 0.  0.
     999903    2    3    3    0    0  0.70897830177E-01  0.39932332399E-01  0.98851597355E-01  0.12958413871E+00  0.19982922997E-01 0.  0.
         14    1    1    2    0    0 -0.25837954507E-02  0.20795097010E-01  0.94881549238E-02  0.23002981164E-01  0.00000000000E+00 0.  1.
     999901    1    3    3    0    0 -0.68314034727E-01 -0.60727429409E-01 -0.10833975228E+00  0.89134288012E+00  0.88000000000E+00 0. -1.
        -11    1    4    4    0    0  0.47226877072E-01  0.36538880809E-01  0.66931651042E-01  0.89697127941E-01  0.51100000000E-03 0.  1.
         11    1    4    4    0    0  0.23670953106E-01  0.33934515903E-02  0.31919946313E-01  0.39887010771E-01  0.51100000000E-03 0. -1.
</event>
<event>
 8    1  0.1183092E+005  0.1043930E+01  0.7957747E-01            NaN
         13   -1    0    0    0    0  0.00000000000E+00  0.00000000000E+00  0.74505805969E-08  0.10566000000E+00  0.10566000000E+00 0. -1.
     999900   -1    0    0    0    0 -0.00000000000E+00 -0.00000000000E+00 -0.74505805969E-08  0.93827000000E+00  0.93827000000E+00 0.  1.
     999902    2    1    2    0    0  0.11973387121E-01 -0.12654982621E-02 -0.21095921657E-01  0.10196400557E+01  0.10193506961E+01 0.  0.
     999903    2    3    3    0    0  0.47363000305E-01  0.11255267093E+00 -0.44045408073E-01  0.13130809109E+00  0.19760042601E-01 0.  0.
         14    1    1    2    0    0 -0.11973387121E-01  0.12654982621E-02  0.21095921657E-01  0.24289944330E-01  0.00000000000E+00 0. -1.
     999901    1    3    3    0    0 -0.35389613185E-01 -0.11381816919E+00  0.22949486416E-01  0.88833196458E+00  0.88000000000E+00 0.  1.
        -11    1    4    4    0    0  0.32109824542E-01  0.75406167465E-01 -0.39218148183E-01  0.90859535503E-01  0.51100000000E-03 0.  1.
         11    1    4    4    0    0  0.15253175763E-01  0.37146503463E-01 -0.48272598897E-02  0.40448555592E-01  0.51100000000E-03 0. -1.
</event>
<event>
 8    1  0.1183092E+005  0.1043930E+01  0.7957747E-01            NaN
         13   -1    0    0    0    0  0.00000000000E+00  0.00000000000E+00  0.74505805969E-08  0.10566000000E+00  0.10566000000E+00 0. -1.
     999900   -1    0    0    0    0 -0.00000000000E+00 -0.00000000000E+00 -0.74505805969E-08  0.93827000000E+00  0.93827000000E+00 0.  1.
     999902    2    1    2    0    0 -0.15825567839E-03 -0.24629816842E-02 -0.21798654896E-01  0.10219920721E+01  0.10217565869E+01 0.  0.
     999903    2    3    3    0    0 -0.52204546512E-01  0.18772807842E-01 -0.12107640039E+00  0.13462752140E+00  0.19681000900E-01 0.  0.
         14    1    1    2    0    0  0.15825567839E-03  0.24629816842E-02  0.21798654896E-01  0.21937927862E-01  0.00000000000E+00 0. -1.
     999901    1    3    3    0    0  0.52046290834E-01 -0.21235789526E-01  0.99277745498E-01  0.88736455073E+00  0.88000000000E+00 0. -1.
        -11    1    4    4    0    0 -0.29925390782E-01  0.82525495563E-02 -0.88446796395E-01  0.93737561848E-01  0.51100000000E-03 0. -1.
         11    1    4    4    0    0 -0.22279155730E-01  0.10520258285E-01 -0.32629603999E-01  0.40889959557E-01  0.51100000000E-03 0.  1.
</event>
<event>
 8    1  0.1183092E+005  0.1043930E+01  0.7957747E-01            NaN
         13   -1    0    0    0    0  0.00000000000E+00  0.00000000000E+00  0.74505805969E-08  0.10566000000E+00  0.10566000000E+00 0. -1.
     999900   -1    0    0    0    0 -0.00000000000E+00 -0.00000000000E+00 -0.74505805969E-08  0.93827000000E+00  0.93827000000E+00 0.  1.
     999902    2    1    2    0    0 -0.17089804353E-01 -0.84926598854E-02 -0.13258000598E-01  0.10206929334E+01  0.10204283919E+01 0.  0.
     999903    2    3    3    0    0 -0.36003450348E-02  0.49225410151E-02  0.12761942242E+00  0.12928484422E+00  0.19765122596E-01 0.  0.
         14    1    1    2    0    0  0.17089804353E-01  0.84926598854E-02  0.13258000598E-01  0.23237066609E-01  0.00000000000E+00 0. -1.
     999901    1    3    3    0    0 -0.13489459318E-01 -0.13415200901E-01 -0.14087742302E+00  0.89140808917E+00  0.88000000000E+00 0.  1.
        -11    1    4    4    0    0  0.24172984722E-02 -0.59731122287E-02  0.71891979755E-01  0.72181987197E-01  0.51100000000E-03 0.  1.
         11    1    4    4    0    0 -0.60176435070E-02  0.10895653244E-01  0.55727442664E-01  0.57102857020E-01  0.51100000000E-03 0. -1.
</event>
<event>
 8    1  0.1183092E+005  0.1043930E+01  0.7957747E-01            NaN
         13   -1    0    0    0    0  0.00000000000E+00  0.00000000000E+00  0.74505805969E-08  0.10566000000E+00  0.10566000000E+00 0.  1.
     999900   -1    0    0    0    0 -0.00000000000E+00 -0.00000000000E+00 -0.74505805969E-08  0.93827000000E+00  0.93827000000E+00 0. -1.
     999902    2    1    2    0    0  0.71302417158E-02 -0.83278026464E-02  0.21128387905E-01  0.10201266091E+01  0.10198488599E+01 0.  0.
     999903    2    3    3    0    0 -0.72768317294E-01 -0.75348143951E-01 -0.72502413274E-01  0.12903613510E+00  0.20522023135E-01 0.  0.
         14    1    1    2    0    0 -0.71302417158E-02  0.83278026464E-02 -0.21128387905E-01  0.23803390920E-01  0.00000000000E+00 0. -1.
     999901    1    3    3    0    0  0.79898559010E-01  0.67020341304E-01  0.93630801179E-01  0.89109047398E+00  0.88000000000E+00 0.  1.
        -11    1    4    4    0    0 -0.26848500197E-01 -0.27333266428E-01 -0.38821095443E-01  0.54546200498E-01  0.51100000000E-03 0. -1.
         11    1    4    4    0    0 -0.45919817097E-01 -0.48014877523E-01 -0.33681317831E-01  0.74489934606E-01  0.51100000000E-03 0.  1.
</event>
<event>
 8    1  0.1183092E+005  0.1043930E+01  0.7957747E-01            NaN
         13   -1    0    0    0    0  0.00000000000E+00  0.00000000000E+00  0.74505805969E-08  0.10566000000E+00  0.10566000000E+00 0.  1.
     999900   -1    0    0    0    0 -0.00000000000E+00 -0.00000000000E+00 -0.74505805969E-08  0.93827000000E+00  0.93827000000E+00 0.  1.
     999902    2    1    2    0    0  0.20807142764E-01 -0.89907012234E-02  0.31032608957E-02  0.10210520603E+01  0.10207957238E+01 0.  0.
     999903    2    3    3    0    0 -0.94515542121E-01 -0.27282571359E-01 -0.81742725974E-01  0.12929382192E+00  0.18907478274E-01 0.  0.
         14    1    1    2    0    0 -0.20807142764E-01  0.89907012234E-02 -0.31032608957E-02  0.22877939738E-01  0.00000000000E+00 0.  1.
     999901    1    3    3    0    0  0.11532268488E+00  0.18291870135E-01  0.84845986870E-01  0.89175823834E+00  0.88000000000E+00 0. -1.
        -11    1    4    4    0    0 -0.59159733757E-01 -0.26302276319E-01 -0.50770619033E-01  0.82277583313E-01  0.51100000000E-03 0.  1.
         11    1    4    4    0    0 -0.35355808364E-01 -0.98029503973E-03 -0.30972106941E-01  0.47016238608E-01  0.51100000000E-03 0. -1.
</event>
<event>
 8    1  0.1183092E+005  0.1043930E+01  0.7957747E-01            NaN
         13   -1    0    0    0    0  0.00000000000E+00  0.00000000000E+00  0.74505805969E-08  0.10566000000E+00  0.10566000000E+00 0. -1.
     999900   -1    0    0    0    0 -0.00000000000E+00 -0.00000000000E+00 -0.74505805969E-08  0.93827000000E+00  0.93827000000E+00 0.  1.
     999902    2    1    2    0    0 -0.10667035684E-01  0.17075293204E-01 -0.12181654829E-01  0.10203982342E+01  0.10201268609E+01 0.  0.
     999903    2    3    3    0    0 -0.58034539906E-01 -0.10817730528E+00  0.34619871170E-01  0.12903844334E+00  0.19546027249E-01 0.  0.
         14    1    1    2    0    0  0.10667035684E-01 -0.17075293204E-01  0.12181654829E-01  0.23531765821E-01  0.00000000000E+00 0. -1.
     999901    1    3    3    0    0  0.47367504222E-01  0.12525259848E+00 -0.46801525999E-01  0.89135979084E+00  0.88000000000E+00 0.  1.
        -11    1    4    4    0    0 -0.13949599862E-01 -0.42056293444E-01  0.18109156835E-01  0.47869884446E-01  0.51100000000E-03 0. -1.
         11    1    4    4    0    0 -0.44084940044E-01 -0.66121011835E-01  0.16510714335E-01  0.81168558898E-01  0.51100000000E-03 0.  1.
</event>
<event>
 8    1  0.1183092E+005  0.1043930E+01  0.7957747E-01            NaN
         13   -1    0    0    0    0  0.00000000000E+00  0.00000000000E+00  0.74505805969E-08  0.10566000000E+00  0.10566000000E+00 0. -1.
     999900   -1    0    0    0    0 -0.00000000000E+00 -0.00000000000E+00 -0.74505805969E-08  0.93827000000E+00  0.93827000000E+00 0. -1.
     999902    2    1    2    0    0 -0.12501079774E-02 -0.48334506865E-02 -0.22663076637E-01  0.10207235341E+01  0.10204596969E+01 0.  0.
     999903    2    3    3    0    0  0.12443602408E+00  0.12100127032E-01  0.30114190930E-01  0.13006692813E+00  0.19488564217E-01 0.  0.
         14    1    1    2    0    0  0.12501079774E-02  0.48334506865E-02  0.22663076637E-01  0.23206465869E-01  0.00000000000E+00 0. -1.
     999901    1    3    3    0    0 -0.12568613205E+00 -0.16933577719E-01 -0.52777267566E-01  0.89065660600E+00  0.88000000000E+00 0. -1.
        -11    1    4    4    0    0  0.25362385562E-01 -0.36406845827E-02  0.11264132435E-01  0.27993695471E-01  0.51100000000E-03 0.  1.
         11    1    4    4    0    0  0.99073638514E-01  0.15740811615E-01  0.18850058494E-01  0.10207323266E+00  0.51100000000E-03 0. -1.
</event>
<event>
 8    1  0.1183092E+005  0.1043930E+01  0.7957747E-01            NaN
         13   -1    0    0    0    0  0.00000000000E+00  0.00000000000E+00  0.74505805969E-08  0.10566000000E+00  0.10566000000E+00 0.  1.
     999900   -1    0    0    0    0 -0.00000000000E+00 -0.00000000000E+00 -0.74505805969E-08  0.93827000000E+00  0.93827000000E+00 0. -1.
     999902    2    1    2    0    0 -0.18534446667E-01 -0.11031453926E-02  0.14817261723E-01  0.10201751292E+01  0.10198985245E+01 0.  0.
     999903    2    3    3    0    0 -0.12953455390E+00  0.18816889708E-01  0.14351620049E-01  0.13297839314E+00  0.18547454052E-01 0.  0.
         14    1    1    2    0    0  0.18534446667E-01  0.11031453926E-02 -0.14817261723E-01  0.23754870827E-01  0.00000000000E+00 0.  1.
     999901    1    3    3    0    0  0.11100010723E+00 -0.19920035101E-01  0.46564167418E-03  0.88719673603E+00  0.88000000000E+00 0. -1.
        -11    1    4    4    0    0 -0.41250004406E-01  0.10281188330E-01 -0.29183199671E-02  0.42615060828E-01  0.51100000000E-03 0. -1.
         11    1    4    4    0    0 -0.88284549495E-01  0.85357013781E-02  0.17269940016E-01  0.90363332313E-01  0.51100000000E-03 0.  1.
</event>
<event>
 8    1  0.1183092E+005  0.1043930E+01  0.7957747E-01            NaN
         13   -1    0    0    0    0  0.00000000000E+00  0.00000000000E+00  0.74505805969E-08  0.10566000000E+00  0.10566000000E+00 0.  1.
     999900   -1    0    0    0    0 -0.00000000000E+00 -0.00000000000E+00 -0.74505805969E-08  0.93827000000E+00  0.93827000000E+00 0.  1.
     999902    2    1    2    0    0 -0.80971544201E-02  0.24217408255E-01 -0.15016751343E-01  0.10143065364E+01  0.10138738582E+01 0.  0.
     999903    2    3    3    0    0 -0.44587220765E-01 -0.23940817824E-01 -0.11461757297E+00  0.12662919453E+00  0.18346167417E-01 0.  0.
         14    1    1    2    0    0  0.80971544201E-02 -0.24217408255E-01  0.15016751343E-01  0.29623463558E-01  0.00000000000E+00 0.  1.
     999901    1    3    3    0    0  0.36490066345E-01  0.48158226079E-01  0.99600821629E-01  0.88767734192E+00  0.88000000000E+00 0. -1.
        -11    1    4    4    0    0 -0.30026356770E-01 -0.18577272370E-01 -0.96562677667E-01  0.10281687113E+00  0.51100000000E-03 0.  1.
         11    1    4    4    0    0 -0.14560863995E-01 -0.53635454541E-02 -0.18054895304E-01  0.23812323397E-01  0.51100000000E-03 0. -1.
</event>
<event>
 8    1  0.1183092E+005  0.1043930E+01  0.7957747E-01            NaN
         13   -1    0    0    0    0  0.00000000000E+00  0.00000000000E+00  0.74505805969E-08  0.10566000000E+00  0.10566000000E+00 0. -1.
     999900   -1    0    0    0    0 -0.00000000000E+00 -0.00000000000E+00 -0.74505805969E-08  0.93827000000E+00  0.93827000000E+00 0. -1.
     999902    2    1    2    0    0 -0.81401928888E-02 -0.13641307878E-01 -0.81911665170E-02  0.10260570252E+01  0.10259013479E+01 0.  0.
     999903    2    3    3    0    0 -0.33337656290E-02  0.10536521992E+00  0.79694692492E-01  0.13369522655E+00  0.20254037350E-01 0.  0.
         14    1    1    2    0    0  0.81401928888E-02  0.13641307878E-01  0.81911665170E-02  0.17872974844E-01  0.00000000000E+00 0. -1.
     999901    1    3    3    0    0 -0.48064272598E-02 -0.11900652779E+00 -0.87885859009E-01  0.89236179861E+00  0.88000000000E+00 0.  1.
        -11    1    4    4    0    0  0.32164199698E-02  0.53576636868E-02  0.11804384472E-02  0.63800057626E-02  0.51100000000E-03 0. -1.
         11    1    4    4    0    0 -0.65501855988E-02  0.10000755623E+00  0.78514254045E-01  0.12731522079E+00  0.51100000000E-03 0.  1.
</event>
<event>
 8    1  0.1183092E+005  0.1043930E+01  0.7957747E-01            NaN
         13   -1    0    0    0    0  0.00000000000E+00  0.00000000000E+00  0.74505805969E-08  0.10566000000E+00  0.10566000000E+00 0.  1.
     999900   -1    0    0    0    0 -0.00000000000E+00 -0.00000000000E+00 -0.74505805969E-08  0.93827000000E+00  0.93827000000E+00 0.  1.
     999902    2    1    2    0    0 -0.17830403091E-01 -0.53362462706E-03 -0.16509782079E-01  0.10196240144E+01  0.10193342680E+01 0.  0.
     999903    2    3    3    0    0 -0.99238211574E-02  0.56026438885E-01 -0.11739200107E+00  0.13202118832E+00  0.20279747781E-01 0.  0.
         14    1    1    2    0    0  0.17830403091E-01  0.53362462706E-03  0.16509782079E-01  0.24305985558E-01  0.00000000000E+00 0.  1.
     999901    1    3    3    0    0 -0.79065819339E-02 -0.56560063512E-01  0.10088221899E+00  0.88760282612E+00  0.88000000000E+00 0. -1.
        -11    1    4    4    0    0 -0.85983019474E-02  0.87205733907E-02 -0.33907159952E-01  0.36054622640E-01  0.51100000000E-03 0.  1.
         11    1    4    4    0    0 -0.13255192100E-02  0.47305865494E-01 -0.83484841121E-01  0.95966565685E-01  0.51100000000E-03 0. -1.
</event>
<event>
 8    1  0.1183092E+005  0.1043930E+01  0.7957747E-01            NaN
         13   -1    0    0    0    0  0.00000000000E+00  0.00000000000E+00  0.74505805969E-08  0.10566000000E+00  0.10566000000E+00 0.  1.
     999900   -1    0    0    0    0 -0.00000000000E+00 -0.00000000000E+00 -0.74505805969E-08  0.93827000000E+00  0.93827000000E+00 0.  1.
     999902    2    1    2    0    0 -0.20532492381E-01  0.55840184298E-02  0.12147643142E-01  0.10194283727E+01  0.10191338859E+01 0.  0.
     999903    2    3    3    0    0 -0.47456145520E-01  0.53214508305E-01  0.10981841474E+00  0.13233585991E+00  0.19204842104E-01 0.  0.
         14    1    1    2    0    0  0.20532492381E-01 -0.55840184298E-02 -0.12147643142E-01  0.24501627275E-01  0.00000000000E+00 0. -1.
     999901    1    3    3    0    0  0.26923653139E-01 -0.47630489875E-01 -0.97670771601E-01  0.88709251281E+00  0.88000000000E+00 0.  1.
        -11    1    4    4    0    0 -0.37375459484E-01  0.29398704187E-01  0.77689099450E-01  0.91088232357E-01  0.51100000000E-03 0. -1.
         11    1    4    4    0    0 -0.10080686035E-01  0.23815804118E-01  0.32129315294E-01  0.41247627556E-01  0.51100000000E-03 0.  1.
</event>
<event>
 8    1  0.1183092E+005  0.1043930E+01  0.7957747E-01            NaN
         13   -1    0    0    0    0  0.00000000000E+00  0.00000000000E+00  0.74505805969E-08  0.10566000000E+00  0.10566000000E+00 0.  1.
     999900   -1    0    0    0    0 -0.00000000000E+00 -0.00000000000E+00 -0.74505805969E-08  0.93827000000E+00  0.93827000000E+00 0. -1.
     999902    2    1    2    0    0  0.26894493635E-02 -0.16464921516E-01  0.17209873895E-01  0.10199611340E+01  0.10196794635E+01 0.  0.
     999903    2    3    3    0    0  0.88046678869E-01  0.36129281491E-01 -0.83820036832E-01  0.12852462493E+00  0.20862358405E-01 0.  0.
         14    1    1    2    0    0 -0.26894493635E-02  0.16464921516E-01 -0.17209873895E-01  0.23968866012E-01  0.00000000000E+00 0. -1.
     999901    1    3    3    0    0 -0.85357229506E-01 -0.52594203006E-01  0.10102991073E+00  0.89143650906E+00  0.88000000000E+00 0.  1.
        -11    1    4    4    0    0  0.74492451466E-01  0.21748683467E-01 -0.64978623029E-01  0.10121567630E+00  0.51100000000E-03 0.  1.
         11    1    4    4    0    0  0.13554227403E-01  0.14380598023E-01 -0.18841413803E-01  0.27308948626E-01  0.51100000000E-03 0. -1.
</event>
<event>
 8    1  0.1183092E+005  0.1043930E+01  0.7957747E-01            NaN
         13   -1    0    0    0    0  0.00000000000E+00  0.00000000000E+00  0.74505805969E-08  0.10566000000E+00  0.10566000000E+00 0.  1.
     999900   -1    0    0    0    0 -0.00000000000E+00 -0.00000000000E+00 -0.74505805969E-08  0.93827000000E+00  0.93827000000E+00 0. -1.
     999902    2    1    2    0    0 -0.26994717247E-03  0.40144956669E-02  0.22606951550E-01  0.10209677853E+01  0.10207095352E+01 0.  0.
     999903    2    3    3    0    0  0.63580848365E-01  0.19195482806E-01  0.11431845730E+00  0.13377085857E+00  0.20370127218E-01 0.  0.
         14    1    1    2    0    0  0.26994717247E-03 -0.40144956669E-02 -0.22606951550E-01  0.22962214731E-01  0.00000000000E+00 0. -1.
     999901    1    3    3    0    0 -0.63850795538E-01 -0.15180987140E-01 -0.91711505752E-01  0.88719692670E+00  0.88000000000E+00 0. -1.
        -11    1    4    4    0    0  0.48364890986E-01  0.97549968918E-02  0.67256456161E-01  0.83414714894E-01  0.51100000000E-03 0. -1.
         11    1    4    4    0    0  0.15215957379E-01  0.94404859146E-02  0.47062001141E-01  0.50356143674E-01  0.51100000000E-03 0.  1.
</event>
<event>
 8    1  0.1272122E+005  0.1043930E+01  0.7957747E-01            NaN
         13   -1    0    0    0    0  0.00000000000E+00  0.00000000000E+00  0.74505805969E-08  0.10566000000E+00  0.10566000000E+00 0.  1.
     999900   -1    0    0    0    0 -0.00000000000E+00 -0.00000000000E+00 -0.74505805969E-08  0.93827000000E+00  0.93827000000E+00 0. -1.
     999902    2    1    2    0    0 -0.10150786716E-04 -0.22773229537E-01  0.25219228956E-02  0.10210175540E+01  0.10207604349E+01 0.  0.
     999903    2    3    3    0    0 -0.26877011219E-01  0.12175644321E+00  0.39588831388E-02  0.12882210493E+00  0.32131865266E-01 0.  0.
         14    1    1    2    0    0  0.10150786716E-04  0.22773229537E-01 -0.25219228956E-02  0.22912446000E-01  0.00000000000E+00 0. -1.
     999901    1    3    3    0    0  0.26866860432E-01 -0.14452967275E+00 -0.14369602432E-02  0.89219544907E+00  0.88000000000E+00 0. -1.
        -11    1    4    4    0    0 -0.18314517189E-01  0.63900718770E-01  0.17596713439E-01  0.68765026314E-01  0.51100000000E-03 0. -1.
         11    1    4    4    0    0 -0.85624940294E-02  0.57855724445E-01 -0.13637830300E-01  0.60057078611E-01  0.51100000000E-03 0.  1.
</event>
<event>
 8    1  0.1183092E+005  0.1043930E+01  0.7957747E-01            NaN
         13   -1    0    0    0    0  0.00000000000E+00  0.00000000000E+00  0.74505805969E-08  0.10566000000E+00  0.10566000000E+00 0. -1.
     999900   -1    0    0    0    0 -0.00000000000E+00 -0.00000000000E+00 -0.74505805969E-08  0.93827000000E+00  0.93827000000E+00 0. -1.
     999902    2    1    2    0    0  0.86894584837E-03  0.19132945048E-01 -0.10614620190E-01  0.10220326300E+01  0.10217980240E+01 0.  0.
     999903    2    3    3    0    0  0.66014037914E-02 -0.12788382100E+00 -0.88785363301E-02  0.12981639800E+00  0.19380881774E-01 0.  0.
         14    1    1    2    0    0 -0.86894584837E-03 -0.19132945048E-01  0.10614620190E-01  0.21897370045E-01  0.00000000000E+00 0.  1.
     999901    1    3    3    0    0 -0.57324579430E-02  0.14701676604E+00 -0.17360838602E-02  0.89221623195E+00  0.88000000000E+00 0.  1.
        -11    1    4    4    0    0  0.82310511058E-02 -0.79017731472E-01 -0.13934827352E-01  0.80659733595E-01  0.51100000000E-03 0. -1.
         11    1    4    4    0    0 -0.16296473144E-02 -0.48866089525E-01  0.50562910221E-02  0.49156664408E-01  0.51100000000E-03 0.  1.
</event>
<event>
 8    1  0.1183092E+005  0.1043930E+01  0.7957747E-01            NaN
         13   -1    0    0    0    0  0.00000000000E+00  0.00000000000E+00  0.74505805969E-08  0.10566000000E+00  0.10566000000E+00 0.  1.
     999900   -1    0    0    0    0 -0.00000000000E+00 -0.00000000000E+00 -0.74505805969E-08  0.93827000000E+00  0.93827000000E+00 0.  1.
     999902    2    1    2    0    0  0.17839249455E-01 -0.13082943532E-01 -0.65032190721E-02  0.10208715072E+01  0.10206110621E+01 0.  0.
     999903    2    3    3    0    0 -0.41630761142E-02  0.73852370806E-02 -0.12996957287E+00  0.13174441320E+00  0.19814833012E-01 0.  0.
         14    1    1    2    0    0 -0.17839249455E-01  0.13082943532E-01  0.65032190721E-02  0.23058492814E-01  0.00000000000E+00 0.  1.
     999901    1    3    3    0    0  0.22002325569E-01 -0.20468180613E-01  0.12346635380E+00  0.88912709399E+00  0.88000000000E+00 0. -1.
        -11    1    4    4    0    0 -0.98977416752E-02 -0.15835207095E-02 -0.44793450392E-01  0.45904108173E-01  0.51100000000E-03 0.  1.
         11    1    4    4    0    0  0.57346655610E-02  0.89687577901E-02 -0.85176122476E-01  0.85840305023E-01  0.51100000000E-03 0. -1.
</event>
<event>
 8    1  0.1183092E+005  0.1043930E+01  0.7957747E-01            NaN
         13   -1    0    0    0    0  0.00000000000E+00  0.00000000000E+00  0.74505805969E-08  0.10566000000E+00  0.10566000000E+00 0.  1.
     999900   -1    0    0    0    0 -0.00000000000E+00 -0.00000000000E+00 -0.74505805969E-08  0.93827000000E+00  0.93827000000E+00 0. -1.
     999902    2    1    2    0    0 -0.83838542304E-02 -0.20480044203E-01 -0.97419172401E-02  0.10197509559E+01  0.10194642641E+01 0.  0.
     999903    2    3    3    0    0 -0.78396365732E-01  0.77955560493E-02  0.10111100504E+00  0.12958825632E+00  0.19050458817E-01 0.  0.
         14    1    1    2    0    0  0.83838542304E-02  0.20480044203E-01  0.97419172401E-02  0.24179044105E-01  0.00000000000E+00 0.  1.
     999901    1    3    3    0    0  0.70012511502E-01 -0.28275600252E-01 -0.11085292228E+00  0.89016269958E+00  0.88000000000E+00 0. -1.
        -11    1    4    4    0    0 -0.72706234536E-01  0.11849221774E-01  0.95509844342E-01  0.12061920280E+00  0.51100000000E-03 0. -1.
         11    1    4    4    0    0 -0.56901311960E-02 -0.40536657245E-02  0.56011607011E-02  0.89690535193E-02  0.51100000000E-03 0.  1.
</event>
<event>
 8    1  0.1183092E+005  0.1043930E+01  0.7957747E-01            NaN
         13   -1    0    0    0    0  0.00000000000E+00  0.00000000000E+00  0.74505805969E-08  0.10566000000E+00  0.10566000000E+00 0.  1.
     999900   -1    0    0    0    0 -0.00000000000E+00 -0.00000000000E+00 -0.74505805969E-08  0.93827000000E+00  0.93827000000E+00 0. -1.
     999902    2    1    2    0    0  0.89071683659E-02  0.24872067601E-01  0.11108072465E-01  0.10152708537E+01  0.10148662767E+01 0.  0.
     999903    2    3    3    0    0 -0.52678728041E-01 -0.87003820450E-01 -0.61883531377E-01  0.12306190325E+00  0.31143978779E-01 0.  0.
         14    1    1    2    0    0 -0.89071683659E-02 -0.24872067601E-01 -0.11108072465E-01  0.28659146340E-01  0.00000000000E+00 0. -1.
     999901    1    3    3    0    0  0.61585896407E-01  0.11187588805E+00  0.72991603843E-01  0.89220895041E+00  0.88000000000E+00 0.  1.
        -11    1    4    4    0    0 -0.45377568305E-01 -0.85259064735E-01 -0.63199095558E-01  0.11542364847E+00  0.51100000000E-03 0.  1.
         11    1    4    4    0    0 -0.73011597358E-02 -0.17447557148E-02  0.13155641808E-02  0.76382547814E-02  0.51100000000E-03 0. -1.
</event>
<event>
 8    1  0.1183092E+005  0.1043930E+01  0.7957747E-01            NaN
         13   -1    0    0    0    0  0.00000000000E+00  0.00000000000E+00  0.74505805969E-08  0.10566000000E+00  0.10566000000E+00 0. -1.
     999900   -1    0    0    0    0 -0.00000000000E+00 -0.00000000000E+00 -0.74505805969E-08  0.93827000000E+00  0.93827000000E+00 0. -1.
     999902    2    1    2    0    0  0.20006898611E-01 -0.13972169987E-01 -0.26608976846E-02  0.10193825378E+01  0.10190869347E+01 0.  0.
     999903    2    3    3    0    0 -0.10877792034E+00 -0.64712018334E-01 -0.11863022475E-01  0.12851512848E+00  0.18844778504E-01 0.  0.
         14    1    1    2    0    0 -0.20006898611E-01  0.13972169987E-01  0.26608976846E-02  0.24547462245E-01  0.00000000000E+00 0. -1.
     999901    1    3    3    0    0  0.12878481895E+00  0.50739848347E-01  0.92021247908E-02  0.89086740927E+00  0.88000000000E+00 0.  1.
        -11    1    4    4    0    0 -0.77018021427E-01 -0.42001076138E-01 -0.16255655429E-01  0.89220925100E-01  0.51100000000E-03 0.  1.
         11    1    4    4    0    0 -0.31759898912E-01 -0.22710942196E-01  0.43926329531E-02  0.39294203384E-01  0.51100000000E-03 0. -1.
</event>
<event>
 8    1  0.1183092E+005  0.1043930E+01  0.7957747E-01            NaN
         13   -1    0    0    0    0  0.00000000000E+00  0.00000000000E+00  0.74505805969E-08  0.10566000000E+00  0.10566000000E+00 0.  1.
     999900   -1    0    0    0    0 -0.00000000000E+00 -0.00000000000E+00 -0.74505805969E-08  0.93827000000E+00  0.93827000000E+00 0.  1.
     999902    2    1    2    0    0  0.19125451656E-01  0.14958335401E-01  0.21521164993E-02  0.10195544732E+01  0.10192630463E+01 0.  0.
     999903    2    3    3    0    0 -0.87786399022E-01 -0.60148272305E-01 -0.66927640581E-01  0.12722989151E+00  0.19592593123E-01 0.  0.
         14    1    1    2    0    0 -0.19125451656E-01 -0.14958335401E-01 -0.21521164993E-02  0.24375526752E-01  0.00000000000E+00 0. -1.
     999901    1    3    3    0    0  0.10691185068E+00  0.75106607707E-01  0.69079757080E-01  0.89232458174E+00  0.88000000000E+00 0.  1.
        -11    1    4    4    0    0 -0.76129488274E-01 -0.43236177729E-01 -0.51959050833E-01  0.10180898847E+00  0.51100000000E-03 0.  1.
         11    1    4    4    0    0 -0.11656910748E-01 -0.16912094577E-01 -0.14968589747E-01  0.25420903036E-01  0.51100000000E-03 0. -1.
</event>
<event>
 8    1  0.1183092E+005  0.1043930E+01  0.7957747E-01            NaN
         13   -1    0    0    0    0  0.00000000000E+00  0.00000000000E+00  0.74505805969E-08  0.10566000000E+00  0.10566000000E+00 0.  1.
     999900   -1    0    0    0    0 -0.00000000000E+00 -0.00000000000E+00 -0.74505805969E-08  0.93827000000E+00  0.93827000000E+00 0.  1.
     999902    2    1    2    0    0 -0.20089340117E-01 -0.12501392157E-01 -0.15685468338E-03  0.10202679841E+01  0.10199935629E+01 0.  0.
     999903    2    3    3    0    0 -0.57644852248E-01 -0.67967459961E-01  0.95978044943E-01  0.13250178737E+00  0.20060756216E-01 0.  0.
         14    1    1    2    0    0  0.20089340117E-01  0.12501392157E-01  0.15685468338E-03  0.23662015882E-01  0.00000000000E+00 0. -1.
     999901    1    3    3    0    0  0.37555512131E-01  0.55466067803E-01 -0.96134899626E-01  0.88776619675E+00  0.88000000000E+00 0.  1.
        -11    1    4    4    0    0 -0.11639547131E-01 -0.81773259189E-02  0.25794840788E-01  0.29461545257E-01  0.51100000000E-03 0.  1.
         11    1    4    4    0    0 -0.46005305117E-01 -0.59790134042E-01  0.70183204154E-01  0.10304024211E+00  0.51100000000E-03 0. -1.
</event>
<event>
 8    1  0.1183092E+005  0.1043930E+01  0.7957747E-01            NaN
         13   -1    0    0    0    0  0.00000000000E+00  0.00000000000E+00  0.74505805969E-08  0.10566000000E+00  0.10566000000E+00 0. -1.
     999900   -1    0    0    0    0 -0.00000000000E+00 -0.00000000000E+00 -0.74505805969E-08  0.93827000000E+00  0.93827000000E+00 0.  1.
     999902    2    1    2    0    0  0.82301209607E-03 -0.44432091417E-03  0.24106892207E-01  0.10198049710E+01  0.10195195741E+01 0.  0.
     999903    2    3    3    0    0 -0.78212043465E-02 -0.78944409648E-02  0.13131056789E+00  0.13322567124E+00  0.19573471950E-01 0.  0.
         14    1    1    2    0    0 -0.82301209607E-03  0.44432091417E-03 -0.24106892207E-01  0.24125028950E-01  0.00000000000E+00 0.  1.
     999901    1    3    3    0    0  0.86442164426E-02  0.74501200507E-02 -0.10720367568E+00  0.88657929981E+00  0.88000000000E+00 0.  1.
        -11    1    4    4    0    0  0.92519638270E-05 -0.13083353164E-01  0.74739733767E-01  0.75877948972E-01  0.51100000000E-03 0. -1.
         11    1    4    4    0    0 -0.78304563104E-02  0.51889121989E-02  0.56570834119E-01  0.57347722271E-01  0.51100000000E-03 0.  1.
</event>
<event>
 8    1  0.1183092E+005  0.1043930E+01  0.7957747E-01            NaN
         13   -1    0    0    0    0  0.00000000000E+00  0.00000000000E+00  0.74505805969E-08  0.10566000000E+00  0.10566000000E+00 0. -1.
     999900   -1    0    0    0    0 -0.00000000000E+00 -0.00000000000E+00 -0.74505805969E-08  0.93827000000E+00  0.93827000000E+00 0.  1.
     999902    2    1    2    0    0  0.53280243506E-03 -0.58283961816E-02  0.24268275146E-01  0.10189659607E+01  0.10186601130E+01 0.  0.
     999903    2    3    3    0    0  0.15090116305E-01  0.10652894335E+00 -0.64843633361E-01  0.12723897367E+00  0.20222073341E-01 0.  0.
         14    1    1    2    0    0 -0.53280243506E-03  0.58283961816E-02 -0.24268275146E-01  0.24964039318E-01  0.00000000000E+00 0.  1.
     999901    1    3    3    0    0 -0.14557313870E-01 -0.11235733953E+00  0.89111908508E-01  0.89172698702E+00  0.88000000000E+00 0. -1.
        -11    1    4    4    0    0  0.17371072517E-01  0.57188224097E-01 -0.30724485338E-01  0.67204927320E-01  0.51100000000E-03 0.  1.
         11    1    4    4    0    0 -0.22809562122E-02  0.49340719256E-01 -0.34119148023E-01  0.60034046347E-01  0.51100000000E-03 0. -1.
</event>
<event>
 8    1  0.1183092E+005  0.1043930E+01  0.7957747E-01            NaN
         13   -1    0    0    0    0  0.00000000000E+00  0.00000000000E+00  0.74505805969E-08  0.10566000000E+00  0.10566000000E+00 0. -1.
     999900   -1    0    0    0    0 -0.00000000000E+00 -0.00000000000E+00 -0.74505805969E-08  0.93827000000E+00  0.93827000000E+00 0.  1.
     999902    2    1    2    0    0  0.11803720127E-03 -0.21886787514E-01  0.67280428265E-02  0.10210321407E+01  0.10207753525E+01 0.  0.
     999903    2    3    3    0    0 -0.11845980979E+00  0.25585089216E-01  0.44813038355E-01  0.13099576404E+00  0.21548978279E-01 0.  0.
         14    1    1    2    0    0 -0.11803720127E-03  0.21886787514E-01 -0.67280428265E-02  0.22897859305E-01  0.00000000000E+00 0. -1.
     999901    1    3    3    0    0  0.11857784699E+00 -0.47471876730E-01 -0.38084995528E-01  0.89003637665E+00  0.88000000000E+00 0. -1.
        -11    1    4    4    0    0 -0.46853093071E-01  0.20836340275E-01  0.16904588979E-01  0.53994366890E-01  0.51100000000E-03 0.  1.
         11    1    4    4    0    0 -0.71606716721E-01  0.47487489406E-02  0.27908449376E-01  0.77001397154E-01  0.51100000000E-03 0. -1.
</event>
<event>
 8    1  0.1183092E+005  0.1043930E+01  0.7957747E-01            NaN
         13   -1    0    0    0    0  0.00000000000E+00  0.00000000000E+00  0.74505805969E-08  0.10566000000E+00  0.10566000000E+00 0. -1.
     999900   -1    0    0    0    0 -0.00000000000E+00 -0.00000000000E+00 -0.74505805969E-08  0.93827000000E+00  0.93827000000E+00 0. -1.
     999902    2    1    2    0    0  0.83055066437E-02  0.21997735011E-01 -0.41331477624E-02  0.10200560666E+01  0.10197766492E+01 0.  0.
     999903    2    3    3    0    0 -0.35696625250E-01  0.31192176662E-01  0.11959650761E+00  0.13026409484E+00  0.20450154825E-01 0.  0.
         14    1    1    2    0    0 -0.83055066437E-02 -0.21997735011E-01  0.41331477624E-02  0.23873933414E-01  0.00000000000E+00 0.  1.
     999901    1    3    3    0    0  0.44002131894E-01 -0.91944416508E-02 -0.12372965537E+00  0.88979197175E+00  0.88000000000E+00 0. -1.
        -11    1    4    4    0    0 -0.24882008773E-01  0.31890309081E-01  0.99860211362E-01  0.10774242019E+00  0.51100000000E-03 0. -1.
         11    1    4    4    0    0 -0.10814616477E-01 -0.69813241983E-03  0.19736296248E-01  0.22521674649E-01  0.51100000000E-03 0.  1.
</event>
<event>
 8    1  0.1183092E+005  0.1043930E+01  0.7957747E-01            NaN
         13   -1    0    0    0    0  0.00000000000E+00  0.00000000000E+00  0.74505805969E-08  0.10566000000E+00  0.10566000000E+00 0.  1.
     999900   -1    0    0    0    0 -0.00000000000E+00 -0.00000000000E+00 -0.74505805969E-08  0.93827000000E+00  0.93827000000E+00 0.  1.
     999902    2    1    2    0    0  0.16724761471E-01  0.72741172466E-02 -0.13261582388E-01  0.10213800555E+01  0.10211310973E+01 0.  0.
     999903    2    3    3    0    0  0.17957854469E-02  0.12717773030E+00 -0.32734823510E-01  0.13291004598E+00  0.20398816712E-01 0.  0.
         14    1    1    2    0    0 -0.16724761471E-01 -0.72741172466E-02  0.13261582388E-01  0.22549944466E-01  0.00000000000E+00 0. -1.
     999901    1    3    3    0    0  0.14928976024E-01 -0.11990361306E+00  0.19473241122E-01  0.88847000955E+00  0.88000000000E+00 0. -1.
        -11    1    4    4    0    0 -0.69696879626E-02  0.95033936433E-01 -0.27504929818E-01  0.99180683147E-01  0.51100000000E-03 0.  1.
         11    1    4    4    0    0  0.87654734095E-02  0.32143793870E-01 -0.52298936922E-02  0.33729362838E-01  0.51100000000E-03 0. -1.
</event>
<event>
 8    1  0.1183092E+005  0.1043930E+01  0.7957747E-01            NaN
         13   -1    0    0    0    0  0.00000000000E+00  0.00000000000E+00  0.74505805969E-08  0.10566000000E+00  0.10566000000E+00 0.  1.
     999900   -1    0    0    0    0 -0.00000000000E+00 -0.00000000000E+00 -0.74505805969E-08  0.93827000000E+00  0.93827000000E+00 0. -1.
     999902    2    1    2    0    0  0.89850292992E-02  0.23376472079E-01  0.48709267113E-02  0.10184169421E+01  0.10180973194E+01 0.  0.
     999903    2    3    3    0    0  0.39780218025E-02 -0.11795977451E+00  0.40655991622E-01  0.12640709032E+00  0.19887427402E-01 0.  0.
         14    1    1    2    0    0 -0.89850292992E-02 -0.23376472079E-01 -0.48709267113E-02  0.25513057939E-01  0.00000000000E+00 0. -1.
     999901    1    3    3    0    0  0.50070074968E-02  0.14133624659E+00 -0.35785064910E-01  0.89200985174E+00  0.88000000000E+00 0. -1.
        -11    1    4    4    0    0 -0.66026425717E-02 -0.49395954935E-01  0.22574871934E-01  0.54712349764E-01  0.51100000000E-03 0.  1.
         11    1    4    4    0    0  0.10580664374E-01 -0.68563819578E-01  0.18081119688E-01  0.71694740560E-01  0.51100000000E-03 0. -1.
</event>
<event>
 8    1  0.1183092E+005  0.1043930E+01  0.7957747E-01            NaN
         13   -1    0    0    0    0  0.00000000000E+00  0.00000000000E+00  0.74505805969E-08  0.10566000000E+00  0.10566000000E+00 0. -1.
     999900   -1    0    0    0    0 -0.00000000000E+00 -0.00000000000E+00 -0.74505805969E-08  0.93827000000E+00  0.93827000000E+00 0.  1.
     999902    2    1    2    0    0 -0.78192106754E-03 -0.19402375889E-01 -0.12206332599E-01  0.10209940425E+01  0.10207363894E+01 0.  0.
     999903    2    3    3    0    0 -0.52477143668E-01  0.11620444879E+00 -0.48313739757E-03  0.12903045567E+00  0.19781318002E-01 0.  0.
         14    1    1    2    0    0  0.78192106754E-03  0.19402375889E-01  0.12206332599E-01  0.22935957495E-01  0.00000000000E+00 0. -1.
     999901    1    3    3    0    0  0.51695222600E-01 -0.13560682468E+00 -0.11723195201E-01  0.89196358684E+00  0.88000000000E+00 0.  1.
        -11    1    4    4    0    0 -0.35148839157E-01  0.89252588639E-01  0.68037162480E-02  0.96166611403E-01  0.51100000000E-03 0. -1.
         11    1    4    4    0    0 -0.17328304511E-01  0.26951860150E-01 -0.72868536455E-02  0.32863844264E-01  0.51100000000E-03 0.  1.
</event>
<event>
 8    1  0.1183092E+005  0.1043930E+01  0.7957747E-01            NaN
         13   -1    0    0    0    0  0.00000000000E+00  0.00000000000E+00  0.74505805969E-08  0.10566000000E+00  0.10566000000E+00 0.  1.
     999900   -1    0    0    0    0 -0.00000000000E+00 -0.00000000000E+00 -0.74505805969E-08  0.93827000000E+00  0.93827000000E+00 0. -1.
     999902    2    1    2    0    0 -0.75514723148E-02 -0.14890939451E-02  0.22979027621E-01  0.10196961838E+01  0.10194081761E+01 0.  0.
     999903    2    3    3    0    0  0.35971371891E-01  0.68010069373E-03 -0.12023150990E+00  0.12705504575E+00  0.19823383751E-01 0.  0.
         14    1    1    2    0    0  0.75514723148E-02  0.14890939451E-02 -0.22979027621E-01  0.24233816153E-01  0.00000000000E+00 0. -1.
     999901    1    3    3    0    0 -0.43522844206E-01 -0.21691946389E-02  0.14321053752E+00  0.89264113810E+00  0.88000000000E+00 0.  1.
        -11    1    4    4    0    0  0.18290175158E-01 -0.93633755519E-02 -0.66409685265E-01  0.69517700818E-01  0.51100000000E-03 0.  1.
         11    1    4    4    0    0  0.17681196733E-01  0.10043476246E-01 -0.53821824637E-01  0.57537344928E-01  0.51100000000E-03 0. -1.
</event>
<event>
 8    1  0.1183092E+005  0.1043930E+01  0.7957747E-01            NaN
         13   -1    0    0    0    0  0.00000000000E+00  0.00000000000E+00  0.74505805969E-08  0.10566000000E+00  0.10566000000E+00 0. -1.
     999900   -1    0    0    0    0 -0.00000000000E+00 -0.00000000000E+00 -0.74505805969E-08  0.93827000000E+00  0.93827000000E+00 0.  1.
     999902    2    1    2    0    0 -0.18053452800E-01  0.12368443224E-01 -0.64522218272E-02  0.10211147263E+01  0.10208598080E+01 0.  0.
     999903    2    3    3    0    0  0.11827464101E+00  0.21886389128E-02 -0.48423466332E-01  0.12957080541E+00  0.21215104894E-01 0.  0.
         14    1    1    2    0    0  0.18053452800E-01 -0.12368443224E-01  0.64522218272E-02  0.22815273662E-01  0.00000000000E+00 0.  1.
     999901    1    3    3    0    0 -0.13632809381E+00  0.10179804311E-01  0.41971244505E-01  0.89154392093E+00  0.88000000000E+00 0. -1.
        -11    1    4    4    0    0  0.30196289890E-01 -0.74026428494E-02 -0.17790036041E-01  0.35824035893E-01  0.51100000000E-03 0.  1.
         11    1    4    4    0    0  0.88078351123E-01  0.95912817621E-02 -0.30633430291E-01  0.93746769517E-01  0.51100000000E-03 0. -1.
</event>
<event>
 8    1  0.1183092E+005  0.1043930E+01  0.7957747E-01            NaN
         13   -1    0    0    0    0  0.00000000000E+00  0.00000000000E+00  0.74505805969E-08  0.10566000000E+00  0.10566000000E+00 0. -1.
     999900   -1    0    0    0    0 -0.00000000000E+00 -0.00000000000E+00 -0.74505805969E-08  0.93827000000E+00  0.93827000000E+00 0.  1.
     999902    2    1    2    0    0 -0.16121637023E-01 -0.13607720252E-01 -0.11817695707E-01  0.10197487022E+01  0.10194619564E+01 0.  0.
     999903    2    3    3    0    0 -0.82076715706E-01  0.77727066412E-01  0.60240971416E-01  0.12964501884E+00  0.20019294631E-01 0.  0.
         14    1    1    2    0    0  0.16121637023E-01  0.13607720252E-01  0.11817695707E-01  0.24181297785E-01  0.00000000000E+00 0. -1.
     999901    1    3    3    0    0  0.65955078683E-01 -0.91334786663E-01 -0.72058667123E-01  0.89010368338E+00  0.88000000000E+00 0. -1.
        -11    1    4    4    0    0 -0.62976307089E-01  0.68377642768E-01  0.53858658589E-01  0.10743618343E+00  0.51100000000E-03 0. -1.
         11    1    4    4    0    0 -0.19100408617E-01  0.93494236440E-02  0.63823128271E-02  0.22208835400E-01  0.51100000000E-03 0.  1.
</event>
<event>
 8    1  0.1183092E+005  0.1043930E+01  0.7957747E-01            NaN
         13   -1    0    0    0    0  0.00000000000E+00  0.00000000000E+00  0.74505805969E-08  0.10566000000E+00  0.10566000000E+00 0.  1.
     999900   -1    0    0    0    0 -0.00000000000E+00 -0.00000000000E+00 -0.74505805969E-08  0.93827000000E+00  0.93827000000E+00 0.  1.
     999902    2    1    2    0    0  0.30388112340E-02  0.89076618684E-02 -0.22623019892E-01  0.10194273095E+01  0.10191327968E+01 0.  0.
     999903    2    3    3    0    0 -0.22199845184E-01  0.92611707256E-01  0.84193132767E-01  0.12866749479E+00  0.19926845315E-01 0.  0.
         14    1    1    2    0    0 -0.30388112340E-02 -0.89076618684E-02  0.22623019892E-01  0.24502690520E-01  0.00000000000E+00 0.  1.
     999901    1    3    3    0    0  0.25238656418E-01 -0.83704045387E-01 -0.10681615266E+00  0.89075981469E+00  0.88000000000E+00 0.  1.
        -11    1    4    4    0    0 -0.19236294242E-02  0.36222196976E-01  0.22645505954E-01  0.42764798197E-01  0.51100000000E-03 0. -1.
         11    1    4    4    0    0 -0.20276215760E-01  0.56389510279E-01  0.61547626814E-01  0.85902696596E-01  0.51100000000E-03 0.  1.
</event>
<event>
 8    1  0.1183092E+005  0.1043930E+01  0.7957747E-01            NaN
         13   -1    0    0    0    0  0.00000000000E+00  0.00000000000E+00  0.74505805969E-08  0.10566000000E+00  0.10566000000E+00 0. -1.
     999900   -1    0    0    0    0 -0.00000000000E+00 -0.00000000000E+00 -0.74505805969E-08  0.93827000000E+00  0.93827000000E+00 0.  1.
     999902    2    1    2    0    0  0.12215655757E-01 -0.13533019030E-01  0.14872335056E-01  0.10204023312E+01  0.10201310535E+01 0.  0.
     999903    2    3    3    0    0  0.93597596568E-02  0.12693552908E+00 -0.64649190405E-02  0.12900183334E+00  0.19986099732E-01 0.  0.
         14    1    1    2    0    0 -0.12215655757E-01  0.13533019030E-01 -0.14872335056E-01  0.23527668811E-01  0.00000000000E+00 0. -1.
     999901    1    3    3    0    0  0.28558961006E-02 -0.14046854811E+00  0.21337254096E-01  0.89140049785E+00  0.88000000000E+00 0.  1.
        -11    1    4    4    0    0 -0.47254460446E-02  0.43438608054E-01  0.29755636698E-02  0.43799059467E-01  0.51100000000E-03 0. -1.
         11    1    4    4    0    0  0.14085205701E-01  0.83496921030E-01 -0.94404827103E-02  0.85202773874E-01  0.51100000000E-03 0.  1.
</event>
<event>
 8    1  0.1183092E+005  0.1043930E+01  0.7957747E-01            NaN
         13   -1    0    0    0    0  0.00000000000E+00  0.00000000000E+00  0.74505805969E-08  0.10566000000E+00  0.10566000000E+00 0.  1.
     999900   -1    0    0    0    0 -0.00000000000E+00 -0.00000000000E+00 -0.74505805969E-08  0.93827000000E+00  0.93827000000E+00 0.  1.
     999902    2    1    2    0    0  0.15857821280E-01 -0.11744875872E-01  0.14596054414E-01  0.10193849922E+01  0.10190894489E+01 0.  0.
     999903    2    3    3    0    0 -0.10308473188E-01 -0.11992533994E+00 -0.46001700328E-01  0.13030694405E+00  0.19375021387E-01 0.  0.
         14    1    1    2    0    0 -0.15857821280E-01  0.11744875872E-01 -0.14596054414E-01  0.24545007832E-01  0.00000000000E+00 0. -1.
     999901    1    3    3    0    0  0.26166294468E-01  0.10818046407E+00  0.60597754742E-01  0.88907804812E+00  0.88000000000E+00 0. -1.
        -11    1    4    4    0    0  0.51235941279E-02 -0.25361734944E-01 -0.66120528393E-02  0.26710469481E-01  0.51100000000E-03 0. -1.
         11    1    4    4    0    0 -0.15432067316E-01 -0.94563604999E-01 -0.39389647489E-01  0.10359647456E+00  0.51100000000E-03 0.  1.
</event>
<event>
 8    1  0.1183092E+005  0.1043930E+01  0.7957747E-01            NaN
         13   -1    0    0    0    0  0.00000000000E+00  0.00000000000E+00  0.74505805969E-08  0.10566000000E+00  0.10566000000E+00 0. -1.
     999900   -1    0    0    0    0 -0.00000000000E+00 -0.00000000000E+00 -0.74505805969E-08  0.93827000000E+00  0.93827000000E+00 0.  1.
     999902    2    1    2    0    0 -0.22675104822E-01  0.13564967660E-02 -0.49612046322E-02  0.10206788922E+01  0.10204140272E+01 0.  0.
     999903    2    3    3    0    0  0.50456465816E-01 -0.83333036971E-01 -0.83709920836E-01  0.13010497385E+00  0.20729288011E-01 0.  0.
         14    1    1    2    0    0  0.22675104822E-01 -0.13564967660E-02  0.49612046322E-02  0.23251107792E-01  0.00000000000E+00 0. -1.
     999901    1    3    3    0    0 -0.73131570638E-01  0.84689533737E-01  0.78748716204E-01  0.89057391835E+00  0.88000000000E+00 0. -1.
        -11    1    4    4    0    0  0.11567735802E-01 -0.24758085765E-01 -0.35721887555E-01  0.44978769367E-01  0.51100000000E-03 0. -1.
         11    1    4    4    0    0  0.38888730014E-01 -0.58574951207E-01 -0.47988033282E-01  0.85126204486E-01  0.51100000000E-03 0.  1.
</event>
<event>
 8    1  0.1183092E+005  0.1043930E+01  0.7957747E-01            NaN
         13   -1    0    0    0    0  0.00000000000E+00  0.00000000000E+00  0.74505805969E-08  0.10566000000E+00  0.10566000000E+00 0. -1.
     999900   -1    0    0    0    0 -0.00000000000E+00 -0.00000000000E+00 -0.74505805969E-08  0.93827000000E+00  0.93827000000E+00 0. -1.
     999902    2    1    2    0    0  0.70247548598E-02  0.20005879176E-01  0.91944151532E-02  0.10208189712E+01  0.10205573244E+01 0.  0.
     999903    2    3    3    0    0  0.72868778615E-01 -0.31848901502E-01 -0.99901041586E-01  0.13013037666E+00  0.25089547567E-01 0.  0.
         14    1    1    2    0    0 -0.70247548598E-02 -0.20005879176E-01 -0.91944151532E-02  0.23111028806E-01  0.00000000000E+00 0. -1.
     999901    1    3    3    0    0 -0.65844023756E-01  0.51854780678E-01  0.10909545674E+00  0.89068859453E+00  0.88000000000E+00 0.  1.
        -11    1    4    4    0    0  0.58255447120E-02 -0.94222431457E-02 -0.23809721291E-01  0.26265558932E-01  0.51100000000E-03 0. -1.
         11    1    4    4    0    0  0.67043233904E-01 -0.22426658356E-01 -0.76091320296E-01  0.10386481773E+00  0.51100000000E-03 0.  1.
</event>
<event>
 8    1  0.1183092E+005  0.1043930E+01  0.7957747E-01            NaN
         13   -1    0    0    0    0  0.00000000000E+00  0.00000000000E+00  0.74505805969E-08  0.10566000000E+00  0.10566000000E+00 0.  1.
     999900   -1    0    0    0    0 -0.00000000000E+00 -0.00000000000E+00 -0.74505805969E-08  0.93827000000E+00  0.93827000000E+00 0. -1.
     999902    2    1    2    0    0 -0.39786201912E-02 -0.16983025911E-01  0.17298792787E-01  0.10193637463E+01  0.10190676849E+01 0.  0.
     999903    2    3    3    0    0 -0.29318647694E-01  0.84710063553E-01  0.92180634844E-01  0.12998705914E+00  0.19078473050E-01 0.  0.
         14    1    1    2    0    0  0.39786201912E-02  0.16983025911E-01 -0.17298792787E-01  0.24566253675E-01  0.00000000000E+00 0. -1.
     999901    1    3    3    0    0  0.25340027503E-01 -0.10169308946E+00 -0.74881842057E-01  0.88937668719E+00  0.88000000000E+00 0. -1.
        -11    1    4    4    0    0  0.39663932188E-03  0.10489778025E-01  0.18431839796E-01  0.21217601303E-01  0.51100000000E-03 0.  1.
         11    1    4    4    0    0 -0.29715287016E-01  0.74220285528E-01  0.73748795048E-01  0.10876945784E+00  0.51100000000E-03 0. -1.
</event>
<event>
 8    1  0.1183092E+005  0.1043930E+01  0.7957747E-01            NaN
         13   -1    0    0    0    0  0.00000000000E+00  0.00000000000E+00  0.74505805969E-08  0.10566000000E+00  0.10566000000E+00 0.  1.
     999900   -1    0    0    0    0 -0.00000000000E+00 -0.00000000000E+00 -0.74505805969E-08  0.93827000000E+00  0.93827000000E+00 0.  1.
     999902    2    1    2    0    0  0.96330949610E-02 -0.12194827630E-01  0.18240337380E-01  0.10199671069E+01  0.10196855784E+01 0.  0.
     999903    2    3    3    0    0 -0.49804359939E-01  0.94934711742E-01 -0.67418375617E-01  0.12736027048E+00  0.13502865035E-01 0.  0.
         14    1    1    2    0    0 -0.96330949610E-02  0.12194827630E-01 -0.18240337380E-01  0.23962893131E-01  0.00000000000E+00 0.  1.
     999901    1    3    3    0    0  0.59437454900E-01 -0.10712953937E+00  0.85658712997E-01  0.89260683639E+00  0.88000000000E+00 0.  1.
        -11    1    4    4    0    0 -0.20116722848E-01  0.28655805193E-01 -0.27224148958E-01  0.44353727203E-01  0.51100000000E-03 0.  1.
         11    1    4    4    0    0 -0.29687637092E-01  0.66278906550E-01 -0.40194226659E-01  0.83006543280E-01  0.51100000000E-03 0. -1.
</event>
<event>
 8    1  0.1183092E+005  0.1043930E+01  0.7957747E-01            NaN
         13   -1    0    0    0    0  0.00000000000E+00  0.00000000000E+00  0.74505805969E-08  0.10566000000E+00  0.10566000000E+00 0.  1.
     999900   -1    0    0    0    0 -0.00000000000E+00 -0.00000000000E+00 -0.74505805969E-08  0.93827000000E+00  0.93827000000E+00 0. -1.
     999902    2    1    2    0    0 -0.12081449584E-01  0.19808026614E-01 -0.18686694567E-02  0.10206531603E+01  0.10203877020E+01 0.  0.
     999903    2    3    3    0    0  0.44265291358E-01  0.11063490201E+00  0.54067744118E-01  0.13242269531E+00  0.20321213492E-01 0.  0.
         14    1    1    2    0    0  0.12081449584E-01 -0.19808026614E-01  0.18686694567E-02  0.23276839733E-01  0.00000000000E+00 0. -1.
     999901    1    3    3    0    0 -0.56346740942E-01 -0.90826875397E-01 -0.55936413575E-01  0.88823046495E+00  0.88000000000E+00 0.  1.
        -11    1    4    4    0    0  0.43810290931E-01  0.94093398611E-01  0.42160752442E-01  0.11202990414E+00  0.51100000000E-03 0. -1.
         11    1    4    4    0    0  0.45500042712E-03  0.16541503401E-01  0.11906991677E-01  0.20392791176E-01  0.51100000000E-03 0.  1.
</event>
<event>
 8    1  0.1183092E+005  0.1043930E+01  0.7957747E-01            NaN
         13   -1    0    0    0    0  0.00000000000E+00  0.00000000000E+00  0.74505805969E-08  0.10566000000E+00  0.10566000000E+00 0.  1.
     999900   -1    0    0    0    0 -0.00000000000E+00 -0.00000000000E+00 -0.74505805969E-08  0.93827000000E+00  0.93827000000E+00 0. -1.
     999902    2    1    2    0    0 -0.12515984064E-01 -0.50844696973E-02 -0.19019782325E-01  0.10206007521E+01  0.10203340832E+01 0.  0.
     999903    2    3    3    0    0 -0.76635887217E-01  0.84881311789E-01  0.58965251986E-01  0.13027111121E+00  0.20390320596E-01 0.  0.
         14    1    1    2    0    0  0.12515984064E-01  0.50844696973E-02  0.19019782325E-01  0.23329247928E-01  0.00000000000E+00 0.  1.
     999901    1    3    3    0    0  0.64119903153E-01 -0.89965781486E-01 -0.77985034311E-01  0.89032964086E+00  0.88000000000E+00 0. -1.
        -11    1    4    4    0    0 -0.28812012482E-01  0.46216306667E-01  0.23913328214E-01  0.59482665143E-01  0.51100000000E-03 0.  1.
         11    1    4    4    0    0 -0.47823874734E-01  0.38665005121E-01  0.35051923772E-01  0.70788446068E-01  0.51100000000E-03 0. -1.
</event>
<event>
 8    1  0.1183092E+005  0.1043930E+01  0.7957747E-01            NaN
         13   -1    0    0    0    0  0.00000000000E+00  0.00000000000E+00  0.74505805969E-08  0.10566000000E+00  0.10566000000E+00 0.  1.
     999900   -1    0    0    0    0 -0.00000000000E+00 -0.00000000000E+00 -0.74505805969E-08  0.93827000000E+00  0.93827000000E+00 0.  1.
     999902    2    1    2    0    0  0.16453903369E-01  0.96176741123E-02 -0.13501080924E-01  0.10205738493E+01  0.10203065579E+01 0.  0.
     999903    2    3    3    0    0 -0.81795582683E-01 -0.93216353536E-01 -0.29331970537E-01  0.12901430788E+00  0.20112713133E-01 0.  0.
         14    1    1    2    0    0 -0.16453903369E-01 -0.96176741123E-02  0.13501080924E-01  0.23356150743E-01  0.00000000000E+00 0.  1.
     999901    1    3    3    0    0  0.98249486052E-01  0.10283402765E+00  0.15830889613E-01  0.89155954138E+00  0.88000000000E+00 0.  1.
        -11    1    4    4    0    0 -0.57055854247E-01 -0.53878672663E-01 -0.24891221792E-01  0.82329313827E-01  0.51100000000E-03 0.  1.
         11    1    4    4    0    0 -0.24739728436E-01 -0.39337680873E-01 -0.44407487454E-02  0.46684994055E-01  0.51100000000E-03 0. -1.
</event>
<event>
 8    1  0.1183092E+005  0.1043930E+01  0.7957747E-01            NaN
         13   -1    0    0    0    0  0.00000000000E+00  0.00000000000E+00  0.74505805969E-08  0.10566000000E+00  0.10566000000E+00 0.  1.
     999900   -1    0    0    0    0 -0.00000000000E+00 -0.00000000000E+00 -0.74505805969E-08  0.93827000000E+00  0.93827000000E+00 0.  1.
     999902    2    1    2    0    0 -0.15287053020E-01  0.96704055687E-02 -0.14379233024E-01  0.10208221425E+01  0.10205605683E+01 0.  0.
     999903    2    3    3    0    0  0.43312598912E-01  0.58553506846E-01 -0.10878880396E+00  0.13248850934E+00  0.20339784926E-01 0.  0.
         14    1    1    2    0    0  0.15287053020E-01 -0.96704055687E-02  0.14379233024E-01  0.23107857457E-01  0.00000000000E+00 0. -1.
     999901    1    3    3    0    0 -0.58599651932E-01 -0.48883101277E-01  0.94409570939E-01  0.88833363320E+00  0.88000000000E+00 0. -1.
        -11    1    4    4    0    0  0.12419392847E-01  0.17829802383E-01 -0.50388207725E-01  0.54876003594E-01  0.51100000000E-03 0.  1.
         11    1    4    4    0    0  0.30893206066E-01  0.40723704462E-01 -0.58400596237E-01  0.77612505745E-01  0.51100000000E-03 0. -1.
</event>
<event>
 8    1  0.1183092E+005  0.1043930E+01  0.7957747E-01            NaN
         13   -1    0    0    0    0  0.00000000000E+00  0.00000000000E+00  0.74505805969E-08  0.10566000000E+00  0.10566000000E+00 0.  1.
     999900   -1    0    0    0    0 -0.00000000000E+00 -0.00000000000E+00 -0.74505805969E-08  0.93827000000E+00  0.93827000000E+00 0.  1.
     999902    2    1    2    0    0  0.17209087006E-01 -0.16106044596E-01 -0.18123967447E-02  0.10202901580E+01  0.10200162569E+01 0.  0.
     999903    2    3    3    0    0 -0.18644185245E-01 -0.12341965934E+00  0.38507268041E-01  0.13213063155E+00  0.19891609958E-01 0.  0.
         14    1    1    2    0    0 -0.17209087006E-01  0.16106044596E-01  0.18123967447E-02  0.23639842006E-01  0.00000000000E+00 0. -1.
     999901    1    3    3    0    0  0.35853272251E-01  0.10731361475E+00 -0.40319664785E-01  0.88815952644E+00  0.88000000000E+00 0.  1.
        -11    1    4    4    0    0 -0.47409973568E-03 -0.67838725048E-01  0.22946829417E-01  0.71617982993E-01  0.51100000000E-03 0.  1.
         11    1    4    4    0    0 -0.18170085509E-01 -0.55580934295E-01  0.15560438623E-01  0.60512648559E-01  0.51100000000E-03 0. -1.
</event>
<event>
 8    1  0.1183092E+005  0.1043930E+01  0.7957747E-01            NaN
         13   -1    0    0    0    0  0.00000000000E+00  0.00000000000E+00  0.74505805969E-08  0.10566000000E+00  0.10566000000E+00 0. -1.
     999900   -1    0    0    0    0 -0.00000000000E+00 -0.00000000000E+00 -0.74505805969E-08  0.93827000000E+00  0.93827000000E+00 0. -1.
     999902    2    1    2    0    0 -0.10408106502E-02 -0.10196976362E-01 -0.21364672823E-01  0.10202337797E+01  0.10199585552E+01 0.  0.
     999903    2    3    3    0    0 -0.99742874732E-01  0.74632271327E-01 -0.33903083137E-01  0.13057355775E+00  0.19529924552E-01 0.  0.
         14    1    1    2    0    0  0.10408106502E-02  0.10196976362E-01  0.21364672823E-01  0.23696220343E-01  0.00000000000E+00 0. -1.
     999901    1    3    3    0    0  0.98702064082E-01 -0.84829247689E-01  0.12538410314E-01  0.88966022191E+00  0.88000000000E+00 0.  1.
        -11    1    4    4    0    0 -0.25613929296E-01  0.26705402597E-01 -0.16871047966E-01  0.40671184915E-01  0.51100000000E-03 0.  1.
         11    1    4    4    0    0 -0.74128945436E-01  0.47926868729E-01 -0.17032035171E-01  0.89902372831E-01  0.51100000000E-03 0. -1.
</event>
<event>
 8    1  0.1183092E+005  0.1043930E+01  0.7957747E-01            NaN
         13   -1    0    0    0    0  0.00000000000E+00  0.00000000000E+00  0.74505805969E-08  0.10566000000E+00  0.10566000000E+00 0.  1.
     999900   -1    0    0    0    0 -0.00000000000E+00 -0.00000000000E+00 -0.74505805969E-08  0.93827000000E+00  0.93827000000E+00 0.  1.
     999902    2    1    2    0    0 -0.31138966360E-02  0.85394334496E-02  0.17827610378E-01  0.10239189539E+01  0.10237233914E+01 0.  0.
     999903    2    3    3    0    0  0.95143232694E-01 -0.48646481882E-01  0.79150281172E-01  0.13448927011E+00  0.20096811651E-01 0.  0.
         14    1    1    2    0    0  0.31138966360E-02 -0.85394334496E-02 -0.17827610378E-01  0.20011046142E-01  0.00000000000E+00 0. -1.
     999901    1    3    3    0    0 -0.98257129330E-01  0.57185915332E-01 -0.61322670794E-01  0.88942968375E+00  0.88000000000E+00 0. -1.
        -11    1    4    4    0    0  0.44327197122E-01 -0.12844292002E-01  0.27967046713E-01  0.53965665609E-01  0.51100000000E-03 0.  1.
         11    1    4    4    0    0  0.50816035572E-01 -0.35802189880E-01  0.51183234459E-01  0.80523604503E-01  0.51100000000E-03 0. -1.
</event>
<event>
 8    1  0.1183092E+005  0.1043930E+01  0.7957747E-01            NaN
         13   -1    0    0    0    0  0.00000000000E+00  0.00000000000E+00  0.74505805969E-08  0.10566000000E+00  0.10566000000E+00 0. -1.
     999900   -1    0    0    0    0 -0.00000000000E+00 -0.00000000000E+00 -0.74505805969E-08  0.93827000000E+00  0.93827000000E+00 0.  1.
     999902    2    1    2    0    0 -0.10915258359E-01 -0.12710401885E-01  0.16727789478E-01  0.10202547783E+01  0.10199800471E+01 0.  0.
     999903    2    3    3    0    0  0.36780014595E-01  0.61714924818E-01 -0.10432083837E+00  0.12758085206E+00  0.15249100784E-01 0.  0.
         14    1    1    2    0    0  0.10915258359E-01  0.12710401885E-01 -0.16727789478E-01  0.23675221687E-01  0.00000000000E+00 0. -1.
     999901    1    3    3    0    0 -0.47695272954E-01 -0.74425326704E-01  0.12104862784E+00  0.89267392626E+00  0.88000000000E+00 0. -1.
        -11    1    4    4    0    0  0.35513987043E-02  0.12315121868E-01 -0.11065896994E-01  0.16940774973E-01  0.51100000000E-03 0. -1.
         11    1    4    4    0    0  0.33228615891E-01  0.49399802950E-01 -0.93254941372E-01  0.11064007708E+00  0.51100000000E-03 0.  1.
</event>
<event>
 8    1  0.1183092E+005  0.1043930E+01  0.7957747E-01            NaN
         13   -1    0    0    0    0  0.00000000000E+00  0.00000000000E+00  0.74505805969E-08  0.10566000000E+00  0.10566000000E+00 0.  1.
     999900   -1    0    0    0    0 -0.00000000000E+00 -0.00000000000E+00 -0.74505805969E-08  0.93827000000E+00  0.93827000000E+00 0. -1.
     999902    2    1    2    0    0  0.26655089313E-02  0.19309606172E-01 -0.14219530827E-01  0.10198019896E+01  0.10195165213E+01 0.  0.
     999903    2    3    3    0    0 -0.74915821025E-02  0.55833342751E-01  0.11488113694E+00  0.12957497797E+00  0.20457598260E-01 0.  0.
         14    1    1    2    0    0 -0.26655089313E-02 -0.19309606172E-01  0.14219530827E-01  0.24128010389E-01  0.00000000000E+00 0.  1.
     999901    1    3    3    0    0  0.10157091034E-01 -0.36523736578E-01 -0.12910066777E+00  0.89022701164E+00  0.88000000000E+00 0. -1.
        -11    1    4    4    0    0  0.70778506799E-02  0.21221213376E-01  0.42838790370E-01  0.48330724687E-01  0.51100000000E-03 0.  1.
         11    1    4    4    0    0 -0.14569432782E-01  0.34612129375E-01  0.72042346571E-01  0.81244253286E-01  0.51100000000E-03 0. -1.
</event>
<event>
 8    1  0.1183092E+005  0.1043930E+01  0.7957747E-01            NaN
         13   -1    0    0    0    0  0.00000000000E+00  0.00000000000E+00  0.74505805969E-08  0.10566000000E+00  0.10566000000E+00 0. -1.
     999900   -1    0    0    0    0 -0.00000000000E+00 -0.00000000000E+00 -0.74505805969E-08  0.93827000000E+00  0.93827000000E+00 0. -1.
     999902    2    1    2    0    0 -0.58769176894E-02 -0.15406094904E-01 -0.16374037186E-01  0.10206922072E+01  0.10204276490E+01 0.  0.
     999903    2    3    3    0    0 -0.12744793704E+00  0.21914652429E-01  0.95909166406E-02  0.13117181407E+00  0.19769432889E-01 0.  0.
         14    1    1    2    0    0  0.58769176894E-02  0.15406094904E-01  0.16374037186E-01  0.23237792827E-01  0.00000000000E+00 0. -1.
     999901    1    3    3    0    0  0.12157101935E+00 -0.37320747333E-01 -0.25964953827E-01  0.88952039311E+00  0.88000000000E+00 0. -1.
        -11    1    4    4    0    0 -0.11515534839E+00  0.22678567130E-01  0.13729654709E-01  0.11816867694E+00  0.51100000000E-03 0.  1.
         11    1    4    4    0    0 -0.12292588645E-01 -0.76391470029E-03 -0.41387380686E-02  0.13003137124E-01  0.51100000000E-03 0. -1.
</event>
<event>
 8    1  0.1183092E+005  0.1043930E+01  0.7957747E-01            NaN
         13   -1    0    0    0    0  0.00000000000E+00  0.00000000000E+00  0.74505805969E-08  0.10566000000E+00  0.10566000000E+00 0.  1.
     999900   -1    0    0    0    0 -0.00000000000E+00 -0.00000000000E+00 -0.74505805969E-08  0.93827000000E+00  0.93827000000E+00 0. -1.
     999902    2    1    2    0    0  0.20454656661E-01 -0.10764590134E-01 -0.24723138907E-02  0.10206838882E+01  0.10204191383E+01 0.  0.
     999903    2    3    3    0    0  0.22080179877E-01  0.82156947633E-01 -0.97357345974E-01  0.13071747091E+00  0.19269301988E-01 0.  0.
         14    1    1    2    0    0 -0.20454656661E-01  0.10764590134E-01  0.24723138907E-02  0.23246111843E-01  0.00000000000E+00 0. -1.
     999901    1    3    3    0    0 -0.16255232168E-02 -0.92921537768E-01  0.94885032083E-01  0.88996641724E+00  0.88000000000E+00 0.  1.
        -11    1    4    4    0    0  0.59080508019E-02  0.45641988931E-01 -0.40973443488E-01  0.61621265892E-01  0.51100000000E-03 0. -1.
         11    1    4    4    0    0  0.16172129076E-01  0.36514958703E-01 -0.56383902486E-01  0.69096205022E-01  0.51100000000E-03 0.  1.
</event>
<event>
 8    1  0.1183092E+005  0.1043930E+01  0.7957747E-01            NaN
         13   -1    0    0    0    0  0.00000000000E+00  0.00000000000E+00  0.74505805969E-08  0.10566000000E+00  0.10566000000E+00 0.  1.
     999900   -1    0    0    0    0 -0.00000000000E+00 -0.00000000000E+00 -0.74505805969E-08  0.93827000000E+00  0.93827000000E+00 0.  1.
     999902    2    1    2    0    0 -0.21824903152E-01  0.61359577064E-02 -0.27701993987E-02  0.10210903332E+01  0.10208348633E+01 0.  0.
     999903    2    3    3    0    0 -0.42743928111E-01 -0.11870209939E+00 -0.26859899180E-01  0.13170714259E+00  0.26609874782E-01 0.  0.
         14    1    1    2    0    0  0.21824903152E-01 -0.61359577064E-02  0.27701993987E-02  0.22839666795E-01  0.00000000000E+00 0. -1.
     999901    1    3    3    0    0  0.20919024959E-01  0.12483805710E+00  0.24089699781E-01  0.88938319061E+00  0.88000000000E+00 0. -1.
        -11    1    4    4    0    0 -0.26631033792E-01 -0.38964647550E-01 -0.49499257984E-02  0.47457545300E-01  0.51100000000E-03 0. -1.
         11    1    4    4    0    0 -0.16112894319E-01 -0.79737451843E-01 -0.21909973381E-01  0.84249597295E-01  0.51100000000E-03 0.  1.
</event>
<event>
 8    1  0.1183092E+005  0.1043930E+01  0.7957747E-01            NaN
         13   -1    0    0    0    0  0.00000000000E+00  0.00000000000E+00  0.74505805969E-08  0.10566000000E+00  0.10566000000E+00 0.  1.
     999900   -1    0    0    0    0 -0.00000000000E+00 -0.00000000000E+00 -0.74505805969E-08  0.93827000000E+00  0.93827000000E+00 0.  1.
     999902    2    1    2    0    0  0.12551355156E-01  0.17967957570E-01  0.87956283247E-02  0.10203133302E+01  0.10200399721E+01 0.  0.
     999903    2    3    3    0    0 -0.46622506990E-01 -0.63117823292E-01 -0.99100572871E-01  0.12805885973E+00  0.20509271964E-01 0.  0.
         14    1    1    2    0    0 -0.12551355156E-01 -0.17967957570E-01 -0.87956283247E-02  0.23616669814E-01  0.00000000000E+00 0. -1.
     999901    1    3    3    0    0  0.59173862146E-01  0.81085780862E-01  0.10789620120E+00  0.89225447046E+00  0.88000000000E+00 0. -1.
        -11    1    4    4    0    0 -0.43038235359E-01 -0.43733108238E-01 -0.73613629826E-01  0.95833720976E-01  0.51100000000E-03 0. -1.
         11    1    4    4    0    0 -0.35842716314E-02 -0.19384715054E-01 -0.25486943045E-01  0.32225138753E-01  0.51100000000E-03 0.  1.
</event>
<event>
 8    1  0.1183092E+005  0.1043930E+01  0.7957747E-01            NaN
         13   -1    0    0    0    0  0.00000000000E+00  0.00000000000E+00  0.74505805969E-08  0.10566000000E+00  0.10566000000E+00 0.  1.
     999900   -1    0    0    0    0 -0.00000000000E+00 -0.00000000000E+00 -0.74505805969E-08  0.93827000000E+00  0.93827000000E+00 0. -1.
     999902    2    1    2    0    0 -0.18890323424E-01 -0.53348843735E-03 -0.14039876198E-01  0.10203875479E+01  0.10201159252E+01 0.  0.
     999903    2    3    3    0    0  0.15319369254E-01 -0.12780409421E+00  0.78714752831E-02  0.13030428350E+00  0.18672884227E-01 0.  0.
         14    1    1    2    0    0  0.18890323424E-01  0.53348843735E-03  0.14039876198E-01  0.23542452137E-01  0.00000000000E+00 0.  1.
     999901    1    3    3    0    0 -0.34209692678E-01  0.12727060577E+00 -0.21911351481E-01  0.89008326436E+00  0.88000000000E+00 0.  1.
        -11    1    4    4    0    0  0.13895905914E-01 -0.11695518452E+00  0.12443835347E-01  0.11843446097E+00  0.51100000000E-03 0. -1.
         11    1    4    4    0    0  0.14234633406E-02 -0.10848909692E-01 -0.45723600636E-02  0.11869822532E-01  0.51100000000E-03 0.  1.
</event>
<event>
 8    1  0.1183092E+005  0.1043930E+01  0.7957747E-01            NaN
         13   -1    0    0    0    0  0.00000000000E+00  0.00000000000E+00  0.74505805969E-08  0.10566000000E+00  0.10566000000E+00 0. -1.
     999900   -1    0    0    0    0 -0.00000000000E+00 -0.00000000000E+00 -0.74505805969E-08  0.93827000000E+00  0.93827000000E+00 0. -1.
     999902    2    1    2    0    0  0.63446947595E-02  0.20556251491E-01  0.48646252459E-02  0.10218737264E+01  0.10216356657E+01 0.  0.
     999903    2    3    3    0    0  0.25354123615E-01  0.41243417911E-01 -0.12209117467E+00  0.13231929164E+00  0.16071369062E-01 0.  0.
         14    1    1    2    0    0 -0.63446947595E-02 -0.20556251491E-01 -0.48646252459E-02  0.22056273614E-01  0.00000000000E+00 0. -1.
     999901    1    3    3    0    0 -0.19009428855E-01 -0.20687166420E-01  0.12695579991E+00  0.88955443474E+00  0.88000000000E+00 0.  1.
        -11    1    4    4    0    0  0.18370674601E-02  0.16698110663E-01 -0.46173041471E-01  0.49136672621E-01  0.51100000000E-03 0.  1.
         11    1    4    4    0    0  0.23517056155E-01  0.24545307248E-01 -0.75918133198E-01  0.83182619022E-01  0.51100000000E-03 0. -1.
</event>
<event>
 8    1  0.1183092E+005  0.1043930E+01  0.7957747E-01            NaN
         13   -1    0    0    0    0  0.00000000000E+00  0.00000000000E+00  0.74505805969E-08  0.10566000000E+00  0.10566000000E+00 0. -1.
     999900   -1    0    0    0    0 -0.00000000000E+00 -0.00000000000E+00 -0.74505805969E-08  0.93827000000E+00  0.93827000000E+00 0. -1.
     999902    2    1    2    0    0  0.17462064645E-01 -0.12229558684E-01 -0.46307153414E-02  0.10221141954E+01  0.10218813527E+01 0.  0.
     999903    2    3    3    0    0  0.81961226117E-01 -0.10028495333E+00  0.30865968991E-01  0.13466058590E+00  0.20150704778E-01 0.  0.
         14    1    1    2    0    0 -0.17462064645E-01  0.12229558684E-01  0.46307153414E-02  0.21815804634E-01  0.00000000000E+00 0.  1.
     999901    1    3    3    0    0 -0.64499161472E-01  0.88055394641E-01 -0.35496684332E-01  0.88745360947E+00  0.88000000000E+00 0. -1.
        -11    1    4    4    0    0  0.49337377783E-01 -0.44696063784E-01  0.13940877645E-01  0.68018557429E-01  0.51100000000E-03 0.  1.
         11    1    4    4    0    0  0.32623848334E-01 -0.55588889541E-01  0.16925091346E-01  0.66642028470E-01  0.51100000000E-03 0. -1.
</event>
<event>
 8    1  0.1183092E+005  0.1043930E+01  0.7957747E-01            NaN
         13   -1    0    0    0    0  0.00000000000E+00  0.00000000000E+00  0.74505805969E-08  0.10566000000E+00  0.10566000000E+00 0.  1.
     999900   -1    0    0    0    0 -0.00000000000E+00 -0.00000000000E+00 -0.74505805969E-08  0.93827000000E+00  0.93827000000E+00 0.  1.
     999902    2    1    2    0    0  0.92306796335E-02  0.34798983007E-02 -0.21528245912E-01  0.10202491953E+01  0.10199743330E+01 0.  0.
     999903    2    3    3    0    0 -0.10653017411E+00  0.50126674452E-01  0.48105181296E-01  0.12871943632E+00  0.19829859558E-01 0.  0.
         14    1    1    2    0    0 -0.92306796335E-02 -0.34798983007E-02  0.21528245912E-01  0.23680804689E-01  0.00000000000E+00 0.  1.
     999901    1    3    3    0    0  0.11576085375E+00 -0.46646776151E-01 -0.69633427208E-01  0.89152975899E+00  0.88000000000E+00 0.  1.
        -11    1    4    4    0    0 -0.21493813063E-01  0.17521275839E-01  0.16739240288E-01  0.32395098293E-01  0.51100000000E-03 0. -1.
         11    1    4    4    0    0 -0.85036361051E-01  0.32605398613E-01  0.31365941008E-01  0.96324338024E-01  0.51100000000E-03 0.  1.
</event>
<event>
 8    1  0.1183092E+005  0.1043930E+01  0.7957747E-01            NaN
         13   -1    0    0    0    0  0.00000000000E+00  0.00000000000E+00  0.74505805969E-08  0.10566000000E+00  0.10566000000E+00 0. -1.
     999900   -1    0    0    0    0 -0.00000000000E+00 -0.00000000000E+00 -0.74505805969E-08  0.93827000000E+00  0.93827000000E+00 0. -1.
     999902    2    1    2    0    0  0.19195878021E-01  0.73964505755E-02  0.16084393734E-01  0.10178168436E+01  0.10174818083E+01 0.  0.
     999903    2    3    3    0    0 -0.70674720050E-01  0.70248397319E-01 -0.74916832447E-01  0.12635270258E+00  0.20560162559E-01 0.  0.
         14    1    1    2    0    0 -0.19195878021E-01 -0.73964505755E-02 -0.16084393734E-01  0.26113156376E-01  0.00000000000E+00 0.  1.
     999901    1    3    3    0    0  0.89870598071E-01 -0.62851946744E-01  0.91001226181E-01  0.89146414105E+00  0.88000000000E+00 0.  1.
        -11    1    4    4    0    0 -0.39974458308E-01  0.27550674332E-01 -0.29111631909E-01  0.56610469054E-01  0.51100000000E-03 0.  1.
         11    1    4    4    0    0 -0.30700261742E-01  0.42697722987E-01 -0.45805200539E-01  0.69742233522E-01  0.51100000000E-03 0. -1.
</event>
<event>
 8    1  0.1183092E+005  0.1043930E+01  0.7957747E-01            NaN
         13   -1    0    0    0    0  0.00000000000E+00  0.00000000000E+00  0.74505805969E-08  0.10566000000E+00  0.10566000000E+00 0.  1.
     999900   -1    0    0    0    0 -0.00000000000E+00 -0.00000000000E+00 -0.74505805969E-08  0.93827000000E+00  0.93827000000E+00 0.  1.
     999902    2    1    2    0    0 -0.57974959118E-02  0.98083949425E-02 -0.20490385334E-01  0.10204849267E+01  0.10202155724E+01 0.  0.
     999903    2    3    3    0    0 -0.12644350121E+00  0.30421090602E-01 -0.53210441815E-03  0.13178999886E+00  0.21328828192E-01 0.  0.
         14    1    1    2    0    0  0.57974959118E-02 -0.98083949425E-02  0.20490385334E-01  0.23445073285E-01  0.00000000000E+00 0.  1.
     999901    1    3    3    0    0  0.12064600530E+00 -0.20612695659E-01 -0.19958280916E-01  0.88869492785E+00  0.88000000000E+00 0. -1.
        -11    1    4    4    0    0 -0.79543786422E-01  0.99855650244E-02 -0.56793547392E-02  0.80370651723E-01  0.51100000000E-03 0. -1.
         11    1    4    4    0    0 -0.46899714791E-01  0.20435525577E-01  0.51472503210E-02  0.51419347137E-01  0.51100000000E-03 0.  1.
</event>
<event>
 8    1  0.1183092E+005  0.1043930E+01  0.7957747E-01            NaN
         13   -1    0    0    0    0  0.00000000000E+00  0.00000000000E+00  0.74505805969E-08  0.10566000000E+00  0.10566000000E+00 0. -1.
     999900   -1    0    0    0    0 -0.00000000000E+00 -0.00000000000E+00 -0.74505805969E-08  0.93827000000E+00  0.93827000000E+00 0.  1.
     999902    2    1    2    0    0 -0.12949665976E-01  0.12464597173E-01  0.19114464025E-01  0.10176921882E+01  0.10173539046E+01 0.  0.
     999903    2    3    3    0    0 -0.24433009797E-01 -0.44801241252E-02  0.12668978950E+00  0.13090504273E+00  0.21651419563E-01 0.  0.
         14    1    1    2    0    0  0.12949665976E-01 -0.12464597173E-01 -0.19114464025E-01  0.26237811771E-01  0.00000000000E+00 0. -1.
     999901    1    3    3    0    0  0.11483343821E-01  0.16944721299E-01 -0.10757532548E+00  0.88678714550E+00  0.88000000000E+00 0.  1.
        -11    1    4    4    0    0 -0.23636254800E-01 -0.11130197247E-01  0.10474665659E+00  0.10795682943E+00  0.51100000000E-03 0.  1.
         11    1    4    4    0    0 -0.79675499680E-03  0.66500731222E-02  0.21943132910E-01  0.22948213307E-01  0.51100000000E-03 0. -1.
</event>
<event>
 8    1  0.1183092E+005  0.1043930E+01  0.7957747E-01            NaN
         13   -1    0    0    0    0  0.00000000000E+00  0.00000000000E+00  0.74505805969E-08  0.10566000000E+00  0.10566000000E+00 0.  1.
     999900   -1    0    0    0    0 -0.00000000000E+00 -0.00000000000E+00 -0.74505805969E-08  0.93827000000E+00  0.93827000000E+00 0. -1.
     999902    2    1    2    0    0 -0.10091391447E-01 -0.22325474103E-01 -0.61655671153E-02  0.10186658516E+01  0.10183525127E+01 0.  0.
     999903    2    3    3    0    0 -0.12374076846E+00  0.34204206167E-01 -0.41894363141E-02  0.12955635851E+00  0.16899501631E-01 0.  0.
         14    1    1    2    0    0  0.10091391447E-01  0.22325474103E-01  0.61655671153E-02  0.25264148375E-01  0.00000000000E+00 0.  1.
     999901    1    3    3    0    0  0.11364937702E+00 -0.56529680270E-01 -0.19761308011E-02  0.88910949311E+00  0.88000000000E+00 0. -1.
        -11    1    4    4    0    0 -0.64443866331E-01  0.23975584169E-01  0.37319814331E-02  0.68862394312E-01  0.51100000000E-03 0. -1.
         11    1    4    4    0    0 -0.59296902132E-01  0.10228621999E-01 -0.79214177472E-02  0.60693964202E-01  0.51100000000E-03 0.  1.
</event>
<event>
 8    1  0.1183092E+005  0.1043930E+01  0.7957747E-01            NaN
         13   -1    0    0    0    0  0.00000000000E+00  0.00000000000E+00  0.74505805969E-08  0.10566000000E+00  0.10566000000E+00 0.  1.
     999900   -1    0    0    0    0 -0.00000000000E+00 -0.00000000000E+00 -0.74505805969E-08  0.93827000000E+00  0.93827000000E+00 0. -1.
     999902    2    1    2    0    0  0.12617772350E-01  0.12260453939E-01  0.87180501961E-02  0.10242950488E+01  0.10241068380E+01 0.  0.
     999903    2    3    3    0    0  0.60523941800E-01 -0.28712755161E-01 -0.11378688986E+00  0.13357552769E+00  0.20184039550E-01 0.  0.
         14    1    1    2    0    0 -0.12617772350E-01 -0.12260453939E-01 -0.87180501961E-02  0.19634951212E-01  0.00000000000E+00 0. -1.
     999901    1    3    3    0    0 -0.47906169450E-01  0.40973209100E-01  0.12250494006E+00  0.89071952110E+00  0.88000000000E+00 0.  1.
        -11    1    4    4    0    0  0.19869009662E-01 -0.80710230059E-03 -0.24328416346E-01  0.31425497960E-01  0.51100000000E-03 0. -1.
         11    1    4    4    0    0  0.40654932138E-01 -0.27905652860E-01 -0.89458473513E-01  0.10215002973E+00  0.51100000000E-03 0.  1.
</event>
<event>
 8    1  0.1183092E+005  0.1043930E+01  0.7957747E-01            NaN
         13   -1    0    0    0    0  0.00000000000E+00  0.00000000000E+00  0.74505805969E-08  0.10566000000E+00  0.10566000000E+00 0.  1.
     999900   -1    0    0    0    0 -0.00000000000E+00 -0.00000000000E+00 -0.74505805969E-08  0.93827000000E+00  0.93827000000E+00 0. -1.
     999902    2    1    2    0    0 -0.17958724098E-01  0.15609532908E-01  0.11927838692E-02  0.10201057262E+01  0.10198274837E+01 0.  0.
     999903    2    3    3    0    0  0.61386353447E-01 -0.90696474441E-01 -0.62943568380E-01  0.12785571627E+00  0.19775149008E-01 0.  0.
         14    1    1    2    0    0  0.17958724098E-01 -0.15609532908E-01 -0.11927838692E-02  0.23824273802E-01  0.00000000000E+00 0.  1.
     999901    1    3    3    0    0 -0.79345077544E-01  0.10630600735E+00  0.64136352249E-01  0.89225000992E+00  0.88000000000E+00 0.  1.
        -11    1    4    4    0    0  0.65926567703E-02 -0.22035875198E-01 -0.17803991775E-01  0.29090997975E-01  0.51100000000E-03 0. -1.
         11    1    4    4    0    0  0.54793696676E-01 -0.68660599242E-01 -0.45139576604E-01  0.98764718300E-01  0.51100000000E-03 0.  1.
</event>
<event>
 8    1  0.1183092E+005  0.1043930E+01  0.7957747E-01            NaN
         13   -1    0    0    0    0  0.00000000000E+00  0.00000000000E+00  0.74505805969E-08  0.10566000000E+00  0.10566000000E+00 0.  1.
     999900   -1    0    0    0    0 -0.00000000000E+00 -0.00000000000E+00 -0.74505805969E-08  0.93827000000E+00  0.93827000000E+00 0. -1.
     999902    2    1    2    0    0 -0.18887996736E-01 -0.15866161235E-01 -0.15050566845E-02  0.10192165080E+01  0.10189168432E+01 0.  0.
     999903    2    3    3    0    0  0.62110915941E-02 -0.10093506618E+00 -0.81065458778E-01  0.13118692489E+00  0.20296192079E-01 0.  0.
         14    1    1    2    0    0  0.18887996736E-01  0.15866161235E-01  0.15050566845E-02  0.24713492037E-01  0.00000000000E+00 0. -1.
     999901    1    3    3    0    0 -0.25099088330E-01  0.85068904945E-01  0.79560402094E-01  0.88802958307E+00  0.88000000000E+00 0.  1.
        -11    1    4    4    0    0 -0.65634964594E-02 -0.41868686947E-01 -0.38586941761E-01  0.57317358871E-01  0.51100000000E-03 0.  1.
         11    1    4    4    0    0  0.12774588053E-01 -0.59066379233E-01 -0.42478517017E-01  0.73869566024E-01  0.51100000000E-03 0. -1.
</event>
<event>
 8    1  0.1183092E+005  0.1043930E+01  0.7957747E-01            NaN
         13   -1    0    0    0    0  0.00000000000E+00  0.00000000000E+00  0.74505805969E-08  0.10566000000E+00  0.10566000000E+00 0. -1.
     999900   -1    0    0    0    0 -0.00000000000E+00 -0.00000000000E+00 -0.74505805969E-08  0.93827000000E+00  0.93827000000E+00 0.  1.
     999902    2    1    2    0    0 -0.10891941769E-01 -0.15001974513E-01  0.14718035678E-01  0.10202590429E+01  0.10199844119E+01 0.  0.
     999903    2    3    3    0    0  0.39086959366E-01 -0.11514515679E+00 -0.43654522745E-01  0.13125178587E+00  0.23132583375E-01 0.  0.
         14    1    1    2    0    0  0.10891941769E-01  0.15001974513E-01 -0.14718035678E-01  0.23670957079E-01  0.00000000000E+00 0.  1.
     999901    1    3    3    0    0 -0.49978901135E-01  0.10014318227E+00  0.58372558423E-01  0.88900725705E+00  0.88000000000E+00 0. -1.
        -11    1    4    4    0    0  0.12399468010E-01 -0.19008553950E-01 -0.15816554914E-01  0.27667606700E-01  0.51100000000E-03 0. -1.
         11    1    4    4    0    0  0.26687491356E-01 -0.96136602838E-01 -0.27837967831E-01  0.10358417917E+00  0.51100000000E-03 0.  1.
</event>
<event>
 8    1  0.1183092E+005  0.1043930E+01  0.7957747E-01            NaN
         13   -1    0    0    0    0  0.00000000000E+00  0.00000000000E+00  0.74505805969E-08  0.10566000000E+00  0.10566000000E+00 0. -1.
     999900   -1    0    0    0    0 -0.00000000000E+00 -0.00000000000E+00 -0.74505805969E-08  0.93827000000E+00  0.93827000000E+00 0.  1.
     999902    2    1    2    0    0 -0.17453588826E-01  0.10257697479E-01  0.10637594918E-01  0.10210606636E+01  0.10208045221E+01 0.  0.
     999903    2    3    3    0    0  0.86145732110E-01  0.89171197795E-01  0.37866374789E-01  0.13105978369E+00  0.19240968924E-01 0.  0.
         14    1    1    2    0    0  0.17453588826E-01 -0.10257697479E-01 -0.10637594918E-01  0.22869336372E-01  0.00000000000E+00 0.  1.
     999901    1    3    3    0    0 -0.10359932094E+00 -0.78913500316E-01 -0.27228779871E-01  0.89000087993E+00  0.88000000000E+00 0.  1.
        -11    1    4    4    0    0  0.68236709502E-01  0.70384204363E-01  0.21474508555E-01  0.10035736339E+00  0.51100000000E-03 0. -1.
         11    1    4    4    0    0  0.17909022608E-01  0.18786993433E-01  0.16391866234E-01  0.30702420306E-01  0.51100000000E-03 0.  1.
</event>
<event>
 8    1  0.1183092E+005  0.1043930E+01  0.7957747E-01            NaN
         13   -1    0    0    0    0  0.00000000000E+00  0.00000000000E+00  0.74505805969E-08  0.10566000000E+00  0.10566000000E+00 0. -1.
     999900   -1    0    0    0    0 -0.00000000000E+00 -0.00000000000E+00 -0.74505805969E-08  0.93827000000E+00  0.93827000000E+00 0.  1.
     999902    2    1    2    0    0 -0.13418070225E-01 -0.41356161891E-02 -0.19140812777E-01  0.10201914524E+01  0.10199152322E+01 0.  0.
     999903    2    3    3    0    0 -0.70663028995E-01  0.93347879775E-01 -0.58533325900E-01  0.13208572253E+00  0.17703037288E-01 0.  0.
         14    1    1    2    0    0  0.13418070225E-01  0.41356161891E-02  0.19140812777E-01  0.23738547631E-01  0.00000000000E+00 0. -1.
     999901    1    3    3    0    0  0.57244958769E-01 -0.97483495964E-01  0.39392513123E-01  0.88810572984E+00  0.88000000000E+00 0. -1.
        -11    1    4    4    0    0 -0.62448506742E-01  0.70896336200E-01 -0.45831383042E-01  0.10500896759E+00  0.51100000000E-03 0.  1.
         11    1    4    4    0    0 -0.82145222522E-02  0.22451543575E-01 -0.12701942859E-01  0.27076754941E-01  0.51100000000E-03 0. -1.
</event>
<event>
 7    1  0.1183092E+005  0.1043930E+01  0.7957747E-01            NaN
         13   -1    0    0    0    0  0.00000000000E+00  0.00000000000E+00  0.74505805969E-08  0.10566000000E+00  0.10566000000E+00 0. -1.
     999900   -1    0    0    0    0 -0.00000000000E+00 -0.00000000000E+00 -0.74505805969E-08  0.93827000000E+00  0.93827000000E+00 0.  1.
     999903    2    1    2    0    0  0.59564172151E-02 -0.61026256250E-01  0.16823223270E-01  0.66573685963E-01  0.19732003538E-01 0.  0.
         14    1    1    2    0    0  0.60077999150E-01  0.58055971281E-01 -0.44070412948E-01  0.94456673034E-01  0.00000000000E+00 0.  1.
     999901    1    1    2    0    0 -0.66034416365E-01  0.29702849694E-02  0.27247189678E-01  0.88289964100E+00  0.88000000000E+00 0.  1.
        -11    1    3    3    0    0 -0.35987021554E-02 -0.47364651802E-01  0.14888914313E-01  0.49782545013E-01  0.51100000000E-03 0. -1.
         11    1    3    3    0    0  0.95551193705E-02 -0.13661604448E-01  0.19343089568E-02  0.16791140951E-01  0.51100000000E-03 0.  1.
</event>
<event>
 8    1  0.1183092E+005  0.1043930E+01  0.7957747E-01            NaN
         13   -1    0    0    0    0  0.00000000000E+00  0.00000000000E+00  0.74505805969E-08  0.10566000000E+00  0.10566000000E+00 0.  1.
     999900   -1    0    0    0    0 -0.00000000000E+00 -0.00000000000E+00 -0.74505805969E-08  0.93827000000E+00  0.93827000000E+00 0.  1.
     999902    2    1    2    0    0  0.23436094570E-01  0.30948771768E-02 -0.61867191666E-02  0.10194942825E+01  0.10192013971E+01 0.  0.
     999903    2    3    3    0    0 -0.34348690166E-01 -0.89231574825E-01  0.83054243090E-01  0.12830002514E+00  0.20512988430E-01 0.  0.
         14    1    1    2    0    0 -0.23436094570E-01 -0.30948771768E-02  0.61867191666E-02  0.24435717453E-01  0.00000000000E+00 0.  1.
     999901    1    3    3    0    0  0.57784784736E-01  0.92326452002E-01 -0.89240962257E-01  0.89119425740E+00  0.88000000000E+00 0.  1.
        -11    1    4    4    0    0 -0.28348029809E-01 -0.68700152588E-01  0.74572921674E-01  0.10528391866E+00  0.51100000000E-03 0. -1.
         11    1    4    4    0    0 -0.60006603571E-02 -0.20531422238E-01  0.84813214163E-02  0.23016106486E-01  0.51100000000E-03 0.  1.
</event>
<event>
 8    1  0.1183092E+005  0.1043930E+01  0.7957747E-01            NaN
         13   -1    0    0    0    0  0.00000000000E+00  0.00000000000E+00  0.74505805969E-08  0.10566000000E+00  0.10566000000E+00 0. -1.
     999900   -1    0    0    0    0 -0.00000000000E+00 -0.00000000000E+00 -0.74505805969E-08  0.93827000000E+00  0.93827000000E+00 0.  1.
     999902    2    1    2    0    0 -0.62291051850E-02  0.91163570871E-02  0.19890189080E-01  0.10211807288E+01  0.10209272998E+01 0.  0.
     999903    2    3    3    0    0  0.93728291726E-01  0.53395215912E-01  0.74827833105E-01  0.13271562355E+00  0.19447117392E-01 0.  0.
         14    1    1    2    0    0  0.62291051850E-02 -0.91163570871E-02 -0.19890189080E-01  0.22749271188E-01  0.00000000000E+00 0.  1.
     999901    1    3    3    0    0 -0.99957396911E-01 -0.44278858825E-01 -0.54937644025E-01  0.88846510526E+00  0.88000000000E+00 0.  1.
        -11    1    4    4    0    0  0.43151634904E-01  0.14652084308E-01  0.26222860757E-01  0.52579907919E-01  0.51100000000E-03 0. -1.
         11    1    4    4    0    0  0.50576656822E-01  0.38743131604E-01  0.48604972348E-01  0.80135715631E-01  0.51100000000E-03 0.  1.
</event>
<event>
 7    1  0.1183092E+005  0.1043930E+01  0.7957747E-01            NaN
         13   -1    0    0    0    0  0.00000000000E+00  0.00000000000E+00  0.74505805969E-08  0.10566000000E+00  0.10566000000E+00 0. -1.
     999900   -1    0    0    0    0 -0.00000000000E+00 -0.00000000000E+00 -0.74505805969E-08  0.93827000000E+00  0.93827000000E+00 0. -1.
     999903    2    1    2    0    0  0.51690571100E-01 -0.79407027534E-01  0.62578778425E-01  0.11525490846E+00  0.19753461816E-01 0.  0.
         14    1    1    2    0    0 -0.13091213746E-01  0.42017359990E-01  0.57903228270E-02  0.44388807782E-01  0.00000000000E+00 0. -1.
     999901    1    1    2    0    0 -0.38599357354E-01  0.37389667543E-01 -0.68369101253E-01  0.88428628375E+00  0.88000000000E+00 0. -1.
        -11    1    3    3    0    0  0.18689370798E-01 -0.44911977067E-01  0.36793388121E-01  0.60995022710E-01  0.51100000000E-03 0.  1.
         11    1    3    3    0    0  0.33001200302E-01 -0.34495050466E-01  0.25785390304E-01  0.54259885755E-01  0.51100000000E-03 0. -1.
</event>
<event>
 8    1  0.1183092E+005  0.1043930E+01  0.7957747E-01            NaN
         13   -1    0    0    0    0  0.00000000000E+00  0.00000000000E+00  0.74505805969E-08  0.10566000000E+00  0.10566000000E+00 0.  1.
     999900   -1    0    0    0    0 -0.00000000000E+00 -0.00000000000E+00 -0.74505805969E-08  0.93827000000E+00  0.93827000000E+00 0.  1.
     999902    2    1    2    0    0  0.18331833440E-01  0.73959287331E-02 -0.11731298409E-01  0.10209434987E+01  0.10206846958E+01 0.  0.
     999903    2    3    3    0    0  0.65424584409E-01  0.96814139752E-01 -0.62052496975E-01  0.13373125427E+00  0.19498258585E-01 0.  0.
         14    1    1    2    0    0 -0.18331833440E-01 -0.73959287331E-02  0.11731298409E-01  0.22986501288E-01  0.00000000000E+00 0.  1.
     999901    1    3    3    0    0 -0.47092750969E-01 -0.89418211019E-01  0.50321198566E-01  0.88721224444E+00  0.88000000000E+00 0. -1.
        -11    1    4    4    0    0  0.18153910303E-01  0.35009203975E-01 -0.30106277760E-01  0.49617113013E-01  0.51100000000E-03 0.  1.
         11    1    4    4    0    0  0.47270674106E-01  0.61804935777E-01 -0.31946219215E-01  0.84114141261E-01  0.51100000000E-03 0. -1.
</event>
<event>
 8    1  0.1183092E+005  0.1043930E+01  0.7957747E-01            NaN
         13   -1    0    0    0    0  0.00000000000E+00  0.00000000000E+00  0.74505805969E-08  0.10566000000E+00  0.10566000000E+00 0.  1.
     999900   -1    0    0    0    0 -0.00000000000E+00 -0.00000000000E+00 -0.74505805969E-08  0.93827000000E+00  0.93827000000E+00 0. -1.
     999902    2    1    2    0    0 -0.60256067763E-02 -0.20259903838E-01  0.10909472898E-01  0.10201436964E+01  0.10198663506E+01 0.  0.
     999903    2    3    3    0    0 -0.85002316315E-01  0.51935079676E-01 -0.79579008332E-01  0.12905582108E+00  0.19998502607E-01 0.  0.
         14    1    1    2    0    0  0.60256067763E-02  0.20259903838E-01 -0.10909472898E-01  0.23786303611E-01  0.00000000000E+00 0.  1.
     999901    1    3    3    0    0  0.78976709539E-01 -0.72194983514E-01  0.90488481230E-01  0.89108787531E+00  0.88000000000E+00 0. -1.
        -11    1    4    4    0    0 -0.64289779903E-01  0.42425363170E-01 -0.50502142343E-01  0.92107625864E-01  0.51100000000E-03 0.  1.
         11    1    4    4    0    0 -0.20712536413E-01  0.95097165056E-02 -0.29076865989E-01  0.36948195212E-01  0.51100000000E-03 0. -1.
</event>
<event>
 8    1  0.1183092E+005  0.1043930E+01  0.7957747E-01            NaN
         13   -1    0    0    0    0  0.00000000000E+00  0.00000000000E+00  0.74505805969E-08  0.10566000000E+00  0.10566000000E+00 0.  1.
     999900   -1    0    0    0    0 -0.00000000000E+00 -0.00000000000E+00 -0.74505805969E-08  0.93827000000E+00  0.93827000000E+00 0. -1.
     999902    2    1    2    0    0  0.14238159329E-01  0.19777710243E-01  0.18337135277E-02  0.10194913931E+01  0.10191984375E+01 0.  0.
     999903    2    3    3    0    0 -0.10362871060E-01  0.12703698723E+00  0.30513796877E-01  0.13217391303E+00  0.17119178321E-01 0.  0.
         14    1    1    2    0    0 -0.14238159329E-01 -0.19777710243E-01 -0.18337135277E-02  0.24438606933E-01  0.00000000000E+00 0. -1.
     999901    1    3    3    0    0  0.24601030389E-01 -0.10725927698E+00 -0.28680083350E-01  0.88731748004E+00  0.88000000000E+00 0.  1.
        -11    1    4    4    0    0 -0.87986130163E-02  0.25819149107E-01  0.44643149844E-02  0.27644805676E-01  0.51100000000E-03 0.  1.
         11    1    4    4    0    0 -0.15642580438E-02  0.10121783812E+00  0.26049481893E-01  0.10452910736E+00  0.51100000000E-03 0. -1.
</event>
<event>
 7    1  0.1183092E+005  0.1043930E+01  0.7957747E-01            NaN
         13   -1    0    0    0    0  0.00000000000E+00  0.00000000000E+00  0.74505805969E-08  0.10566000000E+00  0.10566000000E+00 0. -1.
     999900   -1    0    0    0    0 -0.00000000000E+00 -0.00000000000E+00 -0.74505805969E-08  0.93827000000E+00  0.93827000000E+00 0. -1.
     999903    2    1    2    0    0 -0.78600325595E-02 -0.11050205647E+00  0.10750204741E-01  0.11310423880E+00  0.20112616353E-01 0.  0.
         14    1    1    2    0    0 -0.37864540421E-01  0.68168590499E-02 -0.20316256869E-01  0.43507968026E-01  0.00000000000E+00 0.  1.
     999901    1    1    2    0    0  0.45724572980E-01  0.10368519742E+00  0.95660521284E-02  0.88731779318E+00  0.88000000000E+00 0.  1.
        -11    1    3    3    0    0  0.15873872429E-02 -0.51289744346E-01 -0.36152918758E-02  0.51444038816E-01  0.51100000000E-03 0. -1.
         11    1    3    3    0    0 -0.94474198024E-02 -0.59212312120E-01  0.14365496617E-01  0.61660199980E-01  0.51100000000E-03 0.  1.
</event>
<event>
 8    1  0.1183092E+005  0.1043930E+01  0.7957747E-01            NaN
         13   -1    0    0    0    0  0.00000000000E+00  0.00000000000E+00  0.74505805969E-08  0.10566000000E+00  0.10566000000E+00 0. -1.
     999900   -1    0    0    0    0 -0.00000000000E+00 -0.00000000000E+00 -0.74505805969E-08  0.93827000000E+00  0.93827000000E+00 0.  1.
     999902    2    1    2    0    0  0.28632641148E-02 -0.22752468229E-01 -0.74890415651E-02  0.10198061770E+01  0.10195208089E+01 0.  0.
     999903    2    3    3    0    0  0.16121273848E-01 -0.85361521489E-01 -0.98550781768E-01  0.13279551817E+00  0.19388353146E-01 0.  0.
         14    1    1    2    0    0 -0.28632641148E-02  0.22752468229E-01  0.74890415651E-02  0.24123822986E-01  0.00000000000E+00 0.  1.
     999901    1    3    3    0    0 -0.13258009733E-01  0.62609053260E-01  0.91061740203E-01  0.88701065884E+00  0.88000000000E+00 0.  1.
        -11    1    4    4    0    0  0.18891855852E-01 -0.68450813563E-01 -0.71514628252E-01  0.10078203843E+00  0.51100000000E-03 0.  1.
         11    1    4    4    0    0 -0.27705820039E-02 -0.16910707926E-01 -0.27036153516E-01  0.32013479741E-01  0.51100000000E-03 0. -1.
</event>
<event>
 8    1  0.1183092E+005  0.1043930E+01  0.7957747E-01            NaN
         13   -1    0    0    0    0  0.00000000000E+00  0.00000000000E+00  0.74505805969E-08  0.10566000000E+00  0.10566000000E+00 0.  1.
     999900   -1    0    0    0    0 -0.00000000000E+00 -0.00000000000E+00 -0.74505805969E-08  0.93827000000E+00  0.93827000000E+00 0.  1.
     999902    2    1    2    0    0 -0.16644443201E-01 -0.40400611680E-02 -0.15936927259E-01  0.10205345895E+01  0.10202663883E+01 0.  0.
     999903    2    3    3    0    0 -0.10941179403E+00  0.70871477692E-01 -0.14095403949E-01  0.13249128464E+00  0.19014548875E-01 0.  0.
         14    1    1    2    0    0  0.16644443201E-01  0.40400611680E-02  0.15936927259E-01  0.23395410537E-01  0.00000000000E+00 0.  1.
     999901    1    3    3    0    0  0.92767350833E-01 -0.74911538860E-01 -0.18415233106E-02  0.88804330482E+00  0.88000000000E+00 0. -1.
        -11    1    4    4    0    0 -0.49514265426E-01  0.28980704569E-01  0.28979422739E-02  0.57447392530E-01  0.51100000000E-03 0. -1.
         11    1    4    4    0    0 -0.59897528608E-01  0.41890773122E-01 -0.16993346223E-01  0.75043892109E-01  0.51100000000E-03 0.  1.
</event>
<event>
 8    1  0.1183092E+005  0.1043930E+01  0.7957747E-01            NaN
         13   -1    0    0    0    0  0.00000000000E+00  0.00000000000E+00  0.74505805969E-08  0.10566000000E+00  0.10566000000E+00 0.  1.
     999900   -1    0    0    0    0 -0.00000000000E+00 -0.00000000000E+00 -0.74505805969E-08  0.93827000000E+00  0.93827000000E+00 0.  1.
     999902    2    1    2    0    0  0.22320449827E-01  0.59483754029E-02  0.63153076624E-02  0.10199827922E+01  0.10197016366E+01 0.  0.
     999903    2    3    3    0    0 -0.60102448503E-01  0.28843755851E-01  0.10997930745E+00  0.12977834520E+00  0.17398397843E-01 0.  0.
         14    1    1    2    0    0 -0.22320449827E-01 -0.59483754029E-02 -0.63153076624E-02  0.23947207797E-01  0.00000000000E+00 0.  1.
     999901    1    3    3    0    0  0.82422898330E-01 -0.22895380448E-01 -0.10366399979E+00  0.89020444700E+00  0.88000000000E+00 0.  1.
        -11    1    4    4    0    0 -0.52247794494E-01  0.24780902605E-01  0.81348907715E-01  0.99808972897E-01  0.51100000000E-03 0. -1.
         11    1    4    4    0    0 -0.78546540086E-02  0.40628532456E-02  0.28630399736E-01  0.29969372301E-01  0.51100000000E-03 0.  1.
</event>
<event>
 8    1  0.1183092E+005  0.1043930E+01  0.7957747E-01            NaN
         13   -1    0    0    0    0  0.00000000000E+00  0.00000000000E+00  0.74505805969E-08  0.10566000000E+00  0.10566000000E+00 0. -1.
     999900   -1    0    0    0    0 -0.00000000000E+00 -0.00000000000E+00 -0.74505805969E-08  0.93827000000E+00  0.93827000000E+00 0.  1.
     999902    2    1    2    0    0 -0.10364554458E-02 -0.98881150500E-02 -0.21794480152E-01  0.10199748664E+01  0.10196935225E+01 0.  0.
     999903    2    3    3    0    0 -0.12026492185E+00  0.30258024384E-01 -0.36382299676E-01  0.13090797120E+00  0.20833284162E-01 0.  0.
         14    1    1    2    0    0  0.10364554458E-02  0.98881150500E-02  0.21794480152E-01  0.23955133567E-01  0.00000000000E+00 0. -1.
     999901    1    3    3    0    0  0.11922846640E+00 -0.40146139434E-01  0.14587819524E-01  0.88906689523E+00  0.88000000000E+00 0.  1.
        -11    1    4    4    0    0 -0.86198541693E-02 -0.56147321580E-03 -0.77101271790E-02  0.11589836935E-01  0.51100000000E-03 0.  1.
         11    1    4    4    0    0 -0.11164506768E+00  0.30819497600E-01 -0.28672172497E-01  0.11931813427E+00  0.51100000000E-03 0. -1.
</event>
<event>
 8    1  0.1183092E+005  0.1043930E+01  0.7957747E-01            NaN
         13   -1    0    0    0    0  0.00000000000E+00  0.00000000000E+00  0.74505805969E-08  0.10566000000E+00  0.10566000000E+00 0. -1.
     999900   -1    0    0    0    0 -0.00000000000E+00 -0.00000000000E+00 -0.74505805969E-08  0.93827000000E+00  0.93827000000E+00 0. -1.
     999902    2    1    2    0    0 -0.19321917333E-01  0.15139389193E-01  0.72564755424E-02  0.10183332418E+01  0.10180114917E+01 0.  0.
     999903    2    3    3    0    0 -0.10864841257E+00  0.40027316094E-01 -0.58092511317E-01  0.13105136900E+00  0.19825686879E-01 0.  0.
         14    1    1    2    0    0  0.19321917333E-01 -0.15139389193E-01 -0.72564755424E-02  0.25596758230E-01  0.00000000000E+00 0. -1.
     999901    1    3    3    0    0  0.89326495232E-01 -0.24887926901E-01  0.65348986859E-01  0.88728187277E+00  0.88000000000E+00 0.  1.
        -11    1    4    4    0    0 -0.95655936228E-01  0.30710924782E-01 -0.55712067397E-01  0.11487956568E+00  0.51100000000E-03 0.  1.
         11    1    4    4    0    0 -0.12992476338E-01  0.93163913117E-02 -0.23804439199E-02  0.16171803323E-01  0.51100000000E-03 0. -1.
</event>
<event>
 8    1  0.1183092E+005  0.1043930E+01  0.7957747E-01            NaN
         13   -1    0    0    0    0  0.00000000000E+00  0.00000000000E+00  0.74505805969E-08  0.10566000000E+00  0.10566000000E+00 0.  1.
     999900   -1    0    0    0    0 -0.00000000000E+00 -0.00000000000E+00 -0.74505805969E-08  0.93827000000E+00  0.93827000000E+00 0. -1.
     999902    2    1    2    0    0  0.35978821433E-03  0.19646055391E-01  0.16445843077E-01  0.10183065206E+01  0.10179840899E+01 0.  0.
     999903    2    3    3    0    0  0.72065010490E-01  0.50559808331E-01 -0.91337622386E-01  0.12829833279E+00  0.19189605961E-01 0.  0.
         14    1    1    2    0    0 -0.35978821433E-03 -0.19646055391E-01 -0.16445843077E-01  0.25623479359E-01  0.00000000000E+00 0. -1.
     999901    1    3    3    0    0 -0.71705222275E-01 -0.30913752941E-01  0.10778346546E+00  0.89000818786E+00  0.88000000000E+00 0.  1.
        -11    1    4    4    0    0  0.60475119246E-01  0.38612759129E-01 -0.63276896976E-01  0.95668239386E-01  0.51100000000E-03 0. -1.
         11    1    4    4    0    0  0.11589891244E-01  0.11947049203E-01 -0.28060725410E-01  0.32630093399E-01  0.51100000000E-03 0.  1.
</event>
<event>
 8    1  0.1196231E+005  0.1043930E+01  0.7957747E-01            NaN
         13   -1    0    0    0    0  0.00000000000E+00  0.00000000000E+00  0.74505805969E-08  0.10566000000E+00  0.10566000000E+00 0.  1.
     999900   -1    0    0    0    0 -0.00000000000E+00 -0.00000000000E+00 -0.74505805969E-08  0.93827000000E+00  0.93827000000E+00 0.  1.
     999902    2    1    2    0    0  0.49749960931E-02  0.16166363716E-01  0.16485538678E-01  0.10203106247E+01  0.10200372033E+01 0.  0.
     999903    2    3    3    0    0 -0.18122012336E-01  0.99985788213E-01 -0.79762908370E-01  0.13080349645E+00  0.20539424460E-01 0.  0.
         14    1    1    2    0    0 -0.49749960931E-02 -0.16166363716E-01 -0.16485538678E-01  0.23619375255E-01  0.00000000000E+00 0. -1.
     999901    1    3    3    0    0  0.23097008429E-01 -0.83819424497E-01  0.96248447048E-01  0.88950712829E+00  0.88000000000E+00 0. -1.
        -11    1    4    4    0    0 -0.10970846439E-01  0.48982149284E-01 -0.26711333228E-01  0.56862701869E-01  0.51100000000E-03 0. -1.
         11    1    4    4    0    0 -0.71511658972E-02  0.51003638929E-01 -0.53051575143E-01  0.73940794585E-01  0.51100000000E-03 0.  1.
</event>
<event>
 8    1  0.1183092E+005  0.1043930E+01  0.7957747E-01            NaN
         13   -1    0    0    0    0  0.00000000000E+00  0.00000000000E+00  0.74505805969E-08  0.10566000000E+00  0.10566000000E+00 0. -1.
     999900   -1    0    0    0    0 -0.00000000000E+00 -0.00000000000E+00 -0.74505805969E-08  0.93827000000E+00  0.93827000000E+00 0.  1.
     999902    2    1    2    0    0 -0.16576394493E-01 -0.11023749640E-03  0.11839867421E-01  0.10235591515E+01  0.10233564214E+01 0.  0.
     999903    2    3    3    0    0 -0.10808854855E+00  0.66640091046E-01  0.43587425227E-01  0.13573147224E+00  0.19978309617E-01 0.  0.
         14    1    1    2    0    0  0.16576394493E-01  0.11023749640E-03 -0.11839867421E-01  0.20370848466E-01  0.00000000000E+00 0. -1.
     999901    1    3    3    0    0  0.91512154057E-01 -0.66750328542E-01 -0.31747557807E-01  0.88782767930E+00  0.88000000000E+00 0. -1.
        -11    1    4    4    0    0 -0.52726274715E-01  0.23856381092E-01  0.12718391208E-01  0.59255426419E-01  0.51100000000E-03 0.  1.
         11    1    4    4    0    0 -0.55362273835E-01  0.42783709953E-01  0.30869034019E-01  0.76476045818E-01  0.51100000000E-03 0. -1.
</event>
<event>
 8    1  0.1183092E+005  0.1043930E+01  0.7957747E-01            NaN
         13   -1    0    0    0    0  0.00000000000E+00  0.00000000000E+00  0.74505805969E-08  0.10566000000E+00  0.10566000000E+00 0. -1.
     999900   -1    0    0    0    0 -0.00000000000E+00 -0.00000000000E+00 -0.74505805969E-08  0.93827000000E+00  0.93827000000E+00 0.  1.
     999902    2    1    2    0    0  0.53465617266E-02 -0.18350451969E-01  0.14022197013E-01  0.10202245825E+01  0.10199491418E+01 0.  0.
     999903    2    3    3    0    0  0.67140104520E-01  0.12632360978E-01 -0.10733208721E+00  0.12921098051E+00  0.22537310432E-01 0.  0.
         14    1    1    2    0    0 -0.53465617266E-02  0.18350451969E-01 -0.14022197013E-01  0.23705417499E-01  0.00000000000E+00 0.  1.
     999901    1    3    3    0    0 -0.61793542794E-01 -0.30982812946E-01  0.12135428422E+00  0.89101360199E+00  0.88000000000E+00 0. -1.
        -11    1    4    4    0    0  0.58093239877E-01  0.71204040312E-02 -0.10134311279E+00  0.11703081775E+00  0.51100000000E-03 0.  1.
         11    1    4    4    0    0  0.90468646430E-02  0.55119569466E-02 -0.59889744187E-02  0.12180162759E-01  0.51100000000E-03 0. -1.
</event>
<event>
 8    1  0.1183092E+005  0.1043930E+01  0.7957747E-01            NaN
         13   -1    0    0    0    0  0.00000000000E+00  0.00000000000E+00  0.74505805969E-08  0.10566000000E+00  0.10566000000E+00 0.  1.
     999900   -1    0    0    0    0 -0.00000000000E+00 -0.00000000000E+00 -0.74505805969E-08  0.93827000000E+00  0.93827000000E+00 0.  1.
     999902    2    1    2    0    0 -0.32697503315E-02  0.27125723772E-01  0.49122262867E-02  0.10161698465E+01  0.10157905939E+01 0.  0.
     999903    2    3    3    0    0  0.99250954427E-01  0.24456354429E-01 -0.72052334416E-01  0.12687733888E+00  0.21388197680E-01 0.  0.
         14    1    1    2    0    0  0.32697503315E-02 -0.27125723772E-01 -0.49122262867E-02  0.27760153538E-01  0.00000000000E+00 0.  1.
     999901    1    3    3    0    0 -0.10252070476E+00  0.26693693432E-02  0.76964560702E-01  0.88929250758E+00  0.88000000000E+00 0. -1.
        -11    1    4    4    0    0  0.14378098903E-01  0.11816280085E-01 -0.13335642272E-01  0.22900975501E-01  0.51100000000E-03 0. -1.
         11    1    4    4    0    0  0.84872855524E-01  0.12640074343E-01 -0.58716692144E-01  0.10397636338E+00  0.51100000000E-03 0.  1.
</event>
<event>
 8    1  0.1183092E+005  0.1043930E+01  0.7957747E-01            NaN
         13   -1    0    0    0    0  0.00000000000E+00  0.00000000000E+00  0.74505805969E-08  0.10566000000E+00  0.10566000000E+00 0.  1.
     999900   -1    0    0    0    0 -0.00000000000E+00 -0.00000000000E+00 -0.74505805969E-08  0.93827000000E+00  0.93827000000E+00 0. -1.
     999902    2    1    2    0    0  0.18331477132E-01 -0.74614178975E-04  0.14403358593E-01  0.10206167986E+01  0.10203505007E+01 0.  0.
     999903    2    3    3    0    0 -0.74883760922E-01  0.41415830819E-01  0.96259417242E-01  0.13094778600E+00  0.23634689714E-01 0.  0.
         14    1    1    2    0    0 -0.18331477132E-01  0.74614178975E-04 -0.14403358593E-01  0.23313201408E-01  0.00000000000E+00 0. -1.
     999901    1    3    3    0    0  0.93215238054E-01 -0.41490444998E-01 -0.81856058650E-01  0.88966901259E+00  0.88000000000E+00 0. -1.
        -11    1    4    4    0    0 -0.24892004348E-01  0.26920264087E-01  0.42077381698E-01  0.55812898783E-01  0.51100000000E-03 0.  1.
         11    1    4    4    0    0 -0.49991756574E-01  0.14495566732E-01  0.54182035544E-01  0.75134887216E-01  0.51100000000E-03 0. -1.
</event>
<event>
 8    1  0.1183092E+005  0.1043930E+01  0.7957747E-01            NaN
         13   -1    0    0    0    0  0.00000000000E+00  0.00000000000E+00  0.74505805969E-08  0.10566000000E+00  0.10566000000E+00 0.  1.
     999900   -1    0    0    0    0 -0.00000000000E+00 -0.00000000000E+00 -0.74505805969E-08  0.93827000000E+00  0.93827000000E+00 0. -1.
     999902    2    1    2    0    0  0.19339548353E-01  0.13293965625E-01 -0.14012799588E-02  0.10204201885E+01  0.10201493272E+01 0.  0.
     999903    2    3    3    0    0 -0.46194662244E-01  0.11725010676E+00 -0.29532893002E-01  0.13143593682E+00  0.22840301269E-01 0.  0.
         14    1    1    2    0    0 -0.19339548353E-01 -0.13293965625E-01  0.14012799588E-02  0.23509811528E-01  0.00000000000E+00 0.  1.
     999901    1    3    3    0    0  0.65534210598E-01 -0.10395614114E+00  0.28131613044E-01  0.88898425166E+00  0.88000000000E+00 0. -1.
        -11    1    4    4    0    0 -0.21468826931E-01  0.58656022996E-01 -0.30351878812E-02  0.62537293274E-01  0.51100000000E-03 0. -1.
         11    1    4    4    0    0 -0.24725835314E-01  0.58594083767E-01 -0.26497705121E-01  0.68898643543E-01  0.51100000000E-03 0.  1.
</event>
<event>
 8    1  0.1183092E+005  0.1043930E+01  0.7957747E-01            NaN
         13   -1    0    0    0    0  0.00000000000E+00  0.00000000000E+00  0.74505805969E-08  0.10566000000E+00  0.10566000000E+00 0.  1.
     999900   -1    0    0    0    0 -0.00000000000E+00 -0.00000000000E+00 -0.74505805969E-08  0.93827000000E+00  0.93827000000E+00 0.  1.
     999902    2    1    2    0    0  0.15369302873E-01  0.14399451086E-01 -0.11196116520E-01  0.10200781094E+01  0.10197992138E+01 0.  0.
     999903    2    3    3    0    0 -0.99662720175E-01 -0.27087251413E-01 -0.75188375417E-01  0.12932083489E+00  0.20104963483E-01 0.  0.
         14    1    1    2    0    0 -0.15369302873E-01 -0.14399451086E-01  0.11196116520E-01  0.23851890648E-01  0.00000000000E+00 0.  1.
     999901    1    3    3    0    0  0.11503202305E+00  0.41486702498E-01  0.63992258897E-01  0.89075727446E+00  0.88000000000E+00 0. -1.
        -11    1    4    4    0    0 -0.34662085116E-01 -0.11828792653E-02 -0.31310308108E-01  0.46727463688E-01  0.51100000000E-03 0. -1.
         11    1    4    4    0    0 -0.65000635059E-01 -0.25904372147E-01 -0.43878067309E-01  0.82593371200E-01  0.51100000000E-03 0.  1.
</event>
<event>
 8    1  0.1183092E+005  0.1043930E+01  0.7957747E-01            NaN
         13   -1    0    0    0    0  0.00000000000E+00  0.00000000000E+00  0.74505805969E-08  0.10566000000E+00  0.10566000000E+00 0. -1.
     999900   -1    0    0    0    0 -0.00000000000E+00 -0.00000000000E+00 -0.74505805969E-08  0.93827000000E+00  0.93827000000E+00 0. -1.
     999902    2    1    2    0    0  0.19707503661E-01 -0.73866702362E-02 -0.10387594750E-01  0.10204597907E+01  0.10201898518E+01 0.  0.
     999903    2    3    3    0    0 -0.10415446231E+00  0.43340190987E-01 -0.59212999923E-01  0.12900091831E+00  0.20212208944E-01 0.  0.
         14    1    1    2    0    0 -0.19707503661E-01  0.73866702362E-02  0.10387594750E-01  0.23470209253E-01  0.00000000000E+00 0.  1.
     999901    1    3    3    0    0  0.12386196597E+00 -0.50726861223E-01  0.48825405173E-01  0.89145887244E+00  0.88000000000E+00 0.  1.
        -11    1    4    4    0    0 -0.20404856276E-01  0.16522093245E-01 -0.91469594705E-02  0.27807655662E-01  0.51100000000E-03 0.  1.
         11    1    4    4    0    0 -0.83749606032E-01  0.26818097742E-01 -0.50066040452E-01  0.10119326264E+00  0.51100000000E-03 0. -1.
</event>
<event>
 8    1  0.1183092E+005  0.1043930E+01  0.7957747E-01            NaN
         13   -1    0    0    0    0  0.00000000000E+00  0.00000000000E+00  0.74505805969E-08  0.10566000000E+00  0.10566000000E+00 0. -1.
     999900   -1    0    0    0    0 -0.00000000000E+00 -0.00000000000E+00 -0.74505805969E-08  0.93827000000E+00  0.93827000000E+00 0. -1.
     999902    2    1    2    0    0 -0.44303233490E-02 -0.22679311330E-01  0.99364263724E-02  0.10187762429E+01  0.10184656703E+01 0.  0.
     999903    2    3    3    0    0 -0.20835061223E-01  0.11290314327E+00  0.48881981906E-01  0.12739053866E+00  0.25645304590E-01 0.  0.
         14    1    1    2    0    0  0.44303233490E-02  0.22679311330E-01 -0.99364263724E-02  0.25153757104E-01  0.00000000000E+00 0.  1.
     999901    1    3    3    0    0  0.16404737874E-01 -0.13558245460E+00 -0.38945555533E-01  0.89138570424E+00  0.88000000000E+00 0.  1.
        -11    1    4    4    0    0 -0.16306553333E-01  0.67160894489E-01  0.16197564750E-01  0.70986700550E-01  0.51100000000E-03 0. -1.
         11    1    4    4    0    0 -0.45285078897E-02  0.45742248785E-01  0.32684417155E-01  0.56403838109E-01  0.51100000000E-03 0.  1.
</event>
<event>
 8    1  0.1183092E+005  0.1043930E+01  0.7957747E-01            NaN
         13   -1    0    0    0    0  0.00000000000E+00  0.00000000000E+00  0.74505805969E-08  0.10566000000E+00  0.10566000000E+00 0.  1.
     999900   -1    0    0    0    0 -0.00000000000E+00 -0.00000000000E+00 -0.74505805969E-08  0.93827000000E+00  0.93827000000E+00 0. -1.
     999902    2    1    2    0    0  0.99384907113E-03 -0.94798264668E-02  0.22230941975E-01  0.10197417874E+01  0.10194548756E+01 0.  0.
     999903    2    3    3    0    0  0.22190819416E-01  0.11480014944E+00  0.53690334920E-01  0.13020004172E+00  0.19947230980E-01 0.  0.
         14    1    1    2    0    0 -0.99384907113E-03  0.94798264668E-02 -0.22230941975E-01  0.24188212562E-01  0.00000000000E+00 0. -1.
     999901    1    3    3    0    0 -0.21196970345E-01 -0.12427997591E+00 -0.31459392945E-01  0.88954174571E+00  0.88000000000E+00 0. -1.
        -11    1    4    4    0    0 -0.22888124732E-02  0.21062837515E-01  0.50193304706E-02  0.21779269641E-01  0.51100000000E-03 0.  1.
         11    1    4    4    0    0  0.24479631889E-01  0.93737311924E-01  0.48671004450E-01  0.10842077208E+00  0.51100000000E-03 0. -1.
</event>
<event>
 8    1  0.1183092E+005  0.1043930E+01  0.7957747E-01            NaN
         13   -1    0    0    0    0  0.00000000000E+00  0.00000000000E+00  0.74505805969E-08  0.10566000000E+00  0.10566000000E+00 0. -1.
     999900   -1    0    0    0    0 -0.00000000000E+00 -0.00000000000E+00 -0.74505805969E-08  0.93827000000E+00  0.93827000000E+00 0.  1.
     999902    2    1    2    0    0 -0.20949592463E-01 -0.66558786230E-02  0.37240369904E-02  0.10216352787E+01  0.10213919856E+01 0.  0.
     999903    2    3    3    0    0  0.32426444237E-01 -0.12629640076E+00 -0.40793085203E-02  0.13190287625E+00  0.19480063556E-01 0.  0.
         14    1    1    2    0    0  0.20949592463E-01  0.66558786230E-02 -0.37240369904E-02  0.22294721261E-01  0.00000000000E+00 0. -1.
     999901    1    3    3    0    0 -0.53376036700E-01  0.11964052213E+00  0.78033455107E-02  0.88973240248E+00  0.88000000000E+00 0.  1.
        -11    1    4    4    0    0  0.25477237902E-01 -0.11013266489E+00 -0.96170765011E-02  0.11345061837E+00  0.51100000000E-03 0.  1.
         11    1    4    4    0    0  0.69492063349E-02 -0.16163735869E-01  0.55377679807E-02  0.18452257887E-01  0.51100000000E-03 0. -1.
</event>
<event>
 8    1  0.1183092E+005  0.1043930E+01  0.7957747E-01            NaN
         13   -1    0    0    0    0  0.00000000000E+00  0.00000000000E+00  0.74505805969E-08  0.10566000000E+00  0.10566000000E+00 0.  1.
     999900   -1    0    0    0    0 -0.00000000000E+00 -0.00000000000E+00 -0.74505805969E-08  0.93827000000E+00  0.93827000000E+00 0.  1.
     999902    2    1    2    0    0  0.17787909523E-01 -0.10854564825E-01  0.13289914025E-01  0.10192145571E+01  0.10189148445E+01 0.  0.
     999903    2    3    3    0    0  0.56877735037E-01  0.11055206105E+00  0.31559796081E-01  0.12983197809E+00  0.20086982364E-01 0.  0.
         14    1    1    2    0    0 -0.17787909523E-01  0.10854564825E-01 -0.13289914025E-01  0.24715442896E-01  0.00000000000E+00 0. -1.
     999901    1    3    3    0    0 -0.39089825514E-01 -0.12140662587E+00 -0.18269882056E-01  0.88938257901E+00  0.88000000000E+00 0.  1.
        -11    1    4    4    0    0  0.36798464162E-01  0.57788075060E-01  0.25276436033E-01  0.73025666196E-01  0.51100000000E-03 0.  1.
         11    1    4    4    0    0  0.20079270875E-01  0.52763985989E-01  0.62833600483E-02  0.56806311893E-01  0.51100000000E-03 0. -1.
</event>
<event>
 8    1  0.1183092E+005  0.1043930E+01  0.7957747E-01            NaN
         13   -1    0    0    0    0  0.00000000000E+00  0.00000000000E+00  0.74505805969E-08  0.10566000000E+00  0.10566000000E+00 0.  1.
     999900   -1    0    0    0    0 -0.00000000000E+00 -0.00000000000E+00 -0.74505805969E-08  0.93827000000E+00  0.93827000000E+00 0. -1.
     999902    2    1    2    0    0 -0.13284229607E-02 -0.96746682175E-02  0.22230508843E-01  0.10196491550E+01  0.10193600148E+01 0.  0.
     999903    2    3    3    0    0 -0.10484791441E+00  0.57378860730E-01 -0.43880603284E-01  0.12859183918E+00  0.18025951954E-01 0.  0.
         14    1    1    2    0    0  0.13284229607E-02  0.96746682175E-02 -0.22230508843E-01  0.24280845045E-01  0.00000000000E+00 0. -1.
     999901    1    3    3    0    0  0.10351949145E+00 -0.67053528948E-01  0.66111112127E-01  0.89105731578E+00  0.88000000000E+00 0. -1.
        -11    1    4    4    0    0 -0.87000738112E-01  0.40023339627E-01 -0.31735601737E-01  0.10088808495E+00  0.51100000000E-03 0.  1.
         11    1    4    4    0    0 -0.17847176298E-01  0.17355521103E-01 -0.12145001547E-01  0.27703754225E-01  0.51100000000E-03 0. -1.
</event>
<event>
 8    1  0.1183092E+005  0.1043930E+01  0.7957747E-01            NaN
         13   -1    0    0    0    0  0.00000000000E+00  0.00000000000E+00  0.74505805969E-08  0.10566000000E+00  0.10566000000E+00 0.  1.
     999900   -1    0    0    0    0 -0.00000000000E+00 -0.00000000000E+00 -0.74505805969E-08  0.93827000000E+00  0.93827000000E+00 0. -1.
     999902    2    1    2    0    0 -0.58890416790E-02  0.22910428066E-01  0.33584432523E-02  0.10200375814E+01  0.10197577260E+01 0.  0.
     999903    2    3    3    0    0  0.56804165371E-02  0.12947701464E+00 -0.22959667722E-01  0.13314247333E+00  0.20080025163E-01 0.  0.
         14    1    1    2    0    0  0.58890416790E-02 -0.22910428066E-01 -0.33584432523E-02  0.23892418612E-01  0.00000000000E+00 0. -1.
     999901    1    3    3    0    0 -0.11569458216E-01 -0.10656658657E+00  0.26318110974E-01  0.88689510806E+00  0.88000000000E+00 0.  1.
        -11    1    4    4    0    0  0.33733219664E-02  0.59612961473E-01 -0.47853868533E-03  0.59712432516E-01  0.51100000000E-03 0. -1.
         11    1    4    4    0    0  0.23070945707E-02  0.69864053164E-01 -0.22481129037E-01  0.73430040812E-01  0.51100000000E-03 0.  1.
</event>
<event>
 8    1  0.1183092E+005  0.1043930E+01  0.7957747E-01            NaN
         13   -1    0    0    0    0  0.00000000000E+00  0.00000000000E+00  0.74505805969E-08  0.10566000000E+00  0.10566000000E+00 0.  1.
     999900   -1    0    0    0    0 -0.00000000000E+00 -0.00000000000E+00 -0.74505805969E-08  0.93827000000E+00  0.93827000000E+00 0.  1.
     999902    2    1    2    0    0  0.10132836460E-02 -0.10515271041E-01  0.30303364490E-01  0.10118380763E+01  0.10113290271E+01 0.  0.
     999903    2    3    3    0    0  0.35269153503E-01 -0.10964031407E+00 -0.37990397184E-01  0.12298303936E+00  0.20411909088E-01 0.  0.
         14    1    1    2    0    0 -0.10132836460E-02  0.10515271041E-01 -0.30303364490E-01  0.32091923723E-01  0.00000000000E+00 0. -1.
     999901    1    3    3    0    0 -0.34255869857E-01  0.99125043031E-01  0.68293761674E-01  0.88885503692E+00  0.88000000000E+00 0. -1.
        -11    1    4    4    0    0  0.35323290169E-01 -0.10028263397E+00 -0.39630469507E-01  0.11346883598E+00  0.51100000000E-03 0. -1.
         11    1    4    4    0    0 -0.54136666432E-04 -0.93576801000E-02  0.16400723232E-02  0.95142033749E-02  0.51100000000E-03 0.  1.
</event>
<event>
 8    1  0.1183092E+005  0.1043930E+01  0.7957747E-01            NaN
         13   -1    0    0    0    0  0.00000000000E+00  0.00000000000E+00  0.74505805969E-08  0.10566000000E+00  0.10566000000E+00 0. -1.
     999900   -1    0    0    0    0 -0.00000000000E+00 -0.00000000000E+00 -0.74505805969E-08  0.93827000000E+00  0.93827000000E+00 0.  1.
     999902    2    1    2    0    0 -0.14435731510E-01 -0.72048899093E-02 -0.16809910862E-01  0.10206303458E+01  0.10203643608E+01 0.  0.
     999903    2    3    3    0    0  0.90939487147E-01 -0.76543523435E-01  0.46913202109E-01  0.12935462082E+00  0.20071574247E-01 0.  0.
         14    1    1    2    0    0  0.14435731510E-01  0.72048899093E-02  0.16809910862E-01  0.23299654204E-01  0.00000000000E+00 0. -1.
     999901    1    3    3    0    0 -0.10537521866E+00  0.69338633526E-01 -0.63723112970E-01  0.89127572498E+00  0.88000000000E+00 0.  1.
        -11    1    4    4    0    0  0.34510487085E-01 -0.38416528416E-01  0.12905155375E-01  0.53231640315E-01  0.51100000000E-03 0. -1.
         11    1    4    4    0    0  0.56429000062E-01 -0.38126995019E-01  0.34008046733E-01  0.76122980504E-01  0.51100000000E-03 0.  1.
</event>
<event>
 8    1  0.1183092E+005  0.1043930E+01  0.7957747E-01            NaN
         13   -1    0    0    0    0  0.00000000000E+00  0.00000000000E+00  0.74505805969E-08  0.10566000000E+00  0.10566000000E+00 0. -1.
     999900   -1    0    0    0    0 -0.00000000000E+00 -0.00000000000E+00 -0.74505805969E-08  0.93827000000E+00  0.93827000000E+00 0.  1.
     999902    2    1    2    0    0 -0.31981924043E-02 -0.23300221781E-01 -0.42264757678E-02  0.10200345639E+01  0.10197546370E+01 0.  0.
     999903    2    3    3    0    0  0.89713967799E-01 -0.84654523274E-01 -0.43160612912E-01  0.13216470469E+00  0.19740474434E-01 0.  0.
         14    1    1    2    0    0  0.31981924043E-02  0.23300221781E-01  0.42264757678E-02  0.23895436115E-01  0.00000000000E+00 0. -1.
     999901    1    3    3    0    0 -0.92912160203E-01  0.61354301493E-01  0.38934137144E-01  0.88786985919E+00  0.88000000000E+00 0. -1.
        -11    1    4    4    0    0  0.42537021437E-01 -0.32438296928E-01 -0.27153545798E-01  0.59993478568E-01  0.51100000000E-03 0. -1.
         11    1    4    4    0    0  0.47176946362E-01 -0.52216226346E-01 -0.16007067114E-01  0.72171226126E-01  0.51100000000E-03 0.  1.
</event>
<event>
 8    1  0.1183092E+005  0.1043930E+01  0.7957747E-01            NaN
         13   -1    0    0    0    0  0.00000000000E+00  0.00000000000E+00  0.74505805969E-08  0.10566000000E+00  0.10566000000E+00 0. -1.
     999900   -1    0    0    0    0 -0.00000000000E+00 -0.00000000000E+00 -0.74505805969E-08  0.93827000000E+00  0.93827000000E+00 0.  1.
     999902    2    1    2    0    0 -0.95934512937E-02 -0.24502401356E-02  0.19170054889E-01  0.10223538792E+01  0.10221261788E+01 0.  0.
     999903    2    3    3    0    0  0.84513711329E-01 -0.72450991397E-01 -0.65101258353E-01  0.13058153298E+00  0.20534102379E-01 0.  0.
         14    1    1    2    0    0  0.95934512937E-02  0.24502401356E-02 -0.19170054889E-01  0.21576120803E-01  0.00000000000E+00 0.  1.
     999901    1    3    3    0    0 -0.94107162622E-01  0.70000751261E-01  0.84271313242E-01  0.89177234621E+00  0.88000000000E+00 0. -1.
        -11    1    4    4    0    0  0.24927731317E-01 -0.10251846673E-01 -0.17903239432E-01  0.32361694207E-01  0.51100000000E-03 0. -1.
         11    1    4    4    0    0  0.59585980012E-01 -0.62199144724E-01 -0.47198018921E-01  0.98219838777E-01  0.51100000000E-03 0.  1.
</event>
<event>
 8    1  0.1183092E+005  0.1043930E+01  0.7957747E-01            NaN
         13   -1    0    0    0    0  0.00000000000E+00  0.00000000000E+00  0.74505805969E-08  0.10566000000E+00  0.10566000000E+00 0.  1.
     999900   -1    0    0    0    0 -0.00000000000E+00 -0.00000000000E+00 -0.74505805969E-08  0.93827000000E+00  0.93827000000E+00 0.  1.
     999902    2    1    2    0    0  0.17181395375E-01  0.10469761185E-01 -0.10884777645E-01  0.10210543660E+01  0.10207980818E+01 0.  0.
     999903    2    3    3    0    0 -0.75175676457E-01  0.76906023354E-01 -0.72947147926E-01  0.13156274522E+00  0.20531701816E-01 0.  0.
         14    1    1    2    0    0 -0.17181395375E-01 -0.10469761185E-01  0.10884777645E-01  0.22875633995E-01  0.00000000000E+00 0.  1.
     999901    1    3    3    0    0  0.92357071832E-01 -0.66436262168E-01  0.62062370281E-01  0.88949162079E+00  0.88000000000E+00 0. -1.
        -11    1    4    4    0    0 -0.62479848714E-01  0.73221400539E-01 -0.64311623765E-01  0.11576420459E+00  0.51100000000E-03 0. -1.
         11    1    4    4    0    0 -0.12695827743E-01  0.36846228150E-02 -0.86355241609E-02  0.15798540626E-01  0.51100000000E-03 0.  1.
</event>
<event>
 8    1  0.1183092E+005  0.1043930E+01  0.7957747E-01            NaN
         13   -1    0    0    0    0  0.00000000000E+00  0.00000000000E+00  0.74505805969E-08  0.10566000000E+00  0.10566000000E+00 0.  1.
     999900   -1    0    0    0    0 -0.00000000000E+00 -0.00000000000E+00 -0.74505805969E-08  0.93827000000E+00  0.93827000000E+00 0. -1.
     999902    2    1    2    0    0  0.11538041704E-01  0.12844425471E-01  0.16315125328E-01  0.10201752323E+01  0.10198986301E+01 0.  0.
     999903    2    3    3    0    0  0.64179591957E-01 -0.10973938929E+00  0.18221702015E-01  0.13011817828E+00  0.20903499908E-01 0.  0.
         14    1    1    2    0    0 -0.11538041704E-01 -0.12844425471E-01 -0.16315125328E-01  0.23754767658E-01  0.00000000000E+00 0. -1.
     999901    1    3    3    0    0 -0.52641550254E-01  0.12258381476E+00 -0.19065766867E-02  0.89005705406E+00  0.88000000000E+00 0. -1.
        -11    1    4    4    0    0  0.28442937120E-02 -0.16623089334E-01 -0.12868299685E-02  0.16921411232E-01  0.51100000000E-03 0.  1.
         11    1    4    4    0    0  0.61335298245E-01 -0.93116299956E-01  0.19508531983E-01  0.11319676705E+00  0.51100000000E-03 0. -1.
</event>
<event>
 8    1  0.1183092E+005  0.1043930E+01  0.7957747E-01            NaN
         13   -1    0    0    0    0  0.00000000000E+00  0.00000000000E+00  0.74505805969E-08  0.10566000000E+00  0.10566000000E+00 0.  1.
     999900   -1    0    0    0    0 -0.00000000000E+00 -0.00000000000E+00 -0.74505805969E-08  0.93827000000E+00  0.93827000000E+00 0. -1.
     999902    2    1    2    0    0 -0.68021260082E-02 -0.52017871894E-02 -0.21709315754E-01  0.10205928644E+01  0.10203260131E+01 0.  0.
     999903    2    3    3    0    0  0.31439608204E-01  0.41735483840E-01 -0.12047580595E+00  0.13300041442E+00  0.21080579699E-01 0.  0.
         14    1    1    2    0    0  0.68021260082E-02  0.52017871894E-02  0.21709315754E-01  0.23337135615E-01  0.00000000000E+00 0.  1.
     999901    1    3    3    0    0 -0.38241734212E-01 -0.46937271029E-01  0.98766490201E-01  0.88759244996E+00  0.88000000000E+00 0.  1.
        -11    1    4    4    0    0  0.18872315454E-01  0.35627567119E-01 -0.10305720430E+00  0.11066406964E+00  0.51100000000E-03 0. -1.
         11    1    4    4    0    0  0.12567292750E-01  0.61079167211E-02 -0.17418601655E-01  0.22336344785E-01  0.51100000000E-03 0.  1.
</event>
<event>
 8    1  0.1183092E+005  0.1043930E+01  0.7957747E-01            NaN
         13   -1    0    0    0    0  0.00000000000E+00  0.00000000000E+00  0.74505805969E-08  0.10566000000E+00  0.10566000000E+00 0. -1.
     999900   -1    0    0    0    0 -0.00000000000E+00 -0.00000000000E+00 -0.74505805969E-08  0.93827000000E+00  0.93827000000E+00 0. -1.
     999902    2    1    2    0    0 -0.18222615531E-02 -0.13604208332E-01 -0.22953003486E-01  0.10171861130E+01  0.10168344767E+01 0.  0.
     999903    2    3    3    0    0 -0.31984421137E-02 -0.38152898520E-01  0.11808568633E+00  0.12561646118E+00  0.19219581317E-01 0.  0.
         14    1    1    2    0    0  0.18222615531E-02  0.13604208332E-01  0.22953003486E-01  0.26743886974E-01  0.00000000000E+00 0. -1.
     999901    1    3    3    0    0  0.13761805606E-02  0.24548690189E-01 -0.14103868982E+00  0.89156965184E+00  0.88000000000E+00 0. -1.
        -11    1    4    4    0    0  0.70021050588E-03 -0.13249758083E-01  0.17780297610E-01  0.22191135350E-01  0.51100000000E-03 0. -1.
         11    1    4    4    0    0 -0.38986526196E-02 -0.24903140437E-01  0.10030538872E+00  0.10342532583E+00  0.51100000000E-03 0.  1.
</event>
<event>
 8    1  0.1183092E+005  0.1043930E+01  0.7957747E-01            NaN
         13   -1    0    0    0    0  0.00000000000E+00  0.00000000000E+00  0.74505805969E-08  0.10566000000E+00  0.10566000000E+00 0. -1.
     999900   -1    0    0    0    0 -0.00000000000E+00 -0.00000000000E+00 -0.74505805969E-08  0.93827000000E+00  0.93827000000E+00 0.  1.
     999902    2    1    2    0    0 -0.23516779631E-01 -0.16514332275E-02  0.44419856946E-02  0.10199404733E+01  0.10196583112E+01 0.  0.
     999903    2    3    3    0    0 -0.98118445505E-01 -0.74612481533E-01  0.45037937653E-01  0.13284591549E+00  0.20624492378E-01 0.  0.
         14    1    1    2    0    0  0.23516779631E-01  0.16514332275E-02 -0.44419856946E-02  0.23989526733E-01  0.00000000000E+00 0. -1.
     999901    1    3    3    0    0  0.74601665873E-01  0.72961048306E-01 -0.40595951959E-01  0.88709455778E+00  0.88000000000E+00 0. -1.
        -11    1    4    4    0    0 -0.30091237603E-01 -0.32670704704E-01  0.22589827957E-01  0.49833913898E-01  0.51100000000E-03 0. -1.
         11    1    4    4    0    0 -0.68027207901E-01 -0.41941776829E-01  0.22448109696E-01  0.83012001593E-01  0.51100000000E-03 0.  1.
</event>
<event>
 8    1  0.1183092E+005  0.1043930E+01  0.7957747E-01            NaN
         13   -1    0    0    0    0  0.00000000000E+00  0.00000000000E+00  0.74505805969E-08  0.10566000000E+00  0.10566000000E+00 0. -1.
     999900   -1    0    0    0    0 -0.00000000000E+00 -0.00000000000E+00 -0.74505805969E-08  0.93827000000E+00  0.93827000000E+00 0.  1.
     999902    2    1    2    0    0 -0.19996367291E-01 -0.70584669116E-02  0.10209146016E-01  0.10203948492E+01  0.10201233969E+01 0.  0.
     999903    2    3    3    0    0 -0.11601689322E+00  0.36686613462E-01  0.50408975527E-01  0.13318033189E+00  0.19751173909E-01 0.  0.
         14    1    1    2    0    0  0.19996367291E-01  0.70584669116E-02 -0.10209146016E-01  0.23535150782E-01  0.00000000000E+00 0.  1.
     999901    1    3    3    0    0  0.96020525927E-01 -0.43745080373E-01 -0.40199829511E-01  0.88721451732E+00  0.88000000000E+00 0.  1.
        -11    1    4    4    0    0 -0.13210234916E-01  0.10586835155E-01  0.39997924360E-02  0.17402610312E-01  0.51100000000E-03 0. -1.
         11    1    4    4    0    0 -0.10280665830E+00  0.26099778307E-01  0.46409183091E-01  0.11577772158E+00  0.51100000000E-03 0.  1.
</event>
<event>
 8    1  0.1183092E+005  0.1043930E+01  0.7957747E-01            NaN
         13   -1    0    0    0    0  0.00000000000E+00  0.00000000000E+00  0.74505805969E-08  0.10566000000E+00  0.10566000000E+00 0. -1.
     999900   -1    0    0    0    0 -0.00000000000E+00 -0.00000000000E+00 -0.74505805969E-08  0.93827000000E+00  0.93827000000E+00 0.  1.
     999902    2    1    2    0    0 -0.18646168771E-01 -0.47372807265E-02 -0.12513323825E-01  0.10209799518E+01  0.10207219785E+01 0.  0.
     999903    2    3    3    0    0 -0.72112253886E-01 -0.83400089369E-01  0.69741749236E-01  0.13204105810E+00  0.20375901689E-01 0.  0.
         14    1    1    2    0    0  0.18646168771E-01  0.47372807265E-02  0.12513323825E-01  0.22950048185E-01  0.00000000000E+00 0. -1.
     999901    1    3    3    0    0  0.53466085115E-01  0.78662808643E-01 -0.82255073060E-01  0.88893889372E+00  0.88000000000E+00 0.  1.
        -11    1    4    4    0    0 -0.71284814982E-01 -0.74302616037E-01  0.64243366161E-01  0.12136669565E+00  0.51100000000E-03 0. -1.
         11    1    4    4    0    0 -0.82743890469E-03 -0.90974733315E-02  0.54983830745E-02  0.10674362444E-01  0.51100000000E-03 0.  1.
</event>
<event>
 8    1  0.1183092E+005  0.1043930E+01  0.7957747E-01            NaN
         13   -1    0    0    0    0  0.00000000000E+00  0.00000000000E+00  0.74505805969E-08  0.10566000000E+00  0.10566000000E+00 0. -1.
     999900   -1    0    0    0    0 -0.00000000000E+00 -0.00000000000E+00 -0.74505805969E-08  0.93827000000E+00  0.93827000000E+00 0. -1.
     999902    2    1    2    0    0  0.23123847608E-01  0.10121991455E-02 -0.46700296131E-02  0.10203175869E+01  0.10200443285E+01 0.  0.
     999903    2    3    3    0    0  0.73005828300E-01  0.49476284168E-01  0.96017237160E-01  0.13184985805E+00  0.19680487177E-01 0.  0.
         14    1    1    2    0    0 -0.23123847608E-01 -0.10121991455E-02  0.46700296131E-02  0.23612413089E-01  0.00000000000E+00 0.  1.
     999901    1    3    3    0    0 -0.49881980692E-01 -0.48464085022E-01 -0.10068726677E+00  0.88846772886E+00  0.88000000000E+00 0. -1.
        -11    1    4    4    0    0  0.42043999941E-01  0.19924483285E-01  0.40059557050E-01  0.61397982029E-01  0.51100000000E-03 0.  1.
         11    1    4    4    0    0  0.30961828358E-01  0.29551800883E-01  0.55957680111E-01  0.70451876022E-01  0.51100000000E-03 0. -1.
</event>
<event>
 8    1  0.1183092E+005  0.1043930E+01  0.7957747E-01            NaN
         13   -1    0    0    0    0  0.00000000000E+00  0.00000000000E+00  0.74505805969E-08  0.10566000000E+00  0.10566000000E+00 0.  1.
     999900   -1    0    0    0    0 -0.00000000000E+00 -0.00000000000E+00 -0.74505805969E-08  0.93827000000E+00  0.93827000000E+00 0.  1.
     999902    2    1    2    0    0 -0.76678471143E-02 -0.16220597914E-01 -0.15291476210E-01  0.10203560118E+01  0.10200836524E+01 0.  0.
     999903    2    3    3    0    0  0.79693842210E-01  0.69198552133E-01  0.70019396401E-01  0.12782789405E+00  0.17254173997E-01 0.  0.
         14    1    1    2    0    0  0.76678471143E-02  0.16220597914E-01  0.15291476210E-01  0.23573988223E-01  0.00000000000E+00 0.  1.
     999901    1    3    3    0    0 -0.87361689324E-01 -0.85419150047E-01 -0.85310872610E-01  0.89252811773E+00  0.88000000000E+00 0.  1.
        -11    1    4    4    0    0  0.14777701256E-02  0.65338963771E-02  0.41842196136E-02  0.79148228778E-02  0.51100000000E-03 0.  1.
         11    1    4    4    0    0  0.78216072084E-01  0.62664655756E-01  0.65835176787E-01  0.11991307117E+00  0.51100000000E-03 0. -1.
</event>
<event>
 8    1  0.1183092E+005  0.1043930E+01  0.7957747E-01            NaN
         13   -1    0    0    0    0  0.00000000000E+00  0.00000000000E+00  0.74505805969E-08  0.10566000000E+00  0.10566000000E+00 0. -1.
     999900   -1    0    0    0    0 -0.00000000000E+00 -0.00000000000E+00 -0.74505805969E-08  0.93827000000E+00  0.93827000000E+00 0.  1.
     999902    2    1    2    0    0  0.11646652622E-01 -0.57259369712E-03 -0.18921604519E-01  0.10217039005E+01  0.10214621191E+01 0.  0.
     999903    2    3    3    0    0 -0.57753636218E-01 -0.11514198325E-02 -0.11831512691E+00  0.13339325247E+00  0.21412199465E-01 0.  0.
         14    1    1    2    0    0 -0.11646652622E-01  0.57259369712E-03  0.18921604519E-01  0.22226099487E-01  0.00000000000E+00 0. -1.
     999901    1    3    3    0    0  0.69400288840E-01  0.57882613539E-03  0.99393522388E-01  0.88831064804E+00  0.88000000000E+00 0. -1.
        -11    1    4    4    0    0 -0.29671031922E-01 -0.11263790583E-01 -0.59627038217E-01  0.67549151890E-01  0.51100000000E-03 0. -1.
         11    1    4    4    0    0 -0.28082604296E-01  0.10112370751E-01 -0.58688088690E-01  0.65844100581E-01  0.51100000000E-03 0.  1.
</event>
<event>
 8    1  0.1183092E+005  0.1043930E+01  0.7957747E-01            NaN
         13   -1    0    0    0    0  0.00000000000E+00  0.00000000000E+00  0.74505805969E-08  0.10566000000E+00  0.10566000000E+00 0.  1.
     999900   -1    0    0    0    0 -0.00000000000E+00 -0.00000000000E+00 -0.74505805969E-08  0.93827000000E+00  0.93827000000E+00 0. -1.
     999902    2    1    2    0    0  0.33977104179E-02  0.86661499109E-02 -0.22636970569E-01  0.10194539091E+01  0.10191600432E+01 0.  0.
     999903    2    3    3    0    0 -0.41359805986E-01 -0.11686276439E+00  0.26000158257E-01  0.12809185362E+00  0.19078141488E-01 0.  0.
         14    1    1    2    0    0 -0.33977104179E-02 -0.86661499109E-02  0.22636970569E-01  0.24476090923E-01  0.00000000000E+00 0.  1.
     999901    1    3    3    0    0  0.44757516404E-01  0.12552891430E+00 -0.48637128825E-01  0.89136205545E+00  0.88000000000E+00 0. -1.
        -11    1    4    4    0    0 -0.25150610814E-01 -0.57727308646E-01  0.21770093290E-01  0.66627272725E-01  0.51100000000E-03 0.  1.
         11    1    4    4    0    0 -0.16209195172E-01 -0.59135455747E-01  0.42300649665E-02  0.61464580899E-01  0.51100000000E-03 0. -1.
</event>
<event>
 8    1  0.1183092E+005  0.1043930E+01  0.7957747E-01            NaN
         13   -1    0    0    0    0  0.00000000000E+00  0.00000000000E+00  0.74505805969E-08  0.10566000000E+00  0.10566000000E+00 0. -1.
     999900   -1    0    0    0    0 -0.00000000000E+00 -0.00000000000E+00 -0.74505805969E-08  0.93827000000E+00  0.93827000000E+00 0. -1.
     999902    2    1    2    0    0  0.22994776246E-01  0.34550907357E-02 -0.12356660846E-01  0.10175978058E+01  0.10172570520E+01 0.  0.
     999903    2    3    3    0    0 -0.70572571364E-01 -0.18108995124E-02  0.10157457528E+00  0.12531819388E+00  0.20087015438E-01 0.  0.
         14    1    1    2    0    0 -0.22994776246E-01 -0.34550907357E-02  0.12356660846E-01  0.26332194247E-01  0.00000000000E+00 0. -1.
     999901    1    3    3    0    0  0.93567347610E-01  0.52659902481E-02 -0.11393123613E+00  0.89227961187E+00  0.88000000000E+00 0. -1.
        -11    1    4    4    0    0 -0.54389599605E-01  0.42224173299E-02  0.64949282067E-01  0.84821740818E-01  0.51100000000E-03 0. -1.
         11    1    4    4    0    0 -0.16182971759E-01 -0.60333168424E-02  0.36625293212E-01  0.40496453066E-01  0.51100000000E-03 0.  1.
</event>
<event>
 8    1  0.1183092E+005  0.1043930E+01  0.7957747E-01            NaN
         13   -1    0    0    0    0  0.00000000000E+00  0.00000000000E+00  0.74505805969E-08  0.10566000000E+00  0.10566000000E+00 0. -1.
     999900   -1    0    0    0    0 -0.00000000000E+00 -0.00000000000E+00 -0.74505805969E-08  0.93827000000E+00  0.93827000000E+00 0. -1.
     999902    2    1    2    0    0 -0.34313837142E-02 -0.15245879314E-01  0.18007788211E-01  0.10200869367E+01  0.10198082500E+01 0.  0.
     999903    2    3    3    0    0 -0.58507013134E-01 -0.87916731842E-02 -0.11169557644E+00  0.12885299183E+00  0.25036525387E-01 0.  0.
         14    1    1    2    0    0  0.34313837142E-02  0.15245879314E-01 -0.18007788211E-01  0.23843063278E-01  0.00000000000E+00 0.  1.
     999901    1    3    3    0    0  0.55075629420E-01 -0.64542061295E-02  0.12970336465E+00  0.89123394490E+00  0.88000000000E+00 0.  1.
        -11    1    4    4    0    0 -0.24436950526E-01 -0.13168227492E-01 -0.66657442409E-01  0.72208327191E-01  0.51100000000E-03 0.  1.
         11    1    4    4    0    0 -0.34070062608E-01  0.43765543083E-02 -0.45038134029E-01  0.56644664635E-01  0.51100000000E-03 0. -1.
</event>
<event>
 8    1  0.1183092E+005  0.1043930E+01  0.7957747E-01            NaN
         13   -1    0    0    0    0  0.00000000000E+00  0.00000000000E+00  0.74505805969E-08  0.10566000000E+00  0.10566000000E+00 0. -1.
     999900   -1    0    0    0    0 -0.00000000000E+00 -0.00000000000E+00 -0.74505805969E-08  0.93827000000E+00  0.93827000000E+00 0. -1.
     999902    2    1    2    0    0  0.46646509606E-02 -0.22247929683E-01 -0.59510261871E-02  0.10204322542E+01  0.10201616742E+01 0.  0.
     999903    2    3    3    0    0 -0.87856507842E-01 -0.95945177617E-01  0.13342704537E-01  0.13230855945E+00  0.20081933700E-01 0.  0.
         14    1    1    2    0    0 -0.46646509606E-02  0.22247929683E-01  0.59510261871E-02  0.23497745773E-01  0.00000000000E+00 0.  1.
     999901    1    3    3    0    0  0.92521158803E-01  0.73697247934E-01 -0.19293730724E-01  0.88812369478E+00  0.88000000000E+00 0. -1.
        -11    1    4    4    0    0 -0.32484377579E-01 -0.22064912139E-01  0.53244412313E-02  0.39632132542E-01  0.51100000000E-03 0. -1.
         11    1    4    4    0    0 -0.55372130263E-01 -0.73880265478E-01  0.80182633057E-02  0.92676426908E-01  0.51100000000E-03 0.  1.
</event>
<event>
 8    1  0.1183092E+005  0.1043930E+01  0.7957747E-01            NaN
         13   -1    0    0    0    0  0.00000000000E+00  0.00000000000E+00  0.74505805969E-08  0.10566000000E+00  0.10566000000E+00 0.  1.
     999900   -1    0    0    0    0 -0.00000000000E+00 -0.00000000000E+00 -0.74505805969E-08  0.93827000000E+00  0.93827000000E+00 0.  1.
     999902    2    1    2    0    0 -0.19647598148E-01 -0.12161075696E-01 -0.31140183973E-03  0.10208211955E+01  0.10205595996E+01 0.  0.
     999903    2    3    3    0    0  0.41457323379E-01 -0.10389817483E+00  0.66408661120E-01  0.13143878415E+00  0.18775071580E-01 0.  0.
         14    1    1    2    0    0  0.19647598148E-01  0.12161075696E-01  0.31140183973E-03  0.23108804517E-01  0.00000000000E+00 0. -1.
     999901    1    3    3    0    0 -0.61104921527E-01  0.91737099129E-01 -0.66720062959E-01  0.88938241134E+00  0.88000000000E+00 0.  1.
        -11    1    4    4    0    0  0.30669305727E-01 -0.51615150030E-01  0.35256490304E-01  0.69627661571E-01  0.51100000000E-03 0. -1.
         11    1    4    4    0    0  0.10788017652E-01 -0.52283024796E-01  0.31152170816E-01  0.61811122577E-01  0.51100000000E-03 0.  1.
</event>
<event>
 8    1  0.1183092E+005  0.1043930E+01  0.7957747E-01            NaN
         13   -1    0    0    0    0  0.00000000000E+00  0.00000000000E+00  0.74505805969E-08  0.10566000000E+00  0.10566000000E+00 0.  1.
     999900   -1    0    0    0    0 -0.00000000000E+00 -0.00000000000E+00 -0.74505805969E-08  0.93827000000E+00  0.93827000000E+00 0.  1.
     999902    2    1    2    0    0 -0.18513579876E-01 -0.73684077285E-02 -0.46340392778E-02  0.10234722290E+01  0.10232677476E+01 0.  0.
     999903    2    3    3    0    0  0.82608874910E-01 -0.95686299734E-01  0.34060172417E-01  0.13244863625E+00  0.20061199565E-01 0.  0.
         14    1    1    2    0    0  0.18513579876E-01  0.73684077285E-02  0.46340392778E-02  0.20457770951E-01  0.00000000000E+00 0.  1.
     999901    1    3    3    0    0 -0.10112245479E+00  0.88317892005E-01 -0.38694211695E-01  0.89102359280E+00  0.88000000000E+00 0.  1.
        -11    1    4    4    0    0  0.51463707130E-01 -0.57956803849E-01  0.30828425772E-01  0.83415569413E-01  0.51100000000E-03 0.  1.
         11    1    4    4    0    0  0.31145167781E-01 -0.37729495885E-01  0.32317466455E-02  0.49033066834E-01  0.51100000000E-03 0. -1.
</event>
<event>
 8    1  0.1183092E+005  0.1043930E+01  0.7957747E-01            NaN
         13   -1    0    0    0    0  0.00000000000E+00  0.00000000000E+00  0.74505805969E-08  0.10566000000E+00  0.10566000000E+00 0. -1.
     999900   -1    0    0    0    0 -0.00000000000E+00 -0.00000000000E+00 -0.74505805969E-08  0.93827000000E+00  0.93827000000E+00 0.  1.
     999902    2    1    2    0    0 -0.35206101717E-02 -0.22311389000E-01  0.60857298189E-02  0.10205370762E+01  0.10202689327E+01 0.  0.
     999903    2    3    3    0    0  0.10914224699E-01  0.20710959071E-01  0.12752793783E+00  0.13103862386E+00  0.18965281151E-01 0.  0.
         14    1    1    2    0    0  0.35206101717E-02  0.22311389000E-01 -0.60857298189E-02  0.23392923770E-01  0.00000000000E+00 0.  1.
     999901    1    3    3    0    0 -0.14434834870E-01 -0.43022348071E-01 -0.12144220801E+00  0.88949845237E+00  0.88000000000E+00 0. -1.
        -11    1    4    4    0    0 -0.13123802169E-02  0.17333843762E-01  0.77150888445E-01  0.79086694142E-01  0.51100000000E-03 0. -1.
         11    1    4    4    0    0  0.12226604916E-01  0.33771153099E-02  0.50377049381E-01  0.51951929713E-01  0.51100000000E-03 0.  1.
</event>
<event>
 8    1  0.1183092E+005  0.1043930E+01  0.7957747E-01            NaN
         13   -1    0    0    0    0  0.00000000000E+00  0.00000000000E+00  0.74505805969E-08  0.10566000000E+00  0.10566000000E+00 0. -1.
     999900   -1    0    0    0    0 -0.00000000000E+00 -0.00000000000E+00 -0.74505805969E-08  0.93827000000E+00  0.93827000000E+00 0. -1.
     999902    2    1    2    0    0 -0.13952252832E-01  0.16541875408E-01 -0.95915576040E-02  0.10202594069E+01  0.10199847844E+01 0.  0.
     999903    2    3    3    0    0 -0.54335949568E-01  0.10804608198E+00  0.50853871868E-01  0.13253337216E+00  0.18778370700E-01 0.  0.
         14    1    1    2    0    0  0.13952252832E-01 -0.16541875408E-01  0.95915576040E-02  0.23670593115E-01  0.00000000000E+00 0. -1.
     999901    1    3    3    0    0  0.40383696735E-01 -0.91504206571E-01 -0.60445429472E-01  0.88772603472E+00  0.88000000000E+00 0. -1.
        -11    1    4    4    0    0 -0.45001117261E-01  0.91589544090E-01  0.49866129061E-01  0.11358097151E+00  0.51100000000E-03 0.  1.
         11    1    4    4    0    0 -0.93348323065E-02  0.16456537889E-01  0.98774280694E-03  0.18952400648E-01  0.51100000000E-03 0. -1.
</event>
<event>
 8    1  0.1183092E+005  0.1043930E+01  0.7957747E-01            NaN
         13   -1    0    0    0    0  0.00000000000E+00  0.00000000000E+00  0.74505805969E-08  0.10566000000E+00  0.10566000000E+00 0.  1.
     999900   -1    0    0    0    0 -0.00000000000E+00 -0.00000000000E+00 -0.74505805969E-08  0.93827000000E+00  0.93827000000E+00 0. -1.
     999902    2    1    2    0    0 -0.16809319050E-01 -0.12431208063E-01  0.11470166647E-01  0.10200835566E+01  0.10198047899E+01 0.  0.
     999903    2    3    3    0    0 -0.31939916883E-01 -0.11016111919E+00 -0.61306092532E-01  0.13155868106E+00  0.19839836443E-01 0.  0.
         14    1    1    2    0    0  0.16809319050E-01  0.12431208063E-01 -0.11470166647E-01  0.23846443419E-01  0.00000000000E+00 0.  1.
     999901    1    3    3    0    0  0.15130597833E-01  0.97729911123E-01  0.72776259178E-01  0.88852487552E+00  0.88000000000E+00 0.  1.
        -11    1    4    4    0    0 -0.23834462619E-01 -0.51348889559E-01 -0.35495798751E-01  0.66820677318E-01  0.51100000000E-03 0.  1.
         11    1    4    4    0    0 -0.81054542646E-02 -0.58812229626E-01 -0.25810293780E-01  0.64738003742E-01  0.51100000000E-03 0. -1.
</event>
<event>
 8    1  0.1183092E+005  0.1043930E+01  0.7957747E-01            NaN
         13   -1    0    0    0    0  0.00000000000E+00  0.00000000000E+00  0.74505805969E-08  0.10566000000E+00  0.10566000000E+00 0. -1.
     999900   -1    0    0    0    0 -0.00000000000E+00 -0.00000000000E+00 -0.74505805969E-08  0.93827000000E+00  0.93827000000E+00 0.  1.
     999902    2    1    2    0    0 -0.79569298622E-02  0.22282735902E-01 -0.35763878460E-02  0.10200004450E+01  0.10197197087E+01 0.  0.
     999903    2    3    3    0    0 -0.94824437150E-01  0.29622239509E-01  0.80257558804E-01  0.13172798526E+00  0.32277475136E-01 0.  0.
         14    1    1    2    0    0  0.79569298622E-02 -0.22282735902E-01  0.35763878460E-02  0.23929554992E-01  0.00000000000E+00 0.  1.
     999901    1    3    3    0    0  0.86867507287E-01 -0.73395036077E-02 -0.83833946650E-01  0.88827245975E+00  0.88000000000E+00 0.  1.
        -11    1    4    4    0    0 -0.21458747361E-01 -0.44786489253E-02  0.27369791056E-01  0.35069968890E-01  0.51100000000E-03 0. -1.
         11    1    4    4    0    0 -0.73365689789E-01  0.34100888435E-01  0.52887767749E-01  0.96658016370E-01  0.51100000000E-03 0.  1.
</event>
<event>
 8    1  0.1183092E+005  0.1043930E+01  0.7957747E-01            NaN
         13   -1    0    0    0    0  0.00000000000E+00  0.00000000000E+00  0.74505805969E-08  0.10566000000E+00  0.10566000000E+00 0. -1.
     999900   -1    0    0    0    0 -0.00000000000E+00 -0.00000000000E+00 -0.74505805969E-08  0.93827000000E+00  0.93827000000E+00 0. -1.
     999902    2    1    2    0    0 -0.19164818679E-01  0.12322247636E-01 -0.32682316537E-02  0.10209124111E+01  0.10206528997E+01 0.  0.
     999903    2    3    3    0    0  0.61182622995E-02 -0.11939374559E+00  0.44371043890E-01  0.12947658185E+00  0.22429803637E-01 0.  0.
         14    1    1    2    0    0  0.19164818679E-01 -0.12322247636E-01  0.32682316537E-02  0.23017588926E-01  0.00000000000E+00 0. -1.
     999901    1    3    3    0    0 -0.25283080979E-01  0.13171599323E+00 -0.47639275543E-01  0.89143582923E+00  0.88000000000E+00 0.  1.
        -11    1    4    4    0    0  0.13200620338E-01 -0.10046084886E+00  0.35112463104E-01  0.10723704918E+00  0.51100000000E-03 0. -1.
         11    1    4    4    0    0 -0.70823580382E-02 -0.18932896728E-01  0.92585807854E-02  0.22239532663E-01  0.51100000000E-03 0.  1.
</event>
<event>
 8    1  0.1183092E+005  0.1043930E+01  0.7957747E-01            NaN
         13   -1    0    0    0    0  0.00000000000E+00  0.00000000000E+00  0.74505805969E-08  0.10566000000E+00  0.10566000000E+00 0.  1.
     999900   -1    0    0    0    0 -0.00000000000E+00 -0.00000000000E+00 -0.74505805969E-08  0.93827000000E+00  0.93827000000E+00 0. -1.
     999902    2    1    2    0    0  0.15356683835E-01  0.15736091258E-01  0.82825253111E-02  0.10204342018E+01  0.10201636671E+01 0.  0.
     999903    2    3    3    0    0 -0.99688752736E-01 -0.77652474664E-01  0.16582276441E-02  0.12802131641E+00  0.20468353477E-01 0.  0.
         14    1    1    2    0    0 -0.15356683835E-01 -0.15736091258E-01 -0.82825253111E-02  0.23495798178E-01  0.00000000000E+00 0. -1.
     999901    1    3    3    0    0  0.11504543657E+00  0.93388565922E-01  0.66242976669E-02  0.89241288541E+00  0.88000000000E+00 0.  1.
        -11    1    4    4    0    0 -0.42654140477E-01 -0.27157008651E-01 -0.81302232225E-02  0.51217579690E-01  0.51100000000E-03 0. -1.
         11    1    4    4    0    0 -0.57034612259E-01 -0.50495466013E-01  0.97884508667E-02  0.76803736724E-01  0.51100000000E-03 0.  1.
</event>
<event>
 7    1  0.1183092E+005  0.1043930E+01  0.7957747E-01            NaN
         13   -1    0    0    0    0  0.00000000000E+00  0.00000000000E+00  0.74505805969E-08  0.10566000000E+00  0.10566000000E+00 0. -1.
     999900   -1    0    0    0    0 -0.00000000000E+00 -0.00000000000E+00 -0.74505805969E-08  0.93827000000E+00  0.93827000000E+00 0. -1.
     999903    2    1    2    0    0 -0.56199561217E-01 -0.67740265262E-01  0.55285521496E-01  0.10595073649E+00  0.20541067590E-01 0.  0.
         14    1    1    2    0    0  0.69990622831E-02  0.94366850346E-02  0.47303842294E-01  0.48741064751E-01  0.00000000000E+00 0. -1.
     999901    1    1    2    0    0  0.49200498934E-01  0.58303580227E-01 -0.10258936379E+00  0.88923819876E+00  0.88000000000E+00 0. -1.
        -11    1    3    3    0    0 -0.34988199883E-01 -0.54063520360E-01  0.45616798151E-01  0.78918893551E-01  0.51100000000E-03 0.  1.
         11    1    3    3    0    0 -0.21211361334E-01 -0.13676744902E-01  0.96687233452E-02  0.27031842943E-01  0.51100000000E-03 0. -1.
</event>
<event>
 8    1  0.1183092E+005  0.1043930E+01  0.7957747E-01            NaN
         13   -1    0    0    0    0  0.00000000000E+00  0.00000000000E+00  0.74505805969E-08  0.10566000000E+00  0.10566000000E+00 0. -1.
     999900   -1    0    0    0    0 -0.00000000000E+00 -0.00000000000E+00 -0.74505805969E-08  0.93827000000E+00  0.93827000000E+00 0.  1.
     999902    2    1    2    0    0  0.19288143551E-01  0.10765564247E-03  0.10367501026E-01  0.10220318460E+01  0.10217972231E+01 0.  0.
     999903    2    3    3    0    0  0.25049388257E-01  0.12580711049E+00  0.28276251935E-01  0.13290065868E+00  0.20202419461E-01 0.  0.
         14    1    1    2    0    0 -0.19288143551E-01 -0.10765564247E-03 -0.10367501026E-01  0.21898154007E-01  0.00000000000E+00 0.  1.
     999901    1    3    3    0    0 -0.57612447059E-02 -0.12569945485E+00 -0.17908750909E-01  0.88913118731E+00  0.88000000000E+00 0. -1.
        -11    1    4    4    0    0  0.24260845843E-01  0.94972975857E-01  0.28388309987E-01  0.10205200659E+00  0.51100000000E-03 0. -1.
         11    1    4    4    0    0  0.78854241353E-03  0.30834134636E-01 -0.11205805239E-03  0.30848652092E-01  0.51100000000E-03 0.  1.
</event>
<event>
 8    1  0.1183092E+005  0.1043930E+01  0.7957747E-01            NaN
         13   -1    0    0    0    0  0.00000000000E+00  0.00000000000E+00  0.74505805969E-08  0.10566000000E+00  0.10566000000E+00 0.  1.
     999900   -1    0    0    0    0 -0.00000000000E+00 -0.00000000000E+00 -0.74505805969E-08  0.93827000000E+00  0.93827000000E+00 0. -1.
     999902    2    1    2    0    0 -0.53158178637E-02 -0.70699046531E-02  0.22366356137E-01  0.10198780696E+01  0.10195944200E+01 0.  0.
     999903    2    3    3    0    0 -0.55704601959E-01  0.84762181423E-01  0.81571763341E-01  0.13169034061E+00  0.20019069845E-01 0.  0.
         14    1    1    2    0    0  0.53158178637E-02  0.70699046531E-02 -0.22366356137E-01  0.24051930447E-01  0.00000000000E+00 0. -1.
     999901    1    3    3    0    0  0.50388784095E-01 -0.91832086076E-01 -0.59205407204E-01  0.88818772894E+00  0.88000000000E+00 0. -1.
        -11    1    4    4    0    0 -0.23987869643E-01  0.51454798198E-01  0.37879233064E-01  0.68250359457E-01  0.51100000000E-03 0.  1.
         11    1    4    4    0    0 -0.31716732316E-01  0.33307383226E-01  0.43692530277E-01  0.63439981157E-01  0.51100000000E-03 0. -1.
</event>
<event>
 8    1  0.1183092E+005  0.1043930E+01  0.7957747E-01            NaN
         13   -1    0    0    0    0  0.00000000000E+00  0.00000000000E+00  0.74505805969E-08  0.10566000000E+00  0.10566000000E+00 0. -1.
     999900   -1    0    0    0    0 -0.00000000000E+00 -0.00000000000E+00 -0.74505805969E-08  0.93827000000E+00  0.93827000000E+00 0.  1.
     999902    2    1    2    0    0 -0.48634822342E-03  0.10536358267E-02 -0.24027645039E-01  0.10198743477E+01  0.10195906093E+01 0.  0.
     999903    2    3    3    0    0  0.81288232002E-01 -0.58535563959E-01 -0.83668222314E-01  0.13207090480E+00  0.20203058197E-01 0.  0.
         14    1    1    2    0    0  0.48634822342E-03 -0.10536358267E-02  0.24027645039E-01  0.24055652333E-01  0.00000000000E+00 0. -1.
     999901    1    3    3    0    0 -0.81774580226E-01  0.59589199786E-01  0.59640577275E-01  0.88780344286E+00  0.88000000000E+00 0. -1.
        -11    1    4    4    0    0  0.45912821831E-01 -0.44832700326E-01 -0.55000791713E-01  0.84518083491E-01  0.51100000000E-03 0. -1.
         11    1    4    4    0    0  0.35375410171E-01 -0.13702863633E-01 -0.28667430601E-01  0.47552821312E-01  0.51100000000E-03 0.  1.
</event>
<event>
 8    1  0.1183092E+005  0.1043930E+01  0.7957747E-01            NaN
         13   -1    0    0    0    0  0.00000000000E+00  0.00000000000E+00  0.74505805969E-08  0.10566000000E+00  0.10566000000E+00 0.  1.
     999900   -1    0    0    0    0 -0.00000000000E+00 -0.00000000000E+00 -0.74505805969E-08  0.93827000000E+00  0.93827000000E+00 0.  1.
     999902    2    1    2    0    0 -0.13227729619E-01 -0.19226600138E-01 -0.31277383852E-02  0.10203839232E+01  0.10201122159E+01 0.  0.
     999903    2    3    3    0    0  0.10353503726E+00  0.11756033946E-01  0.73122387342E-01  0.12886412591E+00  0.20034249182E-01 0.  0.
         14    1    1    2    0    0  0.13227729619E-01  0.19226600138E-01  0.31277383852E-02  0.23546076768E-01  0.00000000000E+00 0.  1.
     999901    1    3    3    0    0 -0.11676276688E+00 -0.30982634084E-01 -0.76250125727E-01  0.89151979732E+00  0.88000000000E+00 0.  1.
        -11    1    4    4    0    0  0.77518253221E-01  0.14648272798E-01  0.46754504234E-01  0.91705486562E-01  0.51100000000E-03 0. -1.
         11    1    4    4    0    0  0.26016784043E-01 -0.28922388523E-02  0.26367883108E-01  0.37158639347E-01  0.51100000000E-03 0.  1.
</event>
<event>
 8    1  0.1183092E+005  0.1043930E+01  0.7957747E-01            NaN
         13   -1    0    0    0    0  0.00000000000E+00  0.00000000000E+00  0.74505805969E-08  0.10566000000E+00  0.10566000000E+00 0. -1.
     999900   -1    0    0    0    0 -0.00000000000E+00 -0.00000000000E+00 -0.74505805969E-08  0.93827000000E+00  0.93827000000E+00 0.  1.
     999902    2    1    2    0    0  0.39026452459E-02  0.20042284584E-01 -0.12580399265E-01  0.10199468756E+01  0.10196648659E+01 0.  0.
     999903    2    3    3    0    0 -0.82397263609E-01  0.10083111272E+00  0.89691485081E-02  0.13178084829E+00  0.18152796167E-01 0.  0.
         14    1    1    2    0    0 -0.39026452459E-02 -0.20042284584E-01  0.12580399265E-01  0.23983124420E-01  0.00000000000E+00 0. -1.
     999901    1    3    3    0    0  0.86299908855E-01 -0.80788828138E-01 -0.21549547773E-01  0.88816602729E+00  0.88000000000E+00 0. -1.
        -11    1    4    4    0    0 -0.65279463411E-01  0.72212716260E-01  0.40338710600E-03  0.97347360390E-01  0.51100000000E-03 0. -1.
         11    1    4    4    0    0 -0.17117800198E-01  0.28618396462E-01  0.85657614021E-02  0.34433487902E-01  0.51100000000E-03 0.  1.
</event>
<event>
 8    1  0.1183092E+005  0.1043930E+01  0.7957747E-01            NaN
         13   -1    0    0    0    0  0.00000000000E+00  0.00000000000E+00  0.74505805969E-08  0.10566000000E+00  0.10566000000E+00 0.  1.
     999900   -1    0    0    0    0 -0.00000000000E+00 -0.00000000000E+00 -0.74505805969E-08  0.93827000000E+00  0.93827000000E+00 0. -1.
     999902    2    1    2    0    0 -0.16514711497E-01 -0.13833775146E-01 -0.12000091631E-01  0.10192700886E+01  0.10189717377E+01 0.  0.
     999903    2    3    3    0    0  0.20968133310E-01 -0.11055440295E+00  0.60713693852E-01  0.13019914763E+00  0.24570852559E-01 0.  0.
         14    1    1    2    0    0  0.16514711497E-01  0.13833775146E-01  0.12000091631E-01  0.24659911390E-01  0.00000000000E+00 0.  1.
     999901    1    3    3    0    0 -0.37482844807E-01  0.96720627805E-01 -0.72713785484E-01  0.88907094098E+00  0.88000000000E+00 0. -1.
        -11    1    4    4    0    0  0.34594074188E-02 -0.42130670283E-01  0.10563161258E-01  0.43575249568E-01  0.51100000000E-03 0.  1.
         11    1    4    4    0    0  0.17508725891E-01 -0.68423732669E-01  0.50150532594E-01  0.86623898060E-01  0.51100000000E-03 0. -1.
</event>
<event>
 8    1  0.1183092E+005  0.1043930E+01  0.7957747E-01            NaN
         13   -1    0    0    0    0  0.00000000000E+00  0.00000000000E+00  0.74505805969E-08  0.10566000000E+00  0.10566000000E+00 0. -1.
     999900   -1    0    0    0    0 -0.00000000000E+00 -0.00000000000E+00 -0.74505805969E-08  0.93827000000E+00  0.93827000000E+00 0. -1.
     999902    2    1    2    0    0  0.19953642234E-01  0.41392863513E-02 -0.91467603720E-02  0.10215929287E+01  0.10213487001E+01 0.  0.
     999903    2    3    3    0    0  0.60342721326E-01  0.11156197836E+00 -0.37269330841E-01  0.13369552952E+00  0.19954261687E-01 0.  0.
         14    1    1    2    0    0 -0.19953642234E-01 -0.41392863513E-02  0.91467603720E-02  0.22337071321E-01  0.00000000000E+00 0. -1.
     999901    1    3    3    0    0 -0.40389079092E-01 -0.10742269201E+00  0.28122570469E-01  0.88789739916E+00  0.88000000000E+00 0.  1.
        -11    1    4    4    0    0  0.43762978487E-01  0.83913404518E-01 -0.36524067501E-01  0.10144420324E+00  0.51100000000E-03 0. -1.
         11    1    4    4    0    0  0.16579742840E-01  0.27648573840E-01 -0.74526333996E-03  0.32251326274E-01  0.51100000000E-03 0.  1.
</event>
<event>
 8    1  0.1183092E+005  0.1043930E+01  0.7957747E-01            NaN
         13   -1    0    0    0    0  0.00000000000E+00  0.00000000000E+00  0.74505805969E-08  0.10566000000E+00  0.10566000000E+00 0. -1.
     999900   -1    0    0    0    0 -0.00000000000E+00 -0.00000000000E+00 -0.74505805969E-08  0.93827000000E+00  0.93827000000E+00 0. -1.
     999902    2    1    2    0    0 -0.17550167233E-01 -0.15857331275E-01  0.54774020385E-02  0.10196510944E+01  0.10193620010E+01 0.  0.
     999903    2    3    3    0    0  0.10515739635E-01 -0.35459617619E-01  0.12410918135E+00  0.13103112847E+00  0.19952505369E-01 0.  0.
         14    1    1    2    0    0  0.17550167233E-01  0.15857331275E-01 -0.54774020385E-02  0.24278905621E-01  0.00000000000E+00 0. -1.
     999901    1    3    3    0    0 -0.28065906867E-01  0.19602286345E-01 -0.11863177931E+00  0.88861996591E+00  0.88000000000E+00 0. -1.
        -11    1    4    4    0    0  0.92685559193E-02 -0.17227855589E-01  0.35316594791E-01  0.40376083585E-01  0.51100000000E-03 0. -1.
         11    1    4    4    0    0  0.12471837154E-02 -0.18231762030E-01  0.88792586556E-01  0.90655044880E-01  0.51100000000E-03 0.  1.
</event>
<event>
 8    1  0.1183092E+005  0.1043930E+01  0.7957747E-01            NaN
         13   -1    0    0    0    0  0.00000000000E+00  0.00000000000E+00  0.74505805969E-08  0.10566000000E+00  0.10566000000E+00 0.  1.
     999900   -1    0    0    0    0 -0.00000000000E+00 -0.00000000000E+00 -0.74505805969E-08  0.93827000000E+00  0.93827000000E+00 0.  1.
     999902    2    1    2    0    0  0.16103449613E-01 -0.16145458055E-01  0.74777412880E-02  0.10199318017E+01  0.10196494332E+01 0.  0.
     999903    2    3    3    0    0  0.50049987394E-01  0.11739597283E+00  0.59750734451E-02  0.12920853427E+00  0.19295806581E-01 0.  0.
         14    1    1    2    0    0 -0.16103449613E-01  0.16145458055E-01 -0.74777412880E-02  0.23998198266E-01  0.00000000000E+00 0.  1.
     999901    1    3    3    0    0 -0.33946537781E-01 -0.13354143088E+00  0.15026678429E-02  0.89072326746E+00  0.88000000000E+00 0. -1.
        -11    1    4    4    0    0  0.22179967042E-01  0.34170482990E-01  0.75008364148E-02  0.41425795269E-01  0.51100000000E-03 0. -1.
         11    1    4    4    0    0  0.27870020353E-01  0.83225489837E-01 -0.15257629697E-02  0.87782739002E-01  0.51100000000E-03 0.  1.
</event>
<event>
 8    1  0.1183092E+005  0.1043930E+01  0.7957747E-01            NaN
         13   -1    0    0    0    0  0.00000000000E+00  0.00000000000E+00  0.74505805969E-08  0.10566000000E+00  0.10566000000E+00 0. -1.
     999900   -1    0    0    0    0 -0.00000000000E+00 -0.00000000000E+00 -0.74505805969E-08  0.93827000000E+00  0.93827000000E+00 0. -1.
     999902    2    1    2    0    0  0.18851478914E-01 -0.14732638129E-01 -0.35483857285E-02  0.10197428149E+01  0.10194559277E+01 0.  0.
     999903    2    3    3    0    0 -0.32573494897E-01 -0.12294331080E+00 -0.26052813749E-01  0.13133945665E+00  0.19879978085E-01 0.  0.
         14    1    1    2    0    0 -0.18851478914E-01  0.14732638129E-01  0.35483857285E-02  0.24187185135E-01  0.00000000000E+00 0. -1.
     999901    1    3    3    0    0  0.51424973811E-01  0.10821067267E+00  0.22504428020E-01  0.88840335822E+00  0.88000000000E+00 0. -1.
        -11    1    4    4    0    0 -0.31934931403E-01 -0.94720437598E-01 -0.15289915349E-01  0.10112291419E+00  0.51100000000E-03 0. -1.
         11    1    4    4    0    0 -0.63856349358E-03 -0.28222873199E-01 -0.10762898399E-01  0.30216542455E-01  0.51100000000E-03 0.  1.
</event>
<event>
 8    1  0.1183092E+005  0.1043930E+01  0.7957747E-01            NaN
         13   -1    0    0    0    0  0.00000000000E+00  0.00000000000E+00  0.74505805969E-08  0.10566000000E+00  0.10566000000E+00 0.  1.
     999900   -1    0    0    0    0 -0.00000000000E+00 -0.00000000000E+00 -0.74505805969E-08  0.93827000000E+00  0.93827000000E+00 0.  1.
     999902    2    1    2    0    0  0.89115299556E-02  0.64244975836E-02 -0.19398860385E-01  0.10216363839E+01  0.10213931151E+01 0.  0.
     999903    2    3    3    0    0  0.12083750282E+00  0.50060136040E-01 -0.17068266387E-01  0.13347146450E+00  0.20385946395E-01 0.  0.
         14    1    1    2    0    0 -0.89115299556E-02 -0.64244975836E-02  0.19398860385E-01  0.22293616117E-01  0.00000000000E+00 0.  1.
     999901    1    3    3    0    0 -0.11192597287E+00 -0.43635638457E-01 -0.23305939980E-02  0.88816491938E+00  0.88000000000E+00 0.  1.
        -11    1    4    4    0    0  0.11075829481E+00  0.48522850915E-01 -0.10598850638E-01  0.12138559917E+00  0.51100000000E-03 0. -1.
         11    1    4    4    0    0  0.10079208015E-01  0.15372851257E-02 -0.64694157488E-02  0.12085865335E-01  0.51100000000E-03 0.  1.
</event>
<event>
 8    1  0.1183092E+005  0.1043930E+01  0.7957747E-01            NaN
         13   -1    0    0    0    0  0.00000000000E+00  0.00000000000E+00  0.74505805969E-08  0.10566000000E+00  0.10566000000E+00 0.  1.
     999900   -1    0    0    0    0 -0.00000000000E+00 -0.00000000000E+00 -0.74505805969E-08  0.93827000000E+00  0.93827000000E+00 0.  1.
     999902    2    1    2    0    0  0.20182262373E-01  0.75659920466E-02  0.10543070686E-01  0.10199357447E+01  0.10196534700E+01 0.  0.
     999903    2    3    3    0    0  0.81937291194E-01  0.77718084492E-01  0.67532353900E-01  0.13315348386E+00  0.20381636224E-01 0.  0.
         14    1    1    2    0    0 -0.20182262373E-01 -0.75659920466E-02 -0.10543070686E-01  0.23994255346E-01  0.00000000000E+00 0. -1.
     999901    1    3    3    0    0 -0.61755028822E-01 -0.70152092445E-01 -0.56989283215E-01  0.88678226079E+00  0.88000000000E+00 0.  1.
        -11    1    4    4    0    0  0.13422716977E-01  0.15408751660E-01  0.21732540173E-01  0.29835605946E-01  0.51100000000E-03 0. -1.
         11    1    4    4    0    0  0.68514574217E-01  0.62309332832E-01  0.45799813727E-01  0.10331787791E+00  0.51100000000E-03 0.  1.
</event>
<event>
 8    1  0.1183092E+005  0.1043930E+01  0.7957747E-01            NaN
         13   -1    0    0    0    0  0.00000000000E+00  0.00000000000E+00  0.74505805969E-08  0.10566000000E+00  0.10566000000E+00 0. -1.
     999900   -1    0    0    0    0 -0.00000000000E+00 -0.00000000000E+00 -0.74505805969E-08  0.93827000000E+00  0.93827000000E+00 0.  1.
     999902    2    1    2    0    0  0.22941428285E-01  0.42230532520E-02  0.13297439554E-02  0.10205652503E+01  0.10202977597E+01 0.  0.
     999903    2    3    3    0    0  0.18787436673E-01  0.88291199732E-01  0.91063582287E-01  0.13200637736E+00  0.31381585656E-01 0.  0.
         14    1    1    2    0    0 -0.22941428285E-01 -0.42230532520E-02 -0.13297439554E-02  0.23364749721E-01  0.00000000000E+00 0.  1.
     999901    1    3    3    0    0  0.41539916121E-02 -0.84068146480E-01 -0.89733838332E-01  0.88855887292E+00  0.88000000000E+00 0. -1.
        -11    1    4    4    0    0 -0.65390661516E-02  0.42910608468E-01  0.37357541071E-01  0.57270644322E-01  0.51100000000E-03 0. -1.
         11    1    4    4    0    0  0.25326502825E-01  0.45380591264E-01  0.53706041216E-01  0.74735733039E-01  0.51100000000E-03 0.  1.
</event>
<event>
 8    1  0.1183092E+005  0.1043930E+01  0.7957747E-01            NaN
         13   -1    0    0    0    0  0.00000000000E+00  0.00000000000E+00  0.74505805969E-08  0.10566000000E+00  0.10566000000E+00 0.  1.
     999900   -1    0    0    0    0 -0.00000000000E+00 -0.00000000000E+00 -0.74505805969E-08  0.93827000000E+00  0.93827000000E+00 0. -1.
     999902    2    1    2    0    0  0.11742590025E-01 -0.12190496603E-01 -0.15717414989E-01  0.10208316502E+01  0.10205702937E+01 0.  0.
     999903    2    3    3    0    0 -0.29853589305E-02  0.44830559422E-01  0.11877405332E+00  0.12866783772E+00  0.20723061933E-01 0.  0.
         14    1    1    2    0    0 -0.11742590025E-01  0.12190496603E-01  0.15717414989E-01  0.23098349765E-01  0.00000000000E+00 0.  1.
     999901    1    3    3    0    0  0.14727948956E-01 -0.57021056025E-01 -0.13449146831E+00  0.89216381251E+00  0.88000000000E+00 0. -1.
        -11    1    4    4    0    0 -0.20518668575E-02  0.37426834156E-01  0.70775893661E-01  0.80090363447E-01  0.51100000000E-03 0. -1.
         11    1    4    4    0    0 -0.93349207296E-03  0.74037252659E-02  0.47998159659E-01  0.48577474275E-01  0.51100000000E-03 0.  1.
</event>
<event>
 8    1  0.1183092E+005  0.1043930E+01  0.7957747E-01            NaN
         13   -1    0    0    0    0  0.00000000000E+00  0.00000000000E+00  0.74505805969E-08  0.10566000000E+00  0.10566000000E+00 0. -1.
     999900   -1    0    0    0    0 -0.00000000000E+00 -0.00000000000E+00 -0.74505805969E-08  0.93827000000E+00  0.93827000000E+00 0. -1.
     999902    2    1    2    0    0 -0.25985824664E-02  0.11227539744E-01 -0.20618445377E-01  0.10203094460E+01  0.10200359970E+01 0.  0.
     999903    2    3    3    0    0 -0.35433861540E-01 -0.12233010796E+00  0.78523177349E-02  0.12917175457E+00  0.20086548439E-01 0.  0.
         14    1    1    2    0    0  0.25985824664E-02 -0.11227539744E-01  0.20618445377E-01  0.23620553958E-01  0.00000000000E+00 0. -1.
     999901    1    3    3    0    0  0.32835279074E-01  0.13355764770E+00 -0.28470763112E-01  0.89113769147E+00  0.88000000000E+00 0.  1.
        -11    1    4    4    0    0 -0.12120593511E-01 -0.75005222842E-01  0.81234706957E-02  0.76412984092E-01  0.51100000000E-03 0. -1.
         11    1    4    4    0    0 -0.23313268030E-01 -0.47324885115E-01 -0.27115296082E-03  0.52758770478E-01  0.51100000000E-03 0.  1.
</event>
<event>
 8    1  0.1183092E+005  0.1043930E+01  0.7957747E-01            NaN
         13   -1    0    0    0    0  0.00000000000E+00  0.00000000000E+00  0.74505805969E-08  0.10566000000E+00  0.10566000000E+00 0. -1.
     999900   -1    0    0    0    0 -0.00000000000E+00 -0.00000000000E+00 -0.74505805969E-08  0.93827000000E+00  0.93827000000E+00 0. -1.
     999902    2    1    2    0    0  0.20145936687E-01  0.98168709124E-02  0.79688994687E-02  0.10201448559E+01  0.10198675375E+01 0.  0.
     999903    2    3    3    0    0  0.61841389290E-01  0.11575426190E+00  0.40671825809E-02  0.13280249530E+00  0.19913668873E-01 0.  0.
         14    1    1    2    0    0 -0.20145936687E-01 -0.98168709124E-02 -0.79688994687E-02  0.23785144066E-01  0.00000000000E+00 0. -1.
     999901    1    3    3    0    0 -0.41695452603E-01 -0.10593739098E+00  0.39017168878E-02  0.88734236063E+00  0.88000000000E+00 0. -1.
        -11    1    4    4    0    0  0.50566133781E-01  0.10684731987E+00  0.16402193883E-02  0.11822112793E+00  0.51100000000E-03 0.  1.
         11    1    4    4    0    0  0.11275255509E-01  0.89069420264E-02  0.24269631926E-02  0.14581367370E-01  0.51100000000E-03 0. -1.
</event>
<event>
 8    1  0.1183092E+005  0.1043930E+01  0.7957747E-01            NaN
         13   -1    0    0    0    0  0.00000000000E+00  0.00000000000E+00  0.74505805969E-08  0.10566000000E+00  0.10566000000E+00 0. -1.
     999900   -1    0    0    0    0 -0.00000000000E+00 -0.00000000000E+00 -0.74505805969E-08  0.93827000000E+00  0.93827000000E+00 0. -1.
     999902    2    1    2    0    0 -0.18882290394E-01 -0.43587552917E-02  0.13161634144E-01  0.10205041969E+01  0.10202352903E+01 0.  0.
     999903    2    3    3    0    0 -0.84873421394E-01  0.92455409525E-01 -0.33698667788E-01  0.13150267845E+00  0.20145813956E-01 0.  0.
         14    1    1    2    0    0  0.18882290394E-01  0.43587552917E-02 -0.13161634144E-01  0.23425803114E-01  0.00000000000E+00 0.  1.
     999901    1    3    3    0    0  0.65991131001E-01 -0.96814164816E-01  0.46860301932E-01  0.88900151843E+00  0.88000000000E+00 0.  1.
        -11    1    4    4    0    0 -0.46075830265E-01  0.54384048944E-01 -0.28954933794E-01  0.76936702725E-01  0.51100000000E-03 0.  1.
         11    1    4    4    0    0 -0.38797591129E-01  0.38071360580E-01 -0.47437339934E-02  0.54565975727E-01  0.51100000000E-03 0. -1.
</event>
<event>
 8    1  0.1183092E+005  0.1043930E+01  0.7957747E-01            NaN
         13   -1    0    0    0    0  0.00000000000E+00  0.00000000000E+00  0.74505805969E-08  0.10566000000E+00  0.10566000000E+00 0. -1.
     999900   -1    0    0    0    0 -0.00000000000E+00 -0.00000000000E+00 -0.74505805969E-08  0.93827000000E+00  0.93827000000E+00 0.  1.
     999902    2    1    2    0    0  0.11356492681E-01 -0.20695695341E-01 -0.64942865850E-03  0.10203142534E+01  0.10200409169E+01 0.  0.
     999903    2    3    3    0    0  0.19980786337E-01 -0.95584010025E-02  0.12747868399E+00  0.13092388293E+00  0.19991333088E-01 0.  0.
         14    1    1    2    0    0 -0.11356492681E-01  0.20695695341E-01  0.64942865850E-03  0.23615746637E-01  0.00000000000E+00 0.  1.
     999901    1    3    3    0    0 -0.86242936558E-02 -0.11137294339E-01 -0.12812811264E+00  0.88939037043E+00  0.88000000000E+00 0.  1.
        -11    1    4    4    0    0  0.74841625347E-02 -0.14510288180E-01  0.66093061862E-01  0.68081679615E-01  0.51100000000E-03 0. -1.
         11    1    4    4    0    0  0.12496623802E-01  0.49518871777E-02  0.61385622124E-01  0.62842203316E-01  0.51100000000E-03 0.  1.
</event>
<event>
 8    1  0.1183092E+005  0.1043930E+01  0.7957747E-01            NaN
         13   -1    0    0    0    0  0.00000000000E+00  0.00000000000E+00  0.74505805969E-08  0.10566000000E+00  0.10566000000E+00 0. -1.
     999900   -1    0    0    0    0 -0.00000000000E+00 -0.00000000000E+00 -0.74505805969E-08  0.93827000000E+00  0.93827000000E+00 0. -1.
     999902    2    1    2    0    0  0.17984264217E-01 -0.20255191044E-02 -0.14753172376E-01  0.10205806406E+01  0.10203135065E+01 0.  0.
     999903    2    3    3    0    0  0.77102845626E-01 -0.10504744226E+00 -0.15625136267E-01  0.13260018836E+00  0.18943366686E-01 0.  0.
         14    1    1    2    0    0 -0.17984264217E-01  0.20255191044E-02  0.14753172376E-01  0.23349359354E-01  0.00000000000E+00 0. -1.
     999901    1    3    3    0    0 -0.59118581409E-01  0.10302192315E+00  0.87196389091E-03  0.88798045228E+00  0.88000000000E+00 0. -1.
        -11    1    4    4    0    0  0.29461492638E-01 -0.28131211979E-01 -0.10005425147E-01  0.41948948607E-01  0.51100000000E-03 0.  1.
         11    1    4    4    0    0  0.47641352989E-01 -0.76916230279E-01 -0.56197111203E-02  0.90651239755E-01  0.51100000000E-03 0. -1.
</event>
<event>
 8    1  0.1183092E+005  0.1043930E+01  0.7957747E-01            NaN
         13   -1    0    0    0    0  0.00000000000E+00  0.00000000000E+00  0.74505805969E-08  0.10566000000E+00  0.10566000000E+00 0.  1.
     999900   -1    0    0    0    0 -0.00000000000E+00 -0.00000000000E+00 -0.74505805969E-08  0.93827000000E+00  0.93827000000E+00 0.  1.
     999902    2    1    2    0    0  0.14454709803E-01 -0.55429847332E-02  0.18191831285E-01  0.10200426385E+01  0.10197629030E+01 0.  0.
     999903    2    3    3    0    0  0.12784867436E-01  0.10792621770E+00  0.70321457318E-01  0.13122570221E+00  0.21530356718E-01 0.  0.
         14    1    1    2    0    0 -0.14454709803E-01  0.55429847332E-02 -0.18191831285E-01  0.23887361527E-01  0.00000000000E+00 0. -1.
     999901    1    3    3    0    0  0.16698423672E-02 -0.11346920243E+00 -0.52129626033E-01  0.88881693626E+00  0.88000000000E+00 0. -1.
        -11    1    4    4    0    0 -0.57275467766E-02  0.39018110840E-01  0.25097307414E-01  0.46747767070E-01  0.51100000000E-03 0.  1.
         11    1    4    4    0    0  0.18512414212E-01  0.68908106855E-01  0.45224149904E-01  0.84477935142E-01  0.51100000000E-03 0. -1.
</event>
<event>
 8    1  0.1183092E+005  0.1043930E+01  0.7957747E-01            NaN
         13   -1    0    0    0    0  0.00000000000E+00  0.00000000000E+00  0.74505805969E-08  0.10566000000E+00  0.10566000000E+00 0.  1.
     999900   -1    0    0    0    0 -0.00000000000E+00 -0.00000000000E+00 -0.74505805969E-08  0.93827000000E+00  0.93827000000E+00 0. -1.
     999902    2    1    2    0    0 -0.51253380705E-03 -0.21283398117E-01 -0.96686362369E-02  0.10205477791E+01  0.10202798838E+01 0.  0.
     999903    2    3    3    0    0  0.41929913711E-01  0.88883349001E-01 -0.82918170092E-01  0.12964735386E+00  0.16572448197E-01 0.  0.
         14    1    1    2    0    0  0.51253380705E-03  0.21283398117E-01  0.96686362369E-02  0.23382220874E-01  0.00000000000E+00 0.  1.
     999901    1    3    3    0    0 -0.42442447518E-01 -0.11016674712E+00  0.73249533855E-01  0.89090042526E+00  0.88000000000E+00 0.  1.
        -11    1    4    4    0    0  0.27296155408E-01  0.43574453693E-01 -0.35772921210E-01  0.62640052104E-01  0.51100000000E-03 0. -1.
         11    1    4    4    0    0  0.14633758304E-01  0.45308895307E-01 -0.47145248881E-01  0.67007301760E-01  0.51100000000E-03 0.  1.
</event>
<event>
 8    1  0.1183092E+005  0.1043930E+01  0.7957747E-01            NaN
         13   -1    0    0    0    0  0.00000000000E+00  0.00000000000E+00  0.74505805969E-08  0.10566000000E+00  0.10566000000E+00 0.  1.
     999900   -1    0    0    0    0 -0.00000000000E+00 -0.00000000000E+00 -0.74505805969E-08  0.93827000000E+00  0.93827000000E+00 0. -1.
     999902    2    1    2    0    0 -0.46820420320E-02 -0.19341685820E-01 -0.12423280058E-01  0.10204702426E+01  0.10202005469E+01 0.  0.
     999903    2    3    3    0    0  0.51932360790E-01  0.60197740424E-01  0.98501628990E-01  0.12814964645E+00  0.19975558143E-01 0.  0.
         14    1    1    2    0    0  0.46820420320E-02  0.19341685820E-01  0.12423280058E-01  0.23459757359E-01  0.00000000000E+00 0. -1.
     999901    1    3    3    0    0 -0.56614402822E-01 -0.79539426243E-01 -0.11092490905E+00  0.89232059619E+00  0.88000000000E+00 0. -1.
        -11    1    4    4    0    0  0.26528870280E-01  0.27782064498E-01  0.62921459069E-01  0.73722419917E-01  0.51100000000E-03 0.  1.
         11    1    4    4    0    0  0.25403490510E-01  0.32415675925E-01  0.35580169921E-01  0.54427226536E-01  0.51100000000E-03 0. -1.
</event>
<event>
 8    1  0.1183092E+005  0.1043930E+01  0.7957747E-01            NaN
         13   -1    0    0    0    0  0.00000000000E+00  0.00000000000E+00  0.74505805969E-08  0.10566000000E+00  0.10566000000E+00 0.  1.
     999900   -1    0    0    0    0 -0.00000000000E+00 -0.00000000000E+00 -0.74505805969E-08  0.93827000000E+00  0.93827000000E+00 0. -1.
     999902    2    1    2    0    0  0.18192023639E-01  0.13631116910E-01 -0.67417195287E-02  0.10202190773E+01  0.10199435072E+01 0.  0.
     999903    2    3    3    0    0  0.33900124395E-01 -0.97317349285E-01  0.75803210436E-01  0.12928138475E+00  0.18645772272E-01 0.  0.
         14    1    1    2    0    0 -0.18192023639E-01 -0.13631116910E-01  0.67417195287E-02  0.23710922683E-01  0.00000000000E+00 0.  1.
     999901    1    3    3    0    0 -0.15708100756E-01  0.11094846619E+00 -0.82544929965E-01  0.89093769257E+00  0.88000000000E+00 0. -1.
        -11    1    4    4    0    0  0.19648933214E-01 -0.79556797046E-01  0.59383255682E-01  0.10120275050E+00  0.51100000000E-03 0. -1.
         11    1    4    4    0    0  0.14251191182E-01 -0.17760552239E-01  0.16419954754E-01  0.28078634244E-01  0.51100000000E-03 0.  1.
</event>
<event>
 8    1  0.1183092E+005  0.1043930E+01  0.7957747E-01            NaN
         13   -1    0    0    0    0  0.00000000000E+00  0.00000000000E+00  0.74505805969E-08  0.10566000000E+00  0.10566000000E+00 0.  1.
     999900   -1    0    0    0    0 -0.00000000000E+00 -0.00000000000E+00 -0.74505805969E-08  0.93827000000E+00  0.93827000000E+00 0. -1.
     999902    2    1    2    0    0 -0.16097940252E-01 -0.11543026023E-01 -0.10906667517E-01  0.10213171601E+01  0.10210667956E+01 0.  0.
     999903    2    3    3    0    0  0.10365458074E+00 -0.68520260069E-01 -0.36426915349E-01  0.13101476515E+00  0.19966230920E-01 0.  0.
         14    1    1    2    0    0  0.16097940252E-01  0.11543026023E-01  0.10906667517E-01  0.22612839858E-01  0.00000000000E+00 0.  1.
     999901    1    3    3    0    0 -0.11975252099E+00  0.56977234046E-01  0.25520247832E-01  0.89030239499E+00  0.88000000000E+00 0. -1.
        -11    1    4    4    0    0  0.35224479676E-01 -0.16314800302E-01 -0.39635821744E-02  0.39024451078E-01  0.51100000000E-03 0. -1.
         11    1    4    4    0    0  0.68430101062E-01 -0.52205459767E-01 -0.32463333175E-01  0.91990314070E-01  0.51100000000E-03 0.  1.
</event>
<event>
 8    1  0.1183092E+005  0.1043930E+01  0.7957747E-01            NaN
         13   -1    0    0    0    0  0.00000000000E+00  0.00000000000E+00  0.74505805969E-08  0.10566000000E+00  0.10566000000E+00 0.  1.
     999900   -1    0    0    0    0 -0.00000000000E+00 -0.00000000000E+00 -0.74505805969E-08  0.93827000000E+00  0.93827000000E+00 0. -1.
     999902    2    1    2    0    0 -0.21690201701E-03  0.24146188311E-01 -0.41849543030E-02  0.10194228725E+01  0.10191282518E+01 0.  0.
     999903    2    3    3    0    0  0.11729994860E+00 -0.12397172346E-01 -0.50399598664E-01  0.12965806045E+00  0.18924197986E-01 0.  0.
         14    1    1    2    0    0  0.21690201701E-03 -0.24146188311E-01  0.41849543030E-02  0.24507127514E-01  0.00000000000E+00 0. -1.
     999901    1    3    3    0    0 -0.11751685062E+00  0.36543360658E-01  0.46214644361E-01  0.88976481204E+00  0.88000000000E+00 0. -1.
        -11    1    4    4    0    0  0.81992617518E-01 -0.17326459585E-01 -0.35803382031E-01  0.91132534339E-01  0.51100000000E-03 0. -1.
         11    1    4    4    0    0  0.35307331084E-01  0.49292872391E-02 -0.14596216633E-01  0.38525526109E-01  0.51100000000E-03 0.  1.
</event>
<event>
 8    1  0.1183092E+005  0.1043930E+01  0.7957747E-01            NaN
         13   -1    0    0    0    0  0.00000000000E+00  0.00000000000E+00  0.74505805969E-08  0.10566000000E+00  0.10566000000E+00 0. -1.
     999900   -1    0    0    0    0 -0.00000000000E+00 -0.00000000000E+00 -0.74505805969E-08  0.93827000000E+00  0.93827000000E+00 0. -1.
     999902    2    1    2    0    0  0.15997019897E-01  0.61463099497E-02  0.12660645860E-01  0.10226233408E+01  0.10224013515E+01 0.  0.
     999903    2    3    3    0    0 -0.12426474804E-01  0.14200457106E-01  0.13134577008E+00  0.13416460625E+00  0.19808078976E-01 0.  0.
         14    1    1    2    0    0 -0.15997019897E-01 -0.61463099497E-02 -0.12660645860E-01  0.21306659175E-01  0.00000000000E+00 0. -1.
     999901    1    3    3    0    0  0.28423494702E-01 -0.80541471559E-02 -0.11868512422E+00  0.88845873458E+00  0.88000000000E+00 0. -1.
        -11    1    4    4    0    0 -0.15649470084E-01  0.15526677297E-01  0.89719849077E-01  0.92389913200E-01  0.51100000000E-03 0.  1.
         11    1    4    4    0    0  0.32229952793E-02 -0.13262201912E-02  0.41625921005E-01  0.41774693046E-01  0.51100000000E-03 0. -1.
</event>
<event>
 8    1  0.1183092E+005  0.1043930E+01  0.7957747E-01            NaN
         13   -1    0    0    0    0  0.00000000000E+00  0.00000000000E+00  0.74505805969E-08  0.10566000000E+00  0.10566000000E+00 0.  1.
     999900   -1    0    0    0    0 -0.00000000000E+00 -0.00000000000E+00 -0.74505805969E-08  0.93827000000E+00  0.93827000000E+00 0.  1.
     999902    2    1    2    0    0 -0.10794300909E-01 -0.39162779575E-03 -0.23350734579E-01  0.10182020559E+01  0.10178769569E+01 0.  0.
     999903    2    3    3    0    0 -0.26804516680E-01  0.53420645438E-01 -0.11537573087E+00  0.13162397825E+00  0.21001545253E-01 0.  0.
         14    1    1    2    0    0  0.10794300909E-01  0.39162779575E-03  0.23350734579E-01  0.25727944143E-01  0.00000000000E+00 0.  1.
     999901    1    3    3    0    0  0.16010215771E-01 -0.53812273233E-01  0.92024996287E-01  0.88657807761E+00  0.88000000000E+00 0. -1.
        -11    1    4    4    0    0 -0.16936145196E-01  0.49991200274E-01 -0.99000590762E-01  0.11219327614E+00  0.51100000000E-03 0. -1.
         11    1    4    4    0    0 -0.98683714845E-02  0.34294451639E-02 -0.16375140104E-01  0.19430702105E-01  0.51100000000E-03 0.  1.
</event>
<event>
 8    1  0.1183092E+005  0.1043930E+01  0.7957747E-01            NaN
         13   -1    0    0    0    0  0.00000000000E+00  0.00000000000E+00  0.74505805969E-08  0.10566000000E+00  0.10566000000E+00 0. -1.
     999900   -1    0    0    0    0 -0.00000000000E+00 -0.00000000000E+00 -0.74505805969E-08  0.93827000000E+00  0.93827000000E+00 0. -1.
     999902    2    1    2    0    0  0.21879792389E-02  0.22073827324E-01  0.90752641215E-02  0.10199633247E+01  0.10196817063E+01 0.  0.
     999903    2    3    3    0    0  0.11591261676E+00 -0.25967858562E-01 -0.47695337396E-01  0.12953410351E+00  0.19853824838E-01 0.  0.
         14    1    1    2    0    0 -0.21879792389E-02 -0.22073827324E-01 -0.90752641215E-02  0.23966675297E-01  0.00000000000E+00 0.  1.
     999901    1    3    3    0    0 -0.11372463752E+00  0.48041685886E-01  0.56770601518E-01  0.89042922120E+00  0.88000000000E+00 0. -1.
        -11    1    4    4    0    0  0.44320199573E-01 -0.86460777614E-02 -0.80085447266E-02  0.45863195053E-01  0.51100000000E-03 0.  1.
         11    1    4    4    0    0  0.71592417183E-01 -0.17321780800E-01 -0.39686792670E-01  0.83670908455E-01  0.51100000000E-03 0. -1.
</event>
<event>
 8    1  0.1183092E+005  0.1043930E+01  0.7957747E-01            NaN
         13   -1    0    0    0    0  0.00000000000E+00  0.00000000000E+00  0.74505805969E-08  0.10566000000E+00  0.10566000000E+00 0. -1.
     999900   -1    0    0    0    0 -0.00000000000E+00 -0.00000000000E+00 -0.74505805969E-08  0.93827000000E+00  0.93827000000E+00 0.  1.
     999902    2    1    2    0    0 -0.66160902961E-02 -0.21537203869E-01  0.83531611974E-02  0.10199008697E+01  0.10196177641E+01 0.  0.
     999903    2    3    3    0    0  0.10556175758E+00 -0.38747455562E-01  0.64658481816E-01  0.13082812158E+00  0.17047819474E-01 0.  0.
         14    1    1    2    0    0  0.66160902961E-02  0.21537203869E-01 -0.83531611974E-02  0.24029130306E-01  0.00000000000E+00 0.  1.
     999901    1    3    3    0    0 -0.11217784787E+00  0.17210251694E-01 -0.56305320619E-01  0.88907274812E+00  0.88000000000E+00 0. -1.
        -11    1    4    4    0    0  0.54261955387E-01 -0.17526175668E-01  0.23313094712E-01  0.61605909960E-01  0.51100000000E-03 0.  1.
         11    1    4    4    0    0  0.51299802190E-01 -0.21221279894E-01  0.41345387104E-01  0.69222211615E-01  0.51100000000E-03 0. -1.
</event>
<event>
 8    1  0.1183092E+005  0.1043930E+01  0.7957747E-01            NaN
         13   -1    0    0    0    0  0.00000000000E+00  0.00000000000E+00  0.74505805969E-08  0.10566000000E+00  0.10566000000E+00 0. -1.
     999900   -1    0    0    0    0 -0.00000000000E+00 -0.00000000000E+00 -0.74505805969E-08  0.93827000000E+00  0.93827000000E+00 0. -1.
     999902    2    1    2    0    0 -0.10751404927E-01 -0.20770587655E-01 -0.32595377649E-04  0.10205417320E+01  0.10202736964E+01 0.  0.
     999903    2    3    3    0    0 -0.26000090668E-01 -0.46726769164E-01  0.11896794064E+00  0.13202196665E+00  0.20421388477E-01 0.  0.
         14    1    1    2    0    0  0.10751404927E-01  0.20770587655E-01  0.32595377649E-04  0.23388268039E-01  0.00000000000E+00 0. -1.
     999901    1    3    3    0    0  0.15248685741E-01  0.25956181509E-01 -0.11900053602E+00  0.88851976531E+00  0.88000000000E+00 0. -1.
        -11    1    4    4    0    0  0.32879874001E-03 -0.18917482479E-01  0.40714808149E-01  0.44899175667E-01  0.51100000000E-03 0.  1.
         11    1    4    4    0    0 -0.26328889408E-01 -0.27809286684E-01  0.78253132489E-01  0.87122790983E-01  0.51100000000E-03 0. -1.
</event>
<event>
 8    1  0.1183092E+005  0.1043930E+01  0.7957747E-01            NaN
         13   -1    0    0    0    0  0.00000000000E+00  0.00000000000E+00  0.74505805969E-08  0.10566000000E+00  0.10566000000E+00 0.  1.
     999900   -1    0    0    0    0 -0.00000000000E+00 -0.00000000000E+00 -0.74505805969E-08  0.93827000000E+00  0.93827000000E+00 0.  1.
     999902    2    1    2    0    0 -0.22104426570E-01 -0.69334992073E-02  0.50970199978E-02  0.10202095721E+01  0.10199337784E+01 0.  0.
     999903    2    3    3    0    0 -0.10134218070E+00  0.21548262299E-02 -0.82477999182E-01  0.13227342391E+00  0.20463564158E-01 0.  0.
         14    1    1    2    0    0  0.22104426570E-01  0.69334992073E-02 -0.50970199978E-02  0.23720427865E-01  0.00000000000E+00 0. -1.
     999901    1    3    3    0    0  0.79237754134E-01 -0.90883254371E-02  0.87575019180E-01  0.88793614822E+00  0.88000000000E+00 0. -1.
        -11    1    4    4    0    0 -0.69252046379E-01 -0.77881867471E-02 -0.58605581392E-01  0.91056999027E-01  0.51100000000E-03 0.  1.
         11    1    4    4    0    0 -0.32090134325E-01  0.99430129769E-02 -0.23872417790E-01  0.41216424884E-01  0.51100000000E-03 0. -1.
</event>
<event>
 8    1  0.1183092E+005  0.1043930E+01  0.7957747E-01            NaN
         13   -1    0    0    0    0  0.00000000000E+00  0.00000000000E+00  0.74505805969E-08  0.10566000000E+00  0.10566000000E+00 0. -1.
     999900   -1    0    0    0    0 -0.00000000000E+00 -0.00000000000E+00 -0.74505805969E-08  0.93827000000E+00  0.93827000000E+00 0.  1.
     999902    2    1    2    0    0 -0.10900844390E-01  0.14924713568E-01 -0.16106341050E-01  0.10194149086E+01  0.10191200941E+01 0.  0.
     999903    2    3    3    0    0 -0.99338047708E-01 -0.21334422821E-01  0.77960733320E-01  0.12925510365E+00  0.17487154128E-01 0.  0.
         14    1    1    2    0    0  0.10900844390E-01 -0.14924713568E-01  0.16106341050E-01  0.24515091384E-01  0.00000000000E+00 0. -1.
     999901    1    3    3    0    0  0.88437203318E-01  0.36259136389E-01 -0.94067074370E-01  0.89015980497E+00  0.88000000000E+00 0. -1.
        -11    1    4    4    0    0 -0.47228517997E-01 -0.18940771434E-02  0.31741952143E-01  0.56937975792E-01  0.51100000000E-03 0. -1.
         11    1    4    4    0    0 -0.52109529711E-01 -0.19440345677E-01  0.46218781176E-01  0.72317127855E-01  0.51100000000E-03 0.  1.
</event>
<event>
 8    1  0.1183092E+005  0.1043930E+01  0.7957747E-01            NaN
         13   -1    0    0    0    0  0.00000000000E+00  0.00000000000E+00  0.74505805969E-08  0.10566000000E+00  0.10566000000E+00 0.  1.
     999900   -1    0    0    0    0 -0.00000000000E+00 -0.00000000000E+00 -0.74505805969E-08  0.93827000000E+00  0.93827000000E+00 0. -1.
     999902    2    1    2    0    0  0.20338121216E-01  0.38129651957E-03 -0.11834210837E-01  0.10203963410E+01  0.10201249235E+01 0.  0.
     999903    2    3    3    0    0 -0.51576871651E-01  0.11533811252E+00 -0.22934487146E-01  0.12994137193E+00  0.19892600359E-01 0.  0.
         14    1    1    2    0    0 -0.20338121216E-01 -0.38129651957E-03  0.11834210837E-01  0.23533659039E-01  0.00000000000E+00 0.  1.
     999901    1    3    3    0    0  0.71914992867E-01 -0.11495681600E+00  0.11100276309E-01  0.89045496903E+00  0.88000000000E+00 0. -1.
        -11    1    4    4    0    0 -0.13130604158E-01  0.40905887727E-01 -0.16115493867E-01  0.45887631012E-01  0.51100000000E-03 0. -1.
         11    1    4    4    0    0 -0.38446267493E-01  0.74432224791E-01 -0.68189932793E-02  0.84053740915E-01  0.51100000000E-03 0.  1.
</event>
<event>
 8    1  0.1183092E+005  0.1043930E+01  0.7957747E-01            NaN
         13   -1    0    0    0    0  0.00000000000E+00  0.00000000000E+00  0.74505805969E-08  0.10566000000E+00  0.10566000000E+00 0. -1.
     999900   -1    0    0    0    0 -0.00000000000E+00 -0.00000000000E+00 -0.74505805969E-08  0.93827000000E+00  0.93827000000E+00 0. -1.
     999902    2    1    2    0    0 -0.18774635023E-01 -0.37942317439E-02  0.14152109197E-01  0.10201147673E+01  0.10198367385E+01 0.  0.
     999903    2    3    3    0    0 -0.70083383106E-02  0.82234056234E-01  0.10142848802E+00  0.13154486099E+00  0.14309278763E-01 0.  0.
         14    1    1    2    0    0  0.18774635023E-01  0.37942317439E-02 -0.14152109197E-01  0.23815232719E-01  0.00000000000E+00 0.  1.
     999901    1    3    3    0    0 -0.11766296712E-01 -0.86028287978E-01 -0.87276378827E-01  0.88856990629E+00  0.88000000000E+00 0. -1.
        -11    1    4    4    0    0 -0.11397869215E-01  0.58087607951E-01  0.70432085443E-01  0.92005550925E-01  0.51100000000E-03 0. -1.
         11    1    4    4    0    0  0.43895309047E-02  0.24146448283E-01  0.30996402580E-01  0.39539310062E-01  0.51100000000E-03 0.  1.
</event>
<event>
 8    1  0.1183092E+005  0.1043930E+01  0.7957747E-01            NaN
         13   -1    0    0    0    0  0.00000000000E+00  0.00000000000E+00  0.74505805969E-08  0.10566000000E+00  0.10566000000E+00 0. -1.
     999900   -1    0    0    0    0 -0.00000000000E+00 -0.00000000000E+00 -0.74505805969E-08  0.93827000000E+00  0.93827000000E+00 0.  1.
     999902    2    1    2    0    0 -0.41802496096E-02  0.17587949849E-01 -0.14839058117E-01  0.10205417954E+01  0.10202737614E+01 0.  0.
     999903    2    3    3    0    0 -0.10189778259E-01  0.45332459285E-01  0.11955999389E+00  0.12988530867E+00  0.20414157463E-01 0.  0.
         14    1    1    2    0    0  0.41802496096E-02 -0.17587949849E-01  0.14839058117E-01  0.23388204559E-01  0.00000000000E+00 0. -1.
     999901    1    3    3    0    0  0.60095286491E-02 -0.27744509436E-01 -0.13439905201E+00  0.89065648677E+00  0.88000000000E+00 0.  1.
        -11    1    4    4    0    0 -0.11179763736E-02  0.15040515957E-01  0.17861180196E-01  0.23382683131E-01  0.51100000000E-03 0. -1.
         11    1    4    4    0    0 -0.90718018851E-02  0.30291943328E-01  0.10169881369E+00  0.10650262554E+00  0.51100000000E-03 0.  1.
</event>
<event>
 8    1  0.1183092E+005  0.1043930E+01  0.7957747E-01            NaN
         13   -1    0    0    0    0  0.00000000000E+00  0.00000000000E+00  0.74505805969E-08  0.10566000000E+00  0.10566000000E+00 0.  1.
     999900   -1    0    0    0    0 -0.00000000000E+00 -0.00000000000E+00 -0.74505805969E-08  0.93827000000E+00  0.93827000000E+00 0.  1.
     999902    2    1    2    0    0 -0.12056164315E-01 -0.96368124551E-02 -0.16767609134E-01  0.10211402662E+01  0.10208859247E+01 0.  0.
     999903    2    3    3    0    0  0.61006028620E-01  0.10988361506E+00  0.22393269345E-01  0.12920036290E+00  0.19877899156E-01 0.  0.
         14    1    1    2    0    0  0.12056164315E-01  0.96368124551E-02  0.16767609134E-01  0.22789733837E-01  0.00000000000E+00 0.  1.
     999901    1    3    3    0    0 -0.73062192935E-01 -0.11952042752E+00 -0.39160878479E-01  0.89193990326E+00  0.88000000000E+00 0.  1.
        -11    1    4    4    0    0  0.17430102961E-01  0.39419041745E-01  0.16449640576E-01  0.46135898576E-01  0.51100000000E-03 0. -1.
         11    1    4    4    0    0  0.43575925658E-01  0.70464573315E-01  0.59436287687E-02  0.83064464324E-01  0.51100000000E-03 0.  1.
</event>
<event>
 8    1  0.1183092E+005  0.1043930E+01  0.7957747E-01            NaN
         13   -1    0    0    0    0  0.00000000000E+00  0.00000000000E+00  0.74505805969E-08  0.10566000000E+00  0.10566000000E+00 0. -1.
     999900   -1    0    0    0    0 -0.00000000000E+00 -0.00000000000E+00 -0.74505805969E-08  0.93827000000E+00  0.93827000000E+00 0.  1.
     999902    2    1    2    0    0 -0.43405223093E-02 -0.16675051061E-01 -0.14673215073E-01  0.10212981485E+01  0.10210473581E+01 0.  0.
     999903    2    3    3    0    0  0.94343657663E-01 -0.71816729283E-01  0.52601564893E-01  0.13152004803E+00  0.21730854983E-01 0.  0.
         14    1    1    2    0    0  0.43405223093E-02  0.16675051061E-01  0.14673215073E-01  0.22631851501E-01  0.00000000000E+00 0. -1.
     999901    1    3    3    0    0 -0.98684179973E-01  0.55141678223E-01 -0.67274779966E-01  0.88977810047E+00  0.88000000000E+00 0.  1.
        -11    1    4    4    0    0  0.30882474430E-01 -0.13354138791E-01  0.89498278166E-02  0.34819833266E-01  0.51100000000E-03 0. -1.
         11    1    4    4    0    0  0.63461183234E-01 -0.58462590493E-01  0.43651737076E-01  0.96700214764E-01  0.51100000000E-03 0.  1.
</event>
<event>
 8    1  0.1183092E+005  0.1043930E+01  0.7957747E-01            NaN
         13   -1    0    0    0    0  0.00000000000E+00  0.00000000000E+00  0.74505805969E-08  0.10566000000E+00  0.10566000000E+00 0. -1.
     999900   -1    0    0    0    0 -0.00000000000E+00 -0.00000000000E+00 -0.74505805969E-08  0.93827000000E+00  0.93827000000E+00 0. -1.
     999902    2    1    2    0    0  0.23605596772E-01 -0.19722245735E-02  0.44301494395E-02  0.10198314504E+01  0.10195466871E+01 0.  0.
     999903    2    3    3    0    0  0.11320198051E+00 -0.66193054537E-01  0.93932893292E-02  0.13293999158E+00  0.19712904766E-01 0.  0.
         14    1    1    2    0    0 -0.23605596772E-01  0.19722245735E-02 -0.44301494395E-02  0.24098549599E-01  0.00000000000E+00 0.  1.
     999901    1    3    3    0    0 -0.89596383743E-01  0.64220829963E-01 -0.49631398897E-02  0.88689145883E+00  0.88000000000E+00 0. -1.
        -11    1    4    4    0    0  0.89246488969E-01 -0.45121884216E-01  0.12922694353E-01  0.10083738086E+00  0.51100000000E-03 0.  1.
         11    1    4    4    0    0  0.23955491545E-01 -0.21071170320E-01 -0.35294050238E-02  0.32102610714E-01  0.51100000000E-03 0. -1.
</event>
<event>
 8    1  0.1183092E+005  0.1043930E+01  0.7957747E-01            NaN
         13   -1    0    0    0    0  0.00000000000E+00  0.00000000000E+00  0.74505805969E-08  0.10566000000E+00  0.10566000000E+00 0.  1.
     999900   -1    0    0    0    0 -0.00000000000E+00 -0.00000000000E+00 -0.74505805969E-08  0.93827000000E+00  0.93827000000E+00 0.  1.
     999902    2    1    2    0    0 -0.21472913464E-01  0.78538575616E-02  0.44439494838E-02  0.10206379890E+01  0.10203721805E+01 0.  0.
     999903    2    3    3    0    0  0.25967088400E-01 -0.12266033786E+00 -0.24443221913E-01  0.12928004871E+00  0.19900043540E-01 0.  0.
         14    1    1    2    0    0  0.21472913464E-01 -0.78538575616E-02 -0.44439494838E-02  0.23292011039E-01  0.00000000000E+00 0.  1.
     999901    1    3    3    0    0 -0.47440001864E-01  0.13051419542E+00  0.28887171397E-01  0.89135794025E+00  0.88000000000E+00 0.  1.
        -11    1    4    4    0    0  0.20187787175E-01 -0.89495784983E-01 -0.26654352115E-01  0.95539300230E-01  0.51100000000E-03 0.  1.
         11    1    4    4    0    0  0.57793012247E-02 -0.33164552875E-01  0.22111302023E-02  0.33740748478E-01  0.51100000000E-03 0. -1.
</event>
<event>
 8    1  0.1183092E+005  0.1043930E+01  0.7957747E-01            NaN
         13   -1    0    0    0    0  0.00000000000E+00  0.00000000000E+00  0.74505805969E-08  0.10566000000E+00  0.10566000000E+00 0.  1.
     999900   -1    0    0    0    0 -0.00000000000E+00 -0.00000000000E+00 -0.74505805969E-08  0.93827000000E+00  0.93827000000E+00 0. -1.
     999902    2    1    2    0    0  0.80420915577E-02  0.22630964776E-01  0.17624623868E-02  0.10198480134E+01  0.10195636461E+01 0.  0.
     999903    2    3    3    0    0 -0.10400214667E+00  0.39438224498E-01 -0.64516085256E-01  0.13011252399E+00  0.19877715628E-01 0.  0.
         14    1    1    2    0    0 -0.80420915577E-02 -0.22630964776E-01 -0.17624623868E-02  0.24081986566E-01  0.00000000000E+00 0. -1.
     999901    1    3    3    0    0  0.11204423823E+00 -0.16807259723E-01  0.66278547643E-01  0.88973548944E+00  0.88000000000E+00 0.  1.
        -11    1    4    4    0    0 -0.88999107012E-01  0.33728283791E-01 -0.46345613632E-01  0.10586130171E+00  0.51100000000E-03 0. -1.
         11    1    4    4    0    0 -0.15003039658E-01  0.57099407079E-02 -0.18170471625E-01  0.24251222277E-01  0.51100000000E-03 0.  1.
</event>
<event>
 8    1  0.1183092E+005  0.1043930E+01  0.7957747E-01            NaN
         13   -1    0    0    0    0  0.00000000000E+00  0.00000000000E+00  0.74505805969E-08  0.10566000000E+00  0.10566000000E+00 0. -1.
     999900   -1    0    0    0    0 -0.00000000000E+00 -0.00000000000E+00 -0.74505805969E-08  0.93827000000E+00  0.93827000000E+00 0.  1.
     999902    2    1    2    0    0  0.45065370139E-04 -0.20589478942E-01 -0.14696647278E-01  0.10186333576E+01  0.10183192020E+01 0.  0.
     999903    2    3    3    0    0 -0.10562310204E-01  0.53324384789E-01  0.11250789509E+00  0.12635718330E+00  0.18789861741E-01 0.  0.
         14    1    1    2    0    0 -0.45065370139E-04  0.20589478942E-01  0.14696647278E-01  0.25296642371E-01  0.00000000000E+00 0. -1.
     999901    1    3    3    0    0  0.10607375575E-01 -0.73913863732E-01 -0.12720454237E+00  0.89227617433E+00  0.88000000000E+00 0.  1.
        -11    1    4    4    0    0 -0.12722511712E-01  0.18493769902E-01  0.48736217661E-01  0.53659685634E-01  0.51100000000E-03 0.  1.
         11    1    4    4    0    0  0.21602015072E-02  0.34830614888E-01  0.63771677432E-01  0.72697497670E-01  0.51100000000E-03 0. -1.
</event>
<event>
 8    1  0.1183092E+005  0.1043930E+01  0.7957747E-01            NaN
         13   -1    0    0    0    0  0.00000000000E+00  0.00000000000E+00  0.74505805969E-08  0.10566000000E+00  0.10566000000E+00 0.  1.
     999900   -1    0    0    0    0 -0.00000000000E+00 -0.00000000000E+00 -0.74505805969E-08  0.93827000000E+00  0.93827000000E+00 0. -1.
     999902    2    1    2    0    0  0.20051263031E-01 -0.28567407279E-02 -0.12800395180E-01  0.10199703624E+01  0.10196889114E+01 0.  0.
     999903    2    3    3    0    0 -0.77739096974E-01 -0.43449416501E-01 -0.92533702026E-01  0.13004445535E+00  0.20441510803E-01 0.  0.
         14    1    1    2    0    0 -0.20051263031E-01  0.28567407279E-02  0.12800395180E-01  0.23959637590E-01  0.00000000000E+00 0. -1.
     999901    1    3    3    0    0  0.97790360005E-01  0.40592675773E-01  0.79733306846E-01  0.88992590706E+00  0.88000000000E+00 0. -1.
        -11    1    4    4    0    0 -0.51271451239E-01 -0.37404323075E-01 -0.72141529700E-01  0.96085933025E-01  0.51100000000E-03 0.  1.
         11    1    4    4    0    0 -0.26467645735E-01 -0.60450934262E-02 -0.20392172326E-01  0.33958522325E-01  0.51100000000E-03 0. -1.
</event>
<event>
 8    1  0.1183092E+005  0.1043930E+01  0.7957747E-01            NaN
         13   -1    0    0    0    0  0.00000000000E+00  0.00000000000E+00  0.74505805969E-08  0.10566000000E+00  0.10566000000E+00 0.  1.
     999900   -1    0    0    0    0 -0.00000000000E+00 -0.00000000000E+00 -0.74505805969E-08  0.93827000000E+00  0.93827000000E+00 0. -1.
     999902    2    1    2    0    0 -0.24198592276E-02 -0.13612551064E-01  0.19061892207E-01  0.10203819003E+01  0.10201101457E+01 0.  0.
     999903    2    3    3    0    0 -0.12924270414E-03 -0.12560529636E+00  0.38600017401E-01  0.13306608264E+00  0.20974122827E-01 0.  0.
         14    1    1    2    0    0  0.24198592276E-02  0.13612551064E-01 -0.19061892207E-01  0.23548099703E-01  0.00000000000E+00 0. -1.
     999901    1    3    3    0    0 -0.22906165235E-02  0.11199274530E+00 -0.19538125195E-01  0.88731581765E+00  0.88000000000E+00 0. -1.
        -11    1    4    4    0    0 -0.77596490947E-02 -0.10299295407E+00  0.34142244876E-01  0.10878287893E+00  0.51100000000E-03 0. -1.
         11    1    4    4    0    0  0.76304063905E-02 -0.22612342295E-01  0.44577725252E-02  0.24283203714E-01  0.51100000000E-03 0.  1.
</event>
<event>
 8    1  0.1183092E+005  0.1043930E+01  0.7957747E-01            NaN
         13   -1    0    0    0    0  0.00000000000E+00  0.00000000000E+00  0.74505805969E-08  0.10566000000E+00  0.10566000000E+00 0. -1.
     999900   -1    0    0    0    0 -0.00000000000E+00 -0.00000000000E+00 -0.74505805969E-08  0.93827000000E+00  0.93827000000E+00 0.  1.
     999902    2    1    2    0    0 -0.11431654925E-01  0.77495232537E-02 -0.18398168786E-01  0.10209249906E+01  0.10206657660E+01 0.  0.
     999903    2    3    3    0    0 -0.86436609298E-01  0.73892665644E-02 -0.10006414036E+00  0.13396659024E+00  0.20207088565E-01 0.  0.
         14    1    1    2    0    0  0.11431654925E-01 -0.77495232537E-02  0.18398168786E-01  0.23005009447E-01  0.00000000000E+00 0. -1.
     999901    1    3    3    0    0  0.75004954373E-01  0.36025668929E-03  0.81665971574E-01  0.88695840031E+00  0.88000000000E+00 0. -1.
        -11    1    4    4    0    0 -0.39194973968E-01  0.12787573844E-01 -0.51889813077E-01  0.66276555820E-01  0.51100000000E-03 0. -1.
         11    1    4    4    0    0 -0.47241635330E-01 -0.53983072797E-02 -0.48174327283E-01  0.67690034424E-01  0.51100000000E-03 0.  1.
</event>
<event>
 8    1  0.1183092E+005  0.1043930E+01  0.7957747E-01            NaN
         13   -1    0    0    0    0  0.00000000000E+00  0.00000000000E+00  0.74505805969E-08  0.10566000000E+00  0.10566000000E+00 0.  1.
     999900   -1    0    0    0    0 -0.00000000000E+00 -0.00000000000E+00 -0.74505805969E-08  0.93827000000E+00  0.93827000000E+00 0. -1.
     999902    2    1    2    0    0 -0.41512301668E-02 -0.45854373383E-02  0.12587727114E-01  0.10299046721E+01  0.10298091687E+01 0.  0.
     999903    2    3    3    0    0  0.89069593052E-01  0.10123532783E+00 -0.20495191011E-01  0.13806240151E+00  0.21428715528E-01 0.  0.
         14    1    1    2    0    0  0.41512301668E-02  0.45854373383E-02 -0.12587727114E-01  0.14025327853E-01  0.00000000000E+00 0. -1.
     999901    1    3    3    0    0 -0.93220823219E-01 -0.10582076517E+00  0.33082918125E-01  0.89184227064E+00  0.88000000000E+00 0. -1.
        -11    1    4    4    0    0  0.18014344929E-01  0.10729475992E-01 -0.74529248493E-02  0.22258604810E-01  0.51100000000E-03 0.  1.
         11    1    4    4    0    0  0.71055248123E-01  0.90505851838E-01 -0.13042266162E-01  0.11580379670E+00  0.51100000000E-03 0. -1.
</event>
<event>
 8    1  0.1183092E+005  0.1043930E+01  0.7957747E-01            NaN
         13   -1    0    0    0    0  0.00000000000E+00  0.00000000000E+00  0.74505805969E-08  0.10566000000E+00  0.10566000000E+00 0. -1.
     999900   -1    0    0    0    0 -0.00000000000E+00 -0.00000000000E+00 -0.74505805969E-08  0.93827000000E+00  0.93827000000E+00 0. -1.
     999902    2    1    2    0    0 -0.76792184995E-02 -0.13530567514E-02 -0.23009551783E-01  0.10196351316E+01  0.10193456533E+01 0.  0.
     999903    2    3    3    0    0  0.78588345816E-01 -0.93256510663E-01  0.35928947201E-01  0.12870186573E+00  0.20009400708E-01 0.  0.
         14    1    1    2    0    0  0.76792184995E-02  0.13530567514E-02  0.23009551783E-01  0.24294868442E-01  0.00000000000E+00 0. -1.
     999901    1    3    3    0    0 -0.86267564316E-01  0.91903453911E-01 -0.58938498984E-01  0.89093326583E+00  0.88000000000E+00 0. -1.
        -11    1    4    4    0    0  0.15719208636E-01 -0.32047087153E-01  0.76234447011E-02  0.36503251160E-01  0.51100000000E-03 0.  1.
         11    1    4    4    0    0  0.62869137180E-01 -0.61209423510E-01  0.28305502500E-01  0.92198614572E-01  0.51100000000E-03 0. -1.
</event>
<event>
 8    1  0.1183092E+005  0.1043930E+01  0.7957747E-01            NaN
         13   -1    0    0    0    0  0.00000000000E+00  0.00000000000E+00  0.74505805969E-08  0.10566000000E+00  0.10566000000E+00 0.  1.
     999900   -1    0    0    0    0 -0.00000000000E+00 -0.00000000000E+00 -0.74505805969E-08  0.93827000000E+00  0.93827000000E+00 0. -1.
     999902    2    1    2    0    0 -0.20952763453E-01  0.56463428071E-02  0.94805347612E-02  0.10202492056E+01  0.10199743436E+01 0.  0.
     999903    2    3    3    0    0  0.14625529387E-01  0.12765646158E+00  0.80918707389E-03  0.13107685096E+00  0.25892233978E-01 0.  0.
         14    1    1    2    0    0  0.20952763453E-01 -0.56463428071E-02 -0.94805347612E-02  0.23680794387E-01  0.00000000000E+00 0. -1.
     999901    1    3    3    0    0 -0.35578292841E-01 -0.12201011878E+00  0.86713476873E-02  0.88917235465E+00  0.88000000000E+00 0. -1.
        -11    1    4    4    0    0  0.12725659875E-01  0.41104186519E-01 -0.89530660906E-02  0.43953555966E-01  0.51100000000E-03 0. -1.
         11    1    4    4    0    0  0.18998695123E-02  0.86552275065E-01  0.97622531645E-02  0.87123294996E-01  0.51100000000E-03 0.  1.
</event>
<event>
 8    1  0.1183092E+005  0.1043930E+01  0.7957747E-01            NaN
         13   -1    0    0    0    0  0.00000000000E+00  0.00000000000E+00  0.74505805969E-08  0.10566000000E+00  0.10566000000E+00 0.  1.
     999900   -1    0    0    0    0 -0.00000000000E+00 -0.00000000000E+00 -0.74505805969E-08  0.93827000000E+00  0.93827000000E+00 0. -1.
     999902    2    1    2    0    0  0.15808792114E-01 -0.82039439207E-02  0.15270726817E-01  0.10204690175E+01  0.10201992932E+01 0.  0.
     999903    2    3    3    0    0 -0.60657177671E-01 -0.83470691463E-01 -0.75595359330E-01  0.12930754308E+00  0.18950799675E-01 0.  0.
         14    1    1    2    0    0 -0.15808792114E-01  0.82039439207E-02 -0.15270726817E-01  0.23460982535E-01  0.00000000000E+00 0.  1.
     999901    1    3    3    0    0  0.76465969785E-01  0.75266747543E-01  0.90866086147E-01  0.89116147439E+00  0.88000000000E+00 0.  1.
        -11    1    4    4    0    0 -0.36423254370E-01 -0.64645963420E-01 -0.52467901998E-01  0.90878467782E-01  0.51100000000E-03 0.  1.
         11    1    4    4    0    0 -0.24233923301E-01 -0.18824728044E-01 -0.23127457331E-01  0.38429075296E-01  0.51100000000E-03 0. -1.
</event>
<event>
 8    1  0.1183092E+005  0.1043930E+01  0.7957747E-01            NaN
         13   -1    0    0    0    0  0.00000000000E+00  0.00000000000E+00  0.74505805969E-08  0.10566000000E+00  0.10566000000E+00 0. -1.
     999900   -1    0    0    0    0 -0.00000000000E+00 -0.00000000000E+00 -0.74505805969E-08  0.93827000000E+00  0.93827000000E+00 0. -1.
     999902    2    1    2    0    0  0.38611929673E-02  0.96922455818E-02 -0.20675246654E-01  0.10207715402E+01  0.10205088060E+01 0.  0.
     999903    2    3    3    0    0 -0.52254188291E-01  0.81632785803E-01  0.84122129690E-01  0.12986926306E+00  0.19876641389E-01 0.  0.
         14    1    1    2    0    0 -0.38611929673E-02 -0.96922455818E-02  0.20675246654E-01  0.23158459788E-01  0.00000000000E+00 0. -1.
     999901    1    3    3    0    0  0.56115381258E-01 -0.71940540221E-01 -0.10479737634E+00  0.89090227715E+00  0.88000000000E+00 0. -1.
        -11    1    4    4    0    0 -0.32937200976E-01  0.40160655175E-01  0.54913794338E-01  0.75587851946E-01  0.51100000000E-03 0.  1.
         11    1    4    4    0    0 -0.19316987315E-01  0.41472130628E-01  0.29208335352E-01  0.54281411116E-01  0.51100000000E-03 0. -1.
</event>
<event>
 8    1  0.1183092E+005  0.1043930E+01  0.7957747E-01            NaN
         13   -1    0    0    0    0  0.00000000000E+00  0.00000000000E+00  0.74505805969E-08  0.10566000000E+00  0.10566000000E+00 0.  1.
     999900   -1    0    0    0    0 -0.00000000000E+00 -0.00000000000E+00 -0.74505805969E-08  0.93827000000E+00  0.93827000000E+00 0.  1.
     999902    2    1    2    0    0 -0.37117840535E-02 -0.17258231489E-01  0.20112103546E-01  0.10171695702E+01  0.10168174929E+01 0.  0.
     999903    2    3    3    0    0 -0.37940439933E-01  0.57596563796E-01  0.10728754417E+00  0.12903985065E+00  0.19591446603E-01 0.  0.
         14    1    1    2    0    0  0.37117840535E-02  0.17258231489E-01 -0.20112103546E-01  0.26760429818E-01  0.00000000000E+00 0. -1.
     999901    1    3    3    0    0  0.34228655879E-01 -0.74854795286E-01 -0.87175440621E-01  0.88812971953E+00  0.88000000000E+00 0.  1.
        -11    1    4    4    0    0 -0.20311727748E-02  0.17929878190E-01  0.30643161054E-01  0.35565019825E-01  0.51100000000E-03 0. -1.
         11    1    4    4    0    0 -0.35909267158E-01  0.39666685607E-01  0.76644383113E-01  0.93474830830E-01  0.51100000000E-03 0.  1.
</event>
<event>
 8    1  0.1183092E+005  0.1043930E+01  0.7957747E-01            NaN
         13   -1    0    0    0    0  0.00000000000E+00  0.00000000000E+00  0.74505805969E-08  0.10566000000E+00  0.10566000000E+00 0. -1.
     999900   -1    0    0    0    0 -0.00000000000E+00 -0.00000000000E+00 -0.74505805969E-08  0.93827000000E+00  0.93827000000E+00 0.  1.
     999902    2    1    2    0    0  0.91498431448E-03  0.86490668677E-02 -0.21977853859E-01  0.10202938071E+01  0.10200199916E+01 0.  0.
     999903    2    3    3    0    0 -0.11399228840E+00 -0.59169587375E-01 -0.49120304176E-02  0.13007232146E+00  0.19984966394E-01 0.  0.
         14    1    1    2    0    0 -0.91498431448E-03 -0.86490668677E-02  0.21977853859E-01  0.23636192887E-01  0.00000000000E+00 0. -1.
     999901    1    3    3    0    0  0.11490727272E+00  0.67818654242E-01 -0.17065823441E-01  0.89022148565E+00  0.88000000000E+00 0.  1.
        -11    1    4    4    0    0 -0.50806805626E-01 -0.18995795717E-01 -0.94349318610E-02  0.55058612524E-01  0.51100000000E-03 0. -1.
         11    1    4    4    0    0 -0.63185482778E-01 -0.40173791657E-01  0.45229014434E-02  0.75013708937E-01  0.51100000000E-03 0.  1.
</event>
<event>
 8    1  0.1183092E+005  0.1043930E+01  0.7957747E-01            NaN
         13   -1    0    0    0    0  0.00000000000E+00  0.00000000000E+00  0.74505805969E-08  0.10566000000E+00  0.10566000000E+00 0. -1.
     999900   -1    0    0    0    0 -0.00000000000E+00 -0.00000000000E+00 -0.74505805969E-08  0.93827000000E+00  0.93827000000E+00 0. -1.
     999902    2    1    2    0    0  0.55810141897E-02  0.21921115121E-01  0.56549469211E-02  0.10206134515E+01  0.10203470763E+01 0.  0.
     999903    2    3    3    0    0  0.12770632908E+00 -0.21063287894E-01  0.43957914158E-02  0.13113954135E+00  0.20632201452E-01 0.  0.
         14    1    1    2    0    0 -0.55810141897E-02 -0.21921115121E-01 -0.56549469211E-02  0.23316548462E-01  0.00000000000E+00 0. -1.
     999901    1    3    3    0    0 -0.12212531490E+00  0.42984403014E-01  0.12591555053E-02  0.88947391019E+00  0.88000000000E+00 0. -1.
        -11    1    4    4    0    0  0.15637291209E-01 -0.97132252849E-02  0.15333751465E-03  0.18416195459E-01  0.51100000000E-03 0.  1.
         11    1    4    4    0    0  0.11206903788E+00 -0.11350062609E-01  0.42424539011E-02  0.11272334589E+00  0.51100000000E-03 0. -1.
</event>
<event>
 8    1  0.1183092E+005  0.1043930E+01  0.7957747E-01            NaN
         13   -1    0    0    0    0  0.00000000000E+00  0.00000000000E+00  0.74505805969E-08  0.10566000000E+00  0.10566000000E+00 0.  1.
     999900   -1    0    0    0    0 -0.00000000000E+00 -0.00000000000E+00 -0.74505805969E-08  0.93827000000E+00  0.93827000000E+00 0.  1.
     999902    2    1    2    0    0 -0.20376806385E-01 -0.23134360190E-01  0.18838881528E-03  0.10131006576E+01  0.10126314701E+01 0.  0.
     999903    2    3    3    0    0 -0.94480389327E-01 -0.53221646165E-02  0.80708603832E-01  0.12614399560E+00  0.21060852063E-01 0.  0.
         14    1    1    2    0    0  0.20376806385E-01  0.23134360190E-01 -0.18838881528E-03  0.30829342358E-01  0.00000000000E+00 0. -1.
     999901    1    3    3    0    0  0.74103582942E-01 -0.17812195574E-01 -0.80520215016E-01  0.88695666204E+00  0.88000000000E+00 0.  1.
        -11    1    4    4    0    0 -0.45170321374E-01  0.76384304736E-02  0.41630680054E-01  0.61903781758E-01  0.51100000000E-03 0. -1.
         11    1    4    4    0    0 -0.49310067953E-01 -0.12960595090E-01  0.39077923777E-01  0.64240213841E-01  0.51100000000E-03 0.  1.
</event>
<event>
 8    1  0.1183092E+005  0.1043930E+01  0.7957747E-01            NaN
         13   -1    0    0    0    0  0.00000000000E+00  0.00000000000E+00  0.74505805969E-08  0.10566000000E+00  0.10566000000E+00 0.  1.
     999900   -1    0    0    0    0 -0.00000000000E+00 -0.00000000000E+00 -0.74505805969E-08  0.93827000000E+00  0.93827000000E+00 0.  1.
     999902    2    1    2    0    0  0.36241539123E-02  0.23561049513E-01  0.32882705337E-03  0.10200895790E+01  0.10198109548E+01 0.  0.
     999903    2    3    3    0    0  0.11722720278E-01  0.13124435013E+00 -0.90130669008E-02  0.13343939377E+00  0.19035094482E-01 0.  0.
         14    1    1    2    0    0 -0.36241539123E-02 -0.23561049513E-01 -0.32882705337E-03  0.23840420990E-01  0.00000000000E+00 0.  1.
     999901    1    3    3    0    0 -0.80985663659E-02 -0.10768330062E+00  0.93418939542E-02  0.88665018524E+00  0.88000000000E+00 0.  1.
        -11    1    4    4    0    0 -0.34708120361E-02  0.36406287348E-01 -0.77259208380E-02  0.37382017983E-01  0.51100000000E-03 0. -1.
         11    1    4    4    0    0  0.15193532314E-01  0.94838062783E-01 -0.12871460629E-02  0.96057375784E-01  0.51100000000E-03 0.  1.
</event>
<event>
 7    1  0.1183092E+005  0.1043930E+01  0.7957747E-01            NaN
         13   -1    0    0    0    0  0.00000000000E+00  0.00000000000E+00  0.74505805969E-08  0.10566000000E+00  0.10566000000E+00 0.  1.
     999900   -1    0    0    0    0 -0.00000000000E+00 -0.00000000000E+00 -0.74505805969E-08  0.93827000000E+00  0.93827000000E+00 0.  1.
     999903    2    1    2    0    0 -0.81858544033E-01 -0.77490305422E-01 -0.90141741380E-01  0.14576106234E+00  0.20376091117E-01 0.  0.
         14    1    1    2    0    0  0.50414484765E-02 -0.67262252824E-03  0.52620078541E-02  0.73182887660E-02  0.00000000000E+00 0.  1.
     999901    1    1    2    0    0  0.76817095556E-01  0.78162927950E-01  0.84879733526E-01  0.89085064890E+00  0.88000000000E+00 0. -1.
        -11    1    3    3    0    0 -0.62001890399E-01 -0.59496575710E-01 -0.79028181098E-01  0.11674669787E+00  0.51100000000E-03 0.  1.
         11    1    3    3    0    0 -0.19856653634E-01 -0.17993729712E-01 -0.11113560283E-01  0.29014364471E-01  0.51100000000E-03 0. -1.
</event>
<event>
 8    1  0.1183092E+005  0.1043930E+01  0.7957747E-01            NaN
         13   -1    0    0    0    0  0.00000000000E+00  0.00000000000E+00  0.74505805969E-08  0.10566000000E+00  0.10566000000E+00 0.  1.
     999900   -1    0    0    0    0 -0.00000000000E+00 -0.00000000000E+00 -0.74505805969E-08  0.93827000000E+00  0.93827000000E+00 0. -1.
     999902    2    1    2    0    0  0.21411817265E-01 -0.88215643122E-02  0.54612039170E-02  0.10201369198E+01  0.10198594141E+01 0.  0.
     999903    2    3    3    0    0  0.47347604856E-02  0.12744320699E+00  0.91117817229E-02  0.12948573175E+00  0.20477822045E-01 0.  0.
         14    1    1    2    0    0 -0.21411817265E-01  0.88215643122E-02 -0.54612039170E-02  0.23793080165E-01  0.00000000000E+00 0. -1.
     999901    1    3    3    0    0  0.16677056780E-01 -0.13626477130E+00 -0.36505778059E-02  0.89065118809E+00  0.88000000000E+00 0.  1.
        -11    1    4    4    0    0 -0.45696361172E-02  0.97410796083E-01  0.37833839465E-02  0.97592622072E-01  0.51100000000E-03 0.  1.
         11    1    4    4    0    0  0.93043966028E-02  0.30032410906E-01  0.53283977764E-02  0.31893109677E-01  0.51100000000E-03 0. -1.
</event>
<event>
 8    1  0.1183092E+005  0.1043930E+01  0.7957747E-01            NaN
         13   -1    0    0    0    0  0.00000000000E+00  0.00000000000E+00  0.74505805969E-08  0.10566000000E+00  0.10566000000E+00 0.  1.
     999900   -1    0    0    0    0 -0.00000000000E+00 -0.00000000000E+00 -0.74505805969E-08  0.93827000000E+00  0.93827000000E+00 0. -1.
     999902    2    1    2    0    0 -0.13458337992E-01 -0.66714475258E-02 -0.17980244815E-01  0.10205008669E+01  0.10202318830E+01 0.  0.
     999903    2    3    3    0    0  0.54505262207E-01 -0.54761747861E-01 -0.10545581883E+00  0.13225332034E+00  0.20008457704E-01 0.  0.
         14    1    1    2    0    0  0.13458337992E-01  0.66714475258E-02  0.17980244815E-01  0.23429133087E-01  0.00000000000E+00 0.  1.
     999901    1    3    3    0    0 -0.67963600199E-01  0.48090300336E-01  0.87475574014E-01  0.88824754657E+00  0.88000000000E+00 0.  1.
        -11    1    4    4    0    0  0.18412177928E-01 -0.13941902148E-01 -0.18324675418E-01  0.29486264289E-01  0.51100000000E-03 0. -1.
         11    1    4    4    0    0  0.36093084279E-01 -0.40819845714E-01 -0.87131143411E-01  0.10276705605E+00  0.51100000000E-03 0.  1.
</event>
<event>
 8    1  0.1183092E+005  0.1043930E+01  0.7957747E-01            NaN
         13   -1    0    0    0    0  0.00000000000E+00  0.00000000000E+00  0.74505805969E-08  0.10566000000E+00  0.10566000000E+00 0.  1.
     999900   -1    0    0    0    0 -0.00000000000E+00 -0.00000000000E+00 -0.74505805969E-08  0.93827000000E+00  0.93827000000E+00 0. -1.
     999902    2    1    2    0    0  0.18975574797E-02  0.10192271975E-01  0.20461967666E-01  0.10209914897E+01  0.10207337786E+01 0.  0.
     999903    2    3    3    0    0 -0.49399722478E-01  0.73105372599E-01  0.98685833162E-01  0.13380016748E+00  0.19464405097E-01 0.  0.
         14    1    1    2    0    0 -0.18975574797E-02 -0.10192271975E-01 -0.20461967666E-01  0.22938510264E-01  0.00000000000E+00 0. -1.
     999901    1    3    3    0    0  0.51297279957E-01 -0.62913100624E-01 -0.78223865496E-01  0.88719132226E+00  0.88000000000E+00 0. -1.
        -11    1    4    4    0    0 -0.14374044945E-01  0.92340101946E-02  0.14000518461E-01  0.22094247000E-01  0.51100000000E-03 0. -1.
         11    1    4    4    0    0 -0.35025677533E-01  0.63871362405E-01  0.84685314701E-01  0.11170592047E+00  0.51100000000E-03 0.  1.
</event>
<event>
 8    1  0.1183092E+005  0.1043930E+01  0.7957747E-01            NaN
         13   -1    0    0    0    0  0.00000000000E+00  0.00000000000E+00  0.74505805969E-08  0.10566000000E+00  0.10566000000E+00 0. -1.
     999900   -1    0    0    0    0 -0.00000000000E+00 -0.00000000000E+00 -0.74505805969E-08  0.93827000000E+00  0.93827000000E+00 0. -1.
     999902    2    1    2    0    0 -0.58036074758E-02 -0.42135897883E-02 -0.22983417796E-01  0.10198535864E+01  0.10195693522E+01 0.  0.
     999903    2    3    3    0    0  0.58332093815E-01  0.18262691740E-01 -0.11561566007E+00  0.13238566938E+00  0.20562721786E-01 0.  0.
         14    1    1    2    0    0  0.58036074758E-02  0.42135897883E-02  0.22983417796E-01  0.24076413608E-01  0.00000000000E+00 0. -1.
     999901    1    3    3    0    0 -0.64135701291E-01 -0.22476281528E-01  0.92632242271E-01  0.88746791701E+00  0.88000000000E+00 0.  1.
        -11    1    4    4    0    0  0.48258068355E-02 -0.24736072313E-02 -0.21283999527E-01  0.21969908994E-01  0.51100000000E-03 0. -1.
         11    1    4    4    0    0  0.53506286980E-01  0.20736298971E-01 -0.94331660539E-01  0.11041576039E+00  0.51100000000E-03 0.  1.
</event>
<event>
 8    1  0.1183092E+005  0.1043930E+01  0.7957747E-01            NaN
         13   -1    0    0    0    0  0.00000000000E+00  0.00000000000E+00  0.74505805969E-08  0.10566000000E+00  0.10566000000E+00 0.  1.
     999900   -1    0    0    0    0 -0.00000000000E+00 -0.00000000000E+00 -0.74505805969E-08  0.93827000000E+00  0.93827000000E+00 0.  1.
     999902    2    1    2    0    0  0.86378271938E-03 -0.34056110748E-02  0.16229827758E-01  0.10273242294E+01  0.10271900120E+01 0.  0.
     999903    2    3    3    0    0 -0.20218538707E-01 -0.31046988945E-01  0.13338236142E+00  0.13887995644E+00  0.11139260955E-01 0.  0.
         14    1    1    2    0    0 -0.86378271938E-03  0.34056110748E-02 -0.16229827758E-01  0.16605770577E-01  0.00000000000E+00 0. -1.
     999901    1    3    3    0    0  0.21082321427E-01  0.27641377871E-01 -0.11715253366E+00  0.88844427298E+00  0.88000000000E+00 0.  1.
        -11    1    4    4    0    0 -0.97341006938E-02 -0.16160957523E-01  0.48015222414E-01  0.51591200498E-01  0.51100000000E-03 0. -1.
         11    1    4    4    0    0 -0.10484438013E-01 -0.14886031422E-01  0.85367139003E-01  0.87288755946E-01  0.51100000000E-03 0.  1.
</event>
<event>
 8    1  0.1183092E+005  0.1043930E+01  0.7957747E-01            NaN
         13   -1    0    0    0    0  0.00000000000E+00  0.00000000000E+00  0.74505805969E-08  0.10566000000E+00  0.10566000000E+00 0.  1.
     999900   -1    0    0    0    0 -0.00000000000E+00 -0.00000000000E+00 -0.74505805969E-08  0.93827000000E+00  0.93827000000E+00 0. -1.
     999902    2    1    2    0    0  0.69665017157E-02 -0.18076885749E-02 -0.22794286793E-01  0.10200264564E+01  0.10197463373E+01 0.  0.
     999903    2    3    3    0    0 -0.48500207839E-01  0.95586500733E-01  0.67583080798E-01  0.12832569242E+00  0.20272179046E-01 0.  0.
         14    1    1    2    0    0 -0.69665017157E-02  0.18076885749E-02  0.22794286793E-01  0.23903543556E-01  0.00000000000E+00 0.  1.
     999901    1    3    3    0    0  0.55466709555E-01 -0.97394189308E-01 -0.90377367591E-01  0.89170076402E+00  0.88000000000E+00 0. -1.
        -11    1    4    4    0    0 -0.12950116498E-01  0.37754592485E-01  0.15744301101E-01  0.42909892906E-01  0.51100000000E-03 0.  1.
         11    1    4    4    0    0 -0.35550091341E-01  0.57831908248E-01  0.51838779697E-01  0.85415799519E-01  0.51100000000E-03 0. -1.
</event>
<event>
 8    1  0.1183092E+005  0.1043930E+01  0.7957747E-01            NaN
         13   -1    0    0    0    0  0.00000000000E+00  0.00000000000E+00  0.74505805969E-08  0.10566000000E+00  0.10566000000E+00 0.  1.
     999900   -1    0    0    0    0 -0.00000000000E+00 -0.00000000000E+00 -0.74505805969E-08  0.93827000000E+00  0.93827000000E+00 0.  1.
     999902    2    1    2    0    0 -0.22544621173E-01  0.33553176370E-02  0.43416952678E-02  0.10207272325E+01  0.10204634804E+01 0.  0.
     999903    2    3    3    0    0 -0.69089650082E-01  0.11139087811E+00 -0.99230462374E-02  0.13278488931E+00  0.18763062282E-01 0.  0.
         14    1    1    2    0    0  0.22544621173E-01 -0.33553176370E-02 -0.43416952678E-02  0.23202767466E-01  0.00000000000E+00 0. -1.
     999901    1    3    3    0    0  0.46545028908E-01 -0.10803556048E+00  0.14264741505E-01  0.88794234323E+00  0.88000000000E+00 0. -1.
        -11    1    4    4    0    0 -0.58998854847E-01  0.10165188520E+00 -0.13489404965E-01  0.11830551891E+00  0.51100000000E-03 0.  1.
         11    1    4    4    0    0 -0.10090795235E-01  0.97389929169E-02  0.35663587273E-02  0.14479370397E-01  0.51100000000E-03 0. -1.
</event>
<event>
 8    1  0.1183092E+005  0.1043930E+01  0.7957747E-01            NaN
         13   -1    0    0    0    0  0.00000000000E+00  0.00000000000E+00  0.74505805969E-08  0.10566000000E+00  0.10566000000E+00 0. -1.
     999900   -1    0    0    0    0 -0.00000000000E+00 -0.00000000000E+00 -0.74505805969E-08  0.93827000000E+00  0.93827000000E+00 0.  1.
     999902    2    1    2    0    0 -0.31205435966E-02 -0.12177810293E-01  0.19157698268E-01  0.10210159375E+01  0.10207587817E+01 0.  0.
     999903    2    3    3    0    0  0.89590076272E-01  0.13700573597E-01  0.94663664462E-01  0.13255316357E+00  0.19875721849E-01 0.  0.
         14    1    1    2    0    0  0.31205435966E-02  0.12177810293E-01 -0.19157698268E-01  0.22914062468E-01  0.00000000000E+00 0.  1.
     999901    1    3    3    0    0 -0.92710619869E-01 -0.25878383890E-01 -0.75505966194E-01  0.88846277396E+00  0.88000000000E+00 0.  1.
        -11    1    4    4    0    0  0.18183678286E-01 -0.51062825006E-02  0.17595142131E-01  0.25818025187E-01  0.51100000000E-03 0.  1.
         11    1    4    4    0    0  0.71406397986E-01  0.18806856098E-01  0.77068522331E-01  0.10673513838E+00  0.51100000000E-03 0. -1.
</event>
<event>
 8    1  0.1183092E+005  0.1043930E+01  0.7957747E-01            NaN
         13   -1    0    0    0    0  0.00000000000E+00  0.00000000000E+00  0.74505805969E-08  0.10566000000E+00  0.10566000000E+00 0. -1.
     999900   -1    0    0    0    0 -0.00000000000E+00 -0.00000000000E+00 -0.74505805969E-08  0.93827000000E+00  0.93827000000E+00 0. -1.
     999902    2    1    2    0    0  0.15392954785E-01 -0.17908771865E-01 -0.52879133230E-02  0.10197302233E+01  0.10194430337E+01 0.  0.
     999903    2    3    3    0    0  0.98530392474E-01 -0.39725759856E-01  0.75530972285E-01  0.13185663610E+00  0.19871348031E-01 0.  0.
         14    1    1    2    0    0 -0.15392954785E-01  0.17908771865E-01  0.52879133230E-02  0.24199776735E-01  0.00000000000E+00 0.  1.
     999901    1    3    3    0    0 -0.83137437690E-01  0.21816987992E-01 -0.80818885608E-01  0.88787358716E+00  0.88000000000E+00 0. -1.
        -11    1    4    4    0    0  0.47186482479E-01 -0.29639003514E-01  0.37484791248E-01  0.67159551472E-01  0.51100000000E-03 0. -1.
         11    1    4    4    0    0  0.51343909995E-01 -0.10086756342E-01  0.38046181037E-01  0.64697084630E-01  0.51100000000E-03 0.  1.
</event>
<event>
 8    1  0.1183092E+005  0.1043930E+01  0.7957747E-01            NaN
         13   -1    0    0    0    0  0.00000000000E+00  0.00000000000E+00  0.74505805969E-08  0.10566000000E+00  0.10566000000E+00 0.  1.
     999900   -1    0    0    0    0 -0.00000000000E+00 -0.00000000000E+00 -0.74505805969E-08  0.93827000000E+00  0.93827000000E+00 0. -1.
     999902    2    1    2    0    0 -0.17293893178E-01  0.14011313308E-01  0.90092296594E-02  0.10199182974E+01  0.10196356072E+01 0.  0.
     999903    2    3    3    0    0 -0.75447414442E-01 -0.89603625137E-01  0.54666698888E-01  0.13075999205E+00  0.19713081198E-01 0.  0.
         14    1    1    2    0    0  0.17293893178E-01 -0.14011313308E-01 -0.90092296594E-02  0.24011702582E-01  0.00000000000E+00 0. -1.
     999901    1    3    3    0    0  0.58153521265E-01  0.10361493844E+00 -0.45657469229E-01  0.88915830537E+00  0.88000000000E+00 0. -1.
        -11    1    4    4    0    0 -0.45449318794E-01 -0.66004645060E-01  0.31503378759E-01  0.86110265025E-01  0.51100000000E-03 0.  1.
         11    1    4    4    0    0 -0.29998095648E-01 -0.23598980077E-01  0.23163320130E-01  0.44649727027E-01  0.51100000000E-03 0. -1.
</event>
<event>
 8    1  0.1183092E+005  0.1043930E+01  0.7957747E-01            NaN
         13   -1    0    0    0    0  0.00000000000E+00  0.00000000000E+00  0.74505805969E-08  0.10566000000E+00  0.10566000000E+00 0. -1.
     999900   -1    0    0    0    0 -0.00000000000E+00 -0.00000000000E+00 -0.74505805969E-08  0.93827000000E+00  0.93827000000E+00 0.  1.
     999902    2    1    2    0    0 -0.22122296445E-02  0.22178220233E-01  0.27602441162E-02  0.10214714524E+01  0.10212245305E+01 0.  0.
     999903    2    3    3    0    0 -0.50606240685E-01 -0.18300485275E-01 -0.11779980414E+00  0.13101357516E+00  0.19795546539E-01 0.  0.
         14    1    1    2    0    0  0.22122296445E-02 -0.22178220233E-01 -0.27602441162E-02  0.22458547599E-01  0.00000000000E+00 0. -1.
     999901    1    3    3    0    0  0.48394011040E-01  0.40478705508E-01  0.12056004826E+00  0.89045787724E+00  0.88000000000E+00 0. -1.
        -11    1    4    4    0    0 -0.42517200395E-01 -0.11088848053E-01 -0.75615317508E-01  0.87456344787E-01  0.51100000000E-03 0. -1.
         11    1    4    4    0    0 -0.80890402895E-02 -0.72116372229E-02 -0.42184486634E-01  0.43557230373E-01  0.51100000000E-03 0.  1.
</event>
<event>
 8    1  0.1183092E+005  0.1043930E+01  0.7957747E-01            NaN
         13   -1    0    0    0    0  0.00000000000E+00  0.00000000000E+00  0.74505805969E-08  0.10566000000E+00  0.10566000000E+00 0.  1.
     999900   -1    0    0    0    0 -0.00000000000E+00 -0.00000000000E+00 -0.74505805969E-08  0.93827000000E+00  0.93827000000E+00 0.  1.
     999902    2    1    2    0    0  0.20157095420E-02 -0.22866330539E-02  0.23841672156E-01  0.10198942536E+01  0.10196109902E+01 0.  0.
     999903    2    3    3    0    0  0.11107440814E-01 -0.78554471533E-01  0.10453081525E+00  0.13287104046E+00  0.20828869794E-01 0.  0.
         14    1    1    2    0    0 -0.20157095420E-02  0.22866330539E-02 -0.23841672156E-01  0.24035746439E-01  0.00000000000E+00 0. -1.
     999901    1    3    3    0    0 -0.90917312718E-02  0.76267838479E-01 -0.80689143095E-01  0.88702321310E+00  0.88000000000E+00 0.  1.
        -11    1    4    4    0    0  0.11495800108E-01 -0.48752711053E-01  0.50302803630E-01  0.70990234745E-01  0.51100000000E-03 0. -1.
         11    1    4    4    0    0 -0.38835929443E-03 -0.29801760479E-01  0.54228011622E-01  0.61880805716E-01  0.51100000000E-03 0.  1.
</event>
<event>
 8    1  0.1183092E+005  0.1043930E+01  0.7957747E-01            NaN
         13   -1    0    0    0    0  0.00000000000E+00  0.00000000000E+00  0.74505805969E-08  0.10566000000E+00  0.10566000000E+00 0.  1.
     999900   -1    0    0    0    0 -0.00000000000E+00 -0.00000000000E+00 -0.74505805969E-08  0.93827000000E+00  0.93827000000E+00 0. -1.
     999902    2    1    2    0    0 -0.22547720094E-01  0.86159252306E-02 -0.23038594842E-02  0.10196824926E+01  0.10193941554E+01 0.  0.
     999903    2    3    3    0    0  0.42268716791E-02 -0.12543224701E+00 -0.22073847233E-01  0.12890943298E+00  0.19474910662E-01 0.  0.
         14    1    1    2    0    0  0.22547720094E-01 -0.86159252306E-02  0.23038594842E-02  0.24247507450E-01  0.00000000000E+00 0. -1.
     999901    1    3    3    0    0 -0.26774591773E-01  0.13404817224E+00  0.19769987749E-01  0.89077305957E+00  0.88000000000E+00 0. -1.
        -11    1    4    4    0    0  0.31583290113E-02 -0.91774166126E-02  0.25963270680E-02  0.10059923114E-01  0.51100000000E-03 0. -1.
         11    1    4    4    0    0  0.10685426678E-02 -0.11625483040E+00 -0.24670174301E-01  0.11884950986E+00  0.51100000000E-03 0.  1.
</event>
<event>
 8    1  0.1183092E+005  0.1043930E+01  0.7957747E-01            NaN
         13   -1    0    0    0    0  0.00000000000E+00  0.00000000000E+00  0.74505805969E-08  0.10566000000E+00  0.10566000000E+00 0.  1.
     999900   -1    0    0    0    0 -0.00000000000E+00 -0.00000000000E+00 -0.74505805969E-08  0.93827000000E+00  0.93827000000E+00 0.  1.
     999902    2    1    2    0    0  0.83006212264E-02 -0.62553445253E-02 -0.20381788958E-01  0.10210510365E+01  0.10207946768E+01 0.  0.
     999903    2    3    3    0    0  0.61723837942E-01  0.10722654604E+00 -0.41175290606E-01  0.13191406774E+00  0.19963776345E-01 0.  0.
         14    1    1    2    0    0 -0.83006212264E-02  0.62553445253E-02  0.20381788958E-01  0.22878963460E-01  0.00000000000E+00 0.  1.
     999901    1    3    3    0    0 -0.53423216715E-01 -0.11348189057E+00  0.20793501648E-01  0.88913696880E+00  0.88000000000E+00 0.  1.
        -11    1    4    4    0    0  0.26230101370E-01  0.37778597138E-01 -0.61051781185E-02  0.46398005781E-01  0.51100000000E-03 0.  1.
         11    1    4    4    0    0  0.35493736572E-01  0.69447948903E-01 -0.35070112487E-01  0.85516061962E-01  0.51100000000E-03 0. -1.
</event>
<event>
 8    1  0.1183092E+005  0.1043930E+01  0.7957747E-01            NaN
         13   -1    0    0    0    0  0.00000000000E+00  0.00000000000E+00  0.74505805969E-08  0.10566000000E+00  0.10566000000E+00 0.  1.
     999900   -1    0    0    0    0 -0.00000000000E+00 -0.00000000000E+00 -0.74505805969E-08  0.93827000000E+00  0.93827000000E+00 0. -1.
     999902    2    1    2    0    0  0.23527963578E-01 -0.16985980274E-02 -0.93321629256E-03  0.10203223487E+01  0.10200492018E+01 0.  0.
     999903    2    3    3    0    0 -0.49649357884E-01 -0.10427050687E+00 -0.55129847132E-01  0.12969717974E+00  0.21086987622E-01 0.  0.
         14    1    1    2    0    0 -0.23527963578E-01  0.16985980274E-02  0.93321629256E-03  0.23607651260E-01  0.00000000000E+00 0. -1.
     999901    1    3    3    0    0  0.73177321462E-01  0.10257190884E+00  0.54196630839E-01  0.89062516900E+00  0.88000000000E+00 0.  1.
        -11    1    4    4    0    0 -0.19933669019E-01 -0.65964137312E-01 -0.32063540021E-01  0.76006251661E-01  0.51100000000E-03 0. -1.
         11    1    4    4    0    0 -0.29715688865E-01 -0.38306369557E-01 -0.23066307111E-01  0.53690928080E-01  0.51100000000E-03 0.  1.
</event>
<event>
 8    1  0.1307224E+005  0.1043930E+01  0.7957747E-01            NaN
         13   -1    0    0    0    0  0.00000000000E+00  0.00000000000E+00  0.74505805969E-08  0.10566000000E+00  0.10566000000E+00 0.  1.
     999900   -1    0    0    0    0 -0.00000000000E+00 -0.00000000000E+00 -0.74505805969E-08  0.93827000000E+00  0.93827000000E+00 0.  1.
     999902    2    1    2    0    0  0.53444197735E-02  0.21668790933E-01 -0.72809356480E-02  0.10204542392E+01  0.10201841711E+01 0.  0.
     999903    2    3    3    0    0  0.73768455899E-01  0.47840124726E-01  0.95684840157E-01  0.13142739006E+00  0.19675050246E-01 0.  0.
         14    1    1    2    0    0 -0.53444197735E-02 -0.21668790933E-01  0.72809356480E-02  0.23475760843E-01  0.00000000000E+00 0.  1.
     999901    1    3    3    0    0 -0.68424036125E-01 -0.26171333793E-01 -0.10296577580E+00  0.88902684910E+00  0.88000000000E+00 0.  1.
        -11    1    4    4    0    0  0.50853169745E-01  0.21875847675E-01  0.55788395615E-01  0.78595189363E-01  0.51100000000E-03 0. -1.
         11    1    4    4    0    0  0.22915286154E-01  0.25964277051E-01  0.39896444541E-01  0.52832200695E-01  0.51100000000E-03 0.  1.
</event>
<event>
 8    1  0.1183092E+005  0.1043930E+01  0.7957747E-01            NaN
         13   -1    0    0    0    0  0.00000000000E+00  0.00000000000E+00  0.74505805969E-08  0.10566000000E+00  0.10566000000E+00 0.  1.
     999900   -1    0    0    0    0 -0.00000000000E+00 -0.00000000000E+00 -0.74505805969E-08  0.93827000000E+00  0.93827000000E+00 0.  1.
     999902    2    1    2    0    0 -0.13661168000E-01 -0.14220865460E-01  0.16469798373E-01  0.10182373010E+01  0.10179131035E+01 0.  0.
     999903    2    3    3    0    0 -0.65088523383E-01 -0.42598192829E-01 -0.10044051352E+00  0.12856428989E+00  0.19732155792E-01 0.  0.
         14    1    1    2    0    0  0.13661168000E-01  0.14220865460E-01 -0.16469798373E-01  0.25692699041E-01  0.00000000000E+00 0. -1.
     999901    1    3    3    0    0  0.51427355382E-01  0.28377327369E-01  0.11691031189E+00  0.88967301106E+00  0.88000000000E+00 0. -1.
        -11    1    4    4    0    0 -0.44385331566E-02 -0.77780945075E-02 -0.20332791600E-01  0.22223475561E-01  0.51100000000E-03 0. -1.
         11    1    4    4    0    0 -0.60649990226E-01 -0.34820098321E-01 -0.80107721917E-01  0.10634081433E+00  0.51100000000E-03 0.  1.
</event>
<event>
 8    1  0.1183092E+005  0.1043930E+01  0.7957747E-01            NaN
         13   -1    0    0    0    0  0.00000000000E+00  0.00000000000E+00  0.74505805969E-08  0.10566000000E+00  0.10566000000E+00 0.  1.
     999900   -1    0    0    0    0 -0.00000000000E+00 -0.00000000000E+00 -0.74505805969E-08  0.93827000000E+00  0.93827000000E+00 0. -1.
     999902    2    1    2    0    0  0.20725540893E-01 -0.11124815720E-01  0.25515447500E-02  0.10202694854E+01  0.10199950995E+01 0.  0.
     999903    2    3    3    0    0 -0.87768446232E-01 -0.59929733768E-01 -0.70953820446E-01  0.12922745274E+00  0.19246214241E-01 0.  0.
         14    1    1    2    0    0 -0.20725540893E-01  0.11124815720E-01 -0.25515447500E-02  0.23660514591E-01  0.00000000000E+00 0. -1.
     999901    1    3    3    0    0  0.10849398712E+00  0.48804918049E-01  0.73505365196E-01  0.89104203267E+00  0.88000000000E+00 0. -1.
        -11    1    4    4    0    0 -0.77032663095E-01 -0.51872655622E-01 -0.53417616701E-01  0.10713779202E+00  0.51100000000E-03 0.  1.
         11    1    4    4    0    0 -0.10735783137E-01 -0.80570781465E-02 -0.17536203745E-01  0.22089660718E-01  0.51100000000E-03 0. -1.
</event>
<event>
 8    1  0.1183092E+005  0.1043930E+01  0.7957747E-01            NaN
         13   -1    0    0    0    0  0.00000000000E+00  0.00000000000E+00  0.74505805969E-08  0.10566000000E+00  0.10566000000E+00 0.  1.
     999900   -1    0    0    0    0 -0.00000000000E+00 -0.00000000000E+00 -0.74505805969E-08  0.93827000000E+00  0.93827000000E+00 0. -1.
     999902    2    1    2    0    0  0.15115052465E-02  0.57244031328E-02 -0.22018048044E-01  0.10211298272E+01  0.10208752500E+01 0.  0.
     999903    2    3    3    0    0  0.52937985731E-01  0.60827649747E-01 -0.10543927689E+00  0.13397699252E+00  0.18164804090E-01 0.  0.
         14    1    1    2    0    0 -0.15115052465E-02 -0.57244031328E-02  0.22018048044E-01  0.22800172784E-01  0.00000000000E+00 0.  1.
     999901    1    3    3    0    0 -0.51426480484E-01 -0.55103246614E-01  0.83421228845E-01  0.88715283469E+00  0.88000000000E+00 0.  1.
        -11    1    4    4    0    0  0.26541046037E-01  0.43233898907E-01 -0.60301593070E-01  0.78804443956E-01  0.51100000000E-03 0. -1.
         11    1    4    4    0    0  0.26396939694E-01  0.17593750840E-01 -0.45137683819E-01  0.55172548567E-01  0.51100000000E-03 0.  1.
</event>
<event>
 8    1  0.1183092E+005  0.1043930E+01  0.7957747E-01            NaN
         13   -1    0    0    0    0  0.00000000000E+00  0.00000000000E+00  0.74505805969E-08  0.10566000000E+00  0.10566000000E+00 0.  1.
     999900   -1    0    0    0    0 -0.00000000000E+00 -0.00000000000E+00 -0.74505805969E-08  0.93827000000E+00  0.93827000000E+00 0. -1.
     999902    2    1    2    0    0  0.22252483691E-01 -0.49302931829E-02  0.63928963433E-02  0.10202582881E+01  0.10199836393E+01 0.  0.
     999903    2    3    3    0    0 -0.10708197623E+00 -0.17838387161E-02  0.68454562398E-01  0.12863675790E+00  0.19790317210E-01 0.  0.
         14    1    1    2    0    0 -0.22252483691E-01  0.49302931829E-02 -0.63928963433E-02  0.23671711914E-01  0.00000000000E+00 0. -1.
     999901    1    3    3    0    0  0.12933445992E+00 -0.31464544668E-02 -0.62061666055E-01  0.89162153019E+00  0.88000000000E+00 0. -1.
        -11    1    4    4    0    0 -0.57148423175E-01  0.12492419203E-02  0.25081767460E-01  0.62424827246E-01  0.51100000000E-03 0. -1.
         11    1    4    4    0    0 -0.49933553057E-01 -0.30330806364E-02  0.43372794937E-01  0.66211930652E-01  0.51100000000E-03 0.  1.
</event>
<event>
 8    1  0.1183092E+005  0.1043930E+01  0.7957747E-01            NaN
         13   -1    0    0    0    0  0.00000000000E+00  0.00000000000E+00  0.74505805969E-08  0.10566000000E+00  0.10566000000E+00 0.  1.
     999900   -1    0    0    0    0 -0.00000000000E+00 -0.00000000000E+00 -0.74505805969E-08  0.93827000000E+00  0.93827000000E+00 0. -1.
     999902    2    1    2    0    0 -0.84809546923E-02  0.19352515175E-01 -0.97337957789E-02  0.10206664402E+01  0.10204012881E+01 0.  0.
     999903    2    3    3    0    0 -0.92724535120E-01  0.93566165209E-01 -0.91776283789E-02  0.13353344223E+00  0.19861637553E-01 0.  0.
         14    1    1    2    0    0  0.84809546923E-02 -0.19352515175E-01  0.97337957789E-02  0.23263559838E-01  0.00000000000E+00 0. -1.
     999901    1    3    3    0    0  0.84243580428E-01 -0.74213650035E-01 -0.55616739996E-03  0.88713299793E+00  0.88000000000E+00 0.  1.
        -11    1    4    4    0    0 -0.22881912704E-02  0.47134086100E-02  0.31797520416E-02  0.61501206542E-02  0.51100000000E-03 0.  1.
         11    1    4    4    0    0 -0.90436343850E-01  0.88852756599E-01 -0.12357380421E-01  0.12738332158E+00  0.51100000000E-03 0. -1.
</event>
<event>
 8    1  0.1183092E+005  0.1043930E+01  0.7957747E-01            NaN
         13   -1    0    0    0    0  0.00000000000E+00  0.00000000000E+00  0.74505805969E-08  0.10566000000E+00  0.10566000000E+00 0. -1.
     999900   -1    0    0    0    0 -0.00000000000E+00 -0.00000000000E+00 -0.74505805969E-08  0.93827000000E+00  0.93827000000E+00 0. -1.
     999902    2    1    2    0    0  0.11496478875E-01 -0.11308027622E-01  0.16179055719E-01  0.10210870063E+01  0.10208314612E+01 0.  0.
     999903    2    3    3    0    0  0.10438472708E+00  0.77047691575E-01 -0.52978990831E-02  0.13153868312E+00  0.21019976159E-01 0.  0.
         14    1    1    2    0    0 -0.11496478875E-01  0.11308027622E-01 -0.16179055719E-01  0.22842993656E-01  0.00000000000E+00 0.  1.
     999901    1    3    3    0    0 -0.92888248200E-01 -0.88355719197E-01  0.21476954802E-01  0.88954832323E+00  0.88000000000E+00 0. -1.
        -11    1    4    4    0    0  0.87614919688E-01  0.54492327031E-01 -0.16586099538E-02  0.10319302285E+00  0.51100000000E-03 0. -1.
         11    1    4    4    0    0  0.16769807388E-01  0.22555364544E-01 -0.36392891293E-02  0.28345660266E-01  0.51100000000E-03 0.  1.
</event>
<event>
 8    1  0.1183092E+005  0.1043930E+01  0.7957747E-01            NaN
         13   -1    0    0    0    0  0.00000000000E+00  0.00000000000E+00  0.74505805969E-08  0.10566000000E+00  0.10566000000E+00 0.  1.
     999900   -1    0    0    0    0 -0.00000000000E+00 -0.00000000000E+00 -0.74505805969E-08  0.93827000000E+00  0.93827000000E+00 0. -1.
     999902    2    1    2    0    0  0.90606163830E-02 -0.21616784368E-01  0.26599404148E-02  0.10203406927E+01  0.10200679751E+01 0.  0.
     999903    2    3    3    0    0 -0.72308922330E-02 -0.11999408098E+00  0.53951467304E-01  0.13322495816E+00  0.19679008661E-01 0.  0.
         14    1    1    2    0    0 -0.90606163830E-02  0.21616784368E-01 -0.26599404148E-02  0.23589307295E-01  0.00000000000E+00 0.  1.
     999901    1    3    3    0    0  0.16291508616E-01  0.98377296607E-01 -0.51291526889E-01  0.88711573454E+00  0.88000000000E+00 0. -1.
        -11    1    4    4    0    0  0.34852523402E-02 -0.28065663418E-01  0.57169040279E-02  0.28857798940E-01  0.51100000000E-03 0. -1.
         11    1    4    4    0    0 -0.10716144573E-01 -0.91928417557E-01  0.48234563276E-01  0.10436715922E+00  0.51100000000E-03 0.  1.
</event>
<event>
 8    1  0.1183092E+005  0.1043930E+01  0.7957747E-01            NaN
         13   -1    0    0    0    0  0.00000000000E+00  0.00000000000E+00  0.74505805969E-08  0.10566000000E+00  0.10566000000E+00 0. -1.
     999900   -1    0    0    0    0 -0.00000000000E+00 -0.00000000000E+00 -0.74505805969E-08  0.93827000000E+00  0.93827000000E+00 0. -1.
     999902    2    1    2    0    0 -0.29797961050E-02 -0.83227541958E-02  0.22804983053E-01  0.10194715725E+01  0.10191781358E+01 0.  0.
     999903    2    3    3    0    0 -0.83747034403E-01  0.96355308999E-01  0.91203954754E-02  0.12948948752E+00  0.19657935340E-01 0.  0.
         14    1    1    2    0    0  0.29797961050E-02  0.83227541958E-02 -0.22804983053E-01  0.24458427469E-01  0.00000000000E+00 0. -1.
     999901    1    3    3    0    0  0.80767238299E-01 -0.10467806319E+00  0.13684587577E-01  0.88998208501E+00  0.88000000000E+00 0.  1.
        -11    1    4    4    0    0 -0.41268901541E-01  0.39748213734E-01 -0.42719265521E-02  0.57459143806E-01  0.51100000000E-03 0.  1.
         11    1    4    4    0    0 -0.42478132863E-01  0.56607095265E-01  0.13392322027E-01  0.72030343718E-01  0.51100000000E-03 0. -1.
</event>
<event>
 8    1  0.1183092E+005  0.1043930E+01  0.7957747E-01            NaN
         13   -1    0    0    0    0  0.00000000000E+00  0.00000000000E+00  0.74505805969E-08  0.10566000000E+00  0.10566000000E+00 0.  1.
     999900   -1    0    0    0    0 -0.00000000000E+00 -0.00000000000E+00 -0.74505805969E-08  0.93827000000E+00  0.93827000000E+00 0. -1.
     999902    2    1    2    0    0  0.52451016997E-02 -0.22479531897E-02 -0.22015569398E-01  0.10211868762E+01  0.10209335857E+01 0.  0.
     999903    2    3    3    0    0  0.50926646191E-01  0.73604438974E-01  0.91436765538E-01  0.12949644716E+00  0.19937678019E-01 0.  0.
         14    1    1    2    0    0 -0.52451016997E-02  0.22479531897E-02  0.22015569398E-01  0.22743123824E-01  0.00000000000E+00 0.  1.
     999901    1    3    3    0    0 -0.45681544491E-01 -0.75852392164E-01 -0.11345233494E+00  0.89169042902E+00  0.88000000000E+00 0. -1.
        -11    1    4    4    0    0  0.41638315721E-01  0.48515774704E-01  0.55311729341E-01  0.84540985651E-01  0.51100000000E-03 0.  1.
         11    1    4    4    0    0  0.92883304698E-02  0.25088664270E-01  0.36125036198E-01  0.44955461504E-01  0.51100000000E-03 0. -1.
</event>
<event>
 8    1  0.1183092E+005  0.1043930E+01  0.7957747E-01            NaN
         13   -1    0    0    0    0  0.00000000000E+00  0.00000000000E+00  0.74505805969E-08  0.10566000000E+00  0.10566000000E+00 0.  1.
     999900   -1    0    0    0    0 -0.00000000000E+00 -0.00000000000E+00 -0.74505805969E-08  0.93827000000E+00  0.93827000000E+00 0. -1.
     999902    2    1    2    0    0 -0.15938040288E-01  0.15714172493E-01 -0.11323617636E-02  0.10215193198E+01  0.10212734610E+01 0.  0.
     999903    2    3    3    0    0  0.11393733918E+00  0.12029410370E-01 -0.58183797074E-01  0.13015179852E+00  0.20681209907E-01 0.  0.
         14    1    1    2    0    0  0.15938040288E-01 -0.15714172493E-01  0.11323617636E-02  0.22410680234E-01  0.00000000000E+00 0.  1.
     999901    1    3    3    0    0 -0.12987537947E+00  0.36847621234E-02  0.57051435311E-01  0.89136752125E+00  0.88000000000E+00 0.  1.
        -11    1    4    4    0    0  0.26711058213E-01  0.10581859204E-01 -0.19455100937E-01  0.34701850794E-01  0.51100000000E-03 0. -1.
         11    1    4    4    0    0  0.87226280964E-01  0.14475511654E-02 -0.38728696137E-01  0.95449947725E-01  0.51100000000E-03 0.  1.
</event>
<event>
 8    1  0.1183092E+005  0.1043930E+01  0.7957747E-01            NaN
         13   -1    0    0    0    0  0.00000000000E+00  0.00000000000E+00  0.74505805969E-08  0.10566000000E+00  0.10566000000E+00 0. -1.
     999900   -1    0    0    0    0 -0.00000000000E+00 -0.00000000000E+00 -0.74505805969E-08  0.93827000000E+00  0.93827000000E+00 0.  1.
     999902    2    1    2    0    0 -0.43797176170E-02 -0.22148756871E-01  0.20038456037E-01  0.10137424350E+01  0.10132928676E+01 0.  0.
     999903    2    3    3    0    0  0.67619073151E-01 -0.84776314388E-01  0.63999729183E-01  0.12749267885E+00  0.19976368260E-01 0.  0.
         14    1    1    2    0    0  0.43797176170E-02  0.22148756871E-01 -0.20038456037E-01  0.30187564952E-01  0.00000000000E+00 0.  1.
     999901    1    3    3    0    0 -0.71998790768E-01  0.62627557517E-01 -0.43961273145E-01  0.88624975620E+00  0.88000000000E+00 0.  1.
        -11    1    4    4    0    0  0.29334358528E-01 -0.24504008886E-01  0.28935991465E-01  0.47942713365E-01  0.51100000000E-03 0.  1.
         11    1    4    4    0    0  0.38284714623E-01 -0.60272305502E-01  0.35063737718E-01  0.79549965481E-01  0.51100000000E-03 0. -1.
</event>
<event>
 8    1  0.1183092E+005  0.1043930E+01  0.7957747E-01            NaN
         13   -1    0    0    0    0  0.00000000000E+00  0.00000000000E+00  0.74505805969E-08  0.10566000000E+00  0.10566000000E+00 0.  1.
     999900   -1    0    0    0    0 -0.00000000000E+00 -0.00000000000E+00 -0.74505805969E-08  0.93827000000E+00  0.93827000000E+00 0.  1.
     999902    2    1    2    0    0  0.22500662424E-01 -0.18750628438E-02 -0.81529907919E-02  0.10199244396E+01  0.10196418958E+01 0.  0.
     999903    2    3    3    0    0 -0.52372445260E-01 -0.93623292976E-01 -0.70433586750E-01  0.12981063082E+00  0.19537546458E-01 0.  0.
         14    1    1    2    0    0 -0.22500662424E-01  0.18750628438E-02  0.81529907919E-02  0.24005560377E-01  0.00000000000E+00 0.  1.
     999901    1    3    3    0    0  0.74873107683E-01  0.91748230132E-01  0.62280595958E-01  0.89011380880E+00  0.88000000000E+00 0.  1.
        -11    1    4    4    0    0 -0.50806258176E-02 -0.14588725522E-01 -0.32181181076E-02  0.15788004187E-01  0.51100000000E-03 0. -1.
         11    1    4    4    0    0 -0.47291819442E-01 -0.79034567454E-01 -0.67215468642E-01  0.11402262663E+00  0.51100000000E-03 0.  1.
</event>
<event>
 8    1  0.1203243E+005  0.1043930E+01  0.7957747E-01            NaN
         13   -1    0    0    0    0  0.00000000000E+00  0.00000000000E+00  0.74505805969E-08  0.10566000000E+00  0.10566000000E+00 0.  1.
     999900   -1    0    0    0    0 -0.00000000000E+00 -0.00000000000E+00 -0.74505805969E-08  0.93827000000E+00  0.93827000000E+00 0.  1.
     999902    2    1    2    0    0 -0.14293967810E-01 -0.17438395406E-01 -0.48568265719E-02  0.10208647900E+01  0.10206041914E+01 0.  0.
     999903    2    3    3    0    0  0.21180150600E-01 -0.97689930991E-01 -0.85557363606E-01  0.13282689734E+00  0.18193427208E-01 0.  0.
         14    1    1    2    0    0  0.14293967810E-01  0.17438395406E-01  0.48568265719E-02  0.23065210045E-01  0.00000000000E+00 0.  1.
     999901    1    3    3    0    0 -0.35474118409E-01  0.80251535584E-01  0.80700537034E-01  0.88803789261E+00  0.88000000000E+00 0. -1.
        -11    1    4    4    0    0 -0.10929952399E-02 -0.34354717431E-01 -0.26402758719E-01  0.43345219314E-01  0.51100000000E-03 0.  1.
         11    1    4    4    0    0  0.22273145840E-01 -0.63335213560E-01 -0.59154604886E-01  0.89481678027E-01  0.51100000000E-03 0. -1.
</event>
<event>
 8    1  0.1183092E+005  0.1043930E+01  0.7957747E-01            NaN
         13   -1    0    0    0    0  0.00000000000E+00  0.00000000000E+00  0.74505805969E-08  0.10566000000E+00  0.10566000000E+00 0.  1.
     999900   -1    0    0    0    0 -0.00000000000E+00 -0.00000000000E+00 -0.74505805969E-08  0.93827000000E+00  0.93827000000E+00 0. -1.
     999902    2    1    2    0    0 -0.86367701558E-02 -0.59641593471E-02 -0.22361198499E-01  0.10192280124E+01  0.10189286300E+01 0.  0.
     999903    2    3    3    0    0  0.98187969647E-01  0.58773794633E-01 -0.57728019983E-01  0.12970379133E+00  0.19882476597E-01 0.  0.
         14    1    1    2    0    0  0.86367701558E-02  0.59641593471E-02  0.22361198499E-01  0.24701987648E-01  0.00000000000E+00 0.  1.
     999901    1    3    3    0    0 -0.10682473980E+00 -0.64737953980E-01  0.35366821483E-01  0.88952422102E+00  0.88000000000E+00 0.  1.
        -11    1    4    4    0    0  0.30819914698E-01  0.15055568139E-01 -0.27222659766E-01  0.43793510931E-01  0.51100000000E-03 0.  1.
         11    1    4    4    0    0  0.67368054950E-01  0.43718226494E-01 -0.30505360217E-01  0.85910280400E-01  0.51100000000E-03 0. -1.
</event>
<event>
 8    1  0.1183092E+005  0.1043930E+01  0.7957747E-01            NaN
         13   -1    0    0    0    0  0.00000000000E+00  0.00000000000E+00  0.74505805969E-08  0.10566000000E+00  0.10566000000E+00 0.  1.
     999900   -1    0    0    0    0 -0.00000000000E+00 -0.00000000000E+00 -0.74505805969E-08  0.93827000000E+00  0.93827000000E+00 0.  1.
     999902    2    1    2    0    0 -0.94367929943E-02 -0.87249735771E-02  0.21257681375E-01  0.10190891618E+01  0.10187863625E+01 0.  0.
     999903    2    3    3    0    0 -0.12061070300E+00 -0.43516743999E-01  0.90000744566E-02  0.13132773297E+00  0.26931829155E-01 0.  0.
         14    1    1    2    0    0  0.94367929943E-02  0.87249735771E-02 -0.21257681375E-01  0.24840838218E-01  0.00000000000E+00 0. -1.
     999901    1    3    3    0    0  0.11117391000E+00  0.34791770422E-01  0.12257606918E-01  0.88776142881E+00  0.88000000000E+00 0.  1.
        -11    1    4    4    0    0 -0.13005474872E-01 -0.14659796608E-01  0.88040392273E-03  0.19623665440E-01  0.51100000000E-03 0.  1.
         11    1    4    4    0    0 -0.10760522813E+00 -0.28856947390E-01  0.81196705338E-02  0.11170406753E+00  0.51100000000E-03 0. -1.
</event>
<event>
 8    1  0.1183092E+005  0.1043930E+01  0.7957747E-01            NaN
         13   -1    0    0    0    0  0.00000000000E+00  0.00000000000E+00  0.74505805969E-08  0.10566000000E+00  0.10566000000E+00 0. -1.
     999900   -1    0    0    0    0 -0.00000000000E+00 -0.00000000000E+00 -0.74505805969E-08  0.93827000000E+00  0.93827000000E+00 0.  1.
     999902    2    1    2    0    0  0.17626344261E-01 -0.16497165685E-01 -0.85235792029E-03  0.10197727857E+01  0.10194866176E+01 0.  0.
     999903    2    3    3    0    0  0.58321782323E-01  0.73446627915E-01 -0.87731848700E-01  0.13000087641E+00  0.20186954825E-01 0.  0.
         14    1    1    2    0    0 -0.17626344261E-01  0.16497165685E-01  0.85235792029E-03  0.24157214278E-01  0.00000000000E+00 0.  1.
     999901    1    3    3    0    0 -0.40695438062E-01 -0.89943793601E-01  0.86879490780E-01  0.88977190931E+00  0.88000000000E+00 0. -1.
        -11    1    4    4    0    0  0.29331095222E-02  0.14988994435E-01 -0.16449005735E-01  0.22452260383E-01  0.51100000000E-03 0. -1.
         11    1    4    4    0    0  0.55388672801E-01  0.58457633481E-01 -0.71282842965E-01  0.10754861603E+00  0.51100000000E-03 0.  1.
</event>
<event>
 8    1  0.1183092E+005  0.1043930E+01  0.7957747E-01            NaN
         13   -1    0    0    0    0  0.00000000000E+00  0.00000000000E+00  0.74505805969E-08  0.10566000000E+00  0.10566000000E+00 0.  1.
     999900   -1    0    0    0    0 -0.00000000000E+00 -0.00000000000E+00 -0.74505805969E-08  0.93827000000E+00  0.93827000000E+00 0.  1.
     999902    2    1    2    0    0  0.87538455772E-02 -0.22836096523E-02  0.21935692542E-01  0.10202019724E+01  0.10199259999E+01 0.  0.
     999903    2    3    3    0    0  0.10367178737E+00  0.16216296219E-01 -0.73550358452E-01  0.12976991543E+00  0.20488239608E-01 0.  0.
         14    1    1    2    0    0 -0.87538455772E-02  0.22836096523E-02 -0.21935692542E-01  0.23728027577E-01  0.00000000000E+00 0. -1.
     999901    1    3    3    0    0 -0.94917941791E-01 -0.18499905871E-01  0.95486050994E-01  0.89043205700E+00  0.88000000000E+00 0. -1.
        -11    1    4    4    0    0  0.40393750710E-01  0.56089288903E-02 -0.16794243213E-01  0.44106948498E-01  0.51100000000E-03 0. -1.
         11    1    4    4    0    0  0.63278036659E-01  0.10607367329E-01 -0.56756115239E-01  0.85662966929E-01  0.51100000000E-03 0.  1.
</event>
<event>
 8    1  0.1183092E+005  0.1043930E+01  0.7957747E-01            NaN
         13   -1    0    0    0    0  0.00000000000E+00  0.00000000000E+00  0.74505805969E-08  0.10566000000E+00  0.10566000000E+00 0.  1.
     999900   -1    0    0    0    0 -0.00000000000E+00 -0.00000000000E+00 -0.74505805969E-08  0.93827000000E+00  0.93827000000E+00 0. -1.
     999902    2    1    2    0    0 -0.93932010528E-02  0.16737549615E-01  0.14203292232E-01  0.10200529963E+01  0.10197735063E+01 0.  0.
     999903    2    3    3    0    0 -0.10897784105E-01 -0.27816691342E-01  0.12670494269E+00  0.13177152884E+00  0.20422127643E-01 0.  0.
         14    1    1    2    0    0  0.93932010528E-02 -0.16737549615E-01 -0.14203292232E-01  0.23877003651E-01  0.00000000000E+00 0. -1.
     999901    1    3    3    0    0  0.15045830519E-02  0.44554240957E-01 -0.11250165045E+00  0.88828146750E+00  0.88000000000E+00 0. -1.
        -11    1    4    4    0    0  0.35059675984E-02  0.18926758988E-03  0.55330838627E-02  0.65729574055E-02  0.51100000000E-03 0.  1.
         11    1    4    4    0    0 -0.14403751703E-01 -0.28005958932E-01  0.12117185882E+00  0.12519857144E+00  0.51100000000E-03 0. -1.
</event>
<event>
 8    1  0.1183092E+005  0.1043930E+01  0.7957747E-01            NaN
         13   -1    0    0    0    0  0.00000000000E+00  0.00000000000E+00  0.74505805969E-08  0.10566000000E+00  0.10566000000E+00 0.  1.
     999900   -1    0    0    0    0 -0.00000000000E+00 -0.00000000000E+00 -0.74505805969E-08  0.93827000000E+00  0.93827000000E+00 0. -1.
     999902    2    1    2    0    0  0.18700334545E-01  0.45090474292E-02  0.12691636403E-01  0.10208841402E+01  0.10206239836E+01 0.  0.
     999903    2    3    3    0    0  0.18759046197E-01 -0.16579740724E-01 -0.12573440645E+00  0.12981371098E+00  0.20387961561E-01 0.  0.
         14    1    1    2    0    0 -0.18700334545E-01 -0.45090474292E-02 -0.12691636403E-01  0.23045859832E-01  0.00000000000E+00 0. -1.
     999901    1    3    3    0    0 -0.58711652298E-04  0.21088788153E-01  0.13842604285E+00  0.89107042919E+00  0.88000000000E+00 0.  1.
        -11    1    4    4    0    0  0.59210155721E-02 -0.34724676499E-02 -0.83250556271E-01  0.83534619754E-01  0.51100000000E-03 0. -1.
         11    1    4    4    0    0  0.12838030625E-01 -0.13107273074E-01 -0.42483850178E-01  0.46279091226E-01  0.51100000000E-03 0.  1.
</event>
<event>
 8    1  0.1183092E+005  0.1043930E+01  0.7957747E-01            NaN
         13   -1    0    0    0    0  0.00000000000E+00  0.00000000000E+00  0.74505805969E-08  0.10566000000E+00  0.10566000000E+00 0.  1.
     999900   -1    0    0    0    0 -0.00000000000E+00 -0.00000000000E+00 -0.74505805969E-08  0.93827000000E+00  0.93827000000E+00 0.  1.
     999902    2    1    2    0    0 -0.19289755754E-01 -0.93981707807E-04 -0.13863189682E-01  0.10201751786E+01  0.10198985751E+01 0.  0.
     999903    2    3    3    0    0  0.75309281948E-02 -0.25575521689E-01  0.12410851570E+00  0.12865689534E+00  0.20948767530E-01 0.  0.
         14    1    1    2    0    0  0.19289755754E-01  0.93981707807E-04  0.13863189682E-01  0.23754821358E-01  0.00000000000E+00 0. -1.
     999901    1    3    3    0    0 -0.26820683949E-01  0.25481539981E-01 -0.13797170538E+00  0.89151828330E+00  0.88000000000E+00 0.  1.
        -11    1    4    4    0    0  0.34779946200E-02  0.29770428780E-02  0.25656241261E-01  0.26066512377E-01  0.51100000000E-03 0. -1.
         11    1    4    4    0    0  0.40529335748E-02 -0.28552564567E-01  0.98452274440E-01  0.10259038297E+00  0.51100000000E-03 0.  1.
</event>
<event>
 8    1  0.1183092E+005  0.1043930E+01  0.7957747E-01            NaN
         13   -1    0    0    0    0  0.00000000000E+00  0.00000000000E+00  0.74505805969E-08  0.10566000000E+00  0.10566000000E+00 0. -1.
     999900   -1    0    0    0    0 -0.00000000000E+00 -0.00000000000E+00 -0.74505805969E-08  0.93827000000E+00  0.93827000000E+00 0.  1.
     999902    2    1    2    0    0  0.13461286714E-01 -0.12302907673E-02  0.19317682703E-01  0.10203526227E+01  0.10200801841E+01 0.  0.
     999903    2    3    3    0    0  0.11307116487E+00 -0.47900210194E-01  0.47344303746E-01  0.13306140743E+00  0.19604504277E-01 0.  0.
         14    1    1    2    0    0 -0.13461286714E-01  0.12302907673E-02 -0.19317682703E-01  0.23577377301E-01  0.00000000000E+00 0.  1.
     999901    1    3    3    0    0 -0.99609878159E-01  0.46669919427E-01 -0.28026621043E-01  0.88729121527E+00  0.88000000000E+00 0.  1.
        -11    1    4    4    0    0  0.48061154776E-01 -0.11599729572E-01  0.13388173760E-01  0.51224336425E-01  0.51100000000E-03 0. -1.
         11    1    4    4    0    0  0.65010010096E-01 -0.36300480622E-01  0.33956129986E-01  0.81837071005E-01  0.51100000000E-03 0.  1.
</event>
<event>
 8    1  0.1183092E+005  0.1043930E+01  0.7957747E-01            NaN
         13   -1    0    0    0    0  0.00000000000E+00  0.00000000000E+00  0.74505805969E-08  0.10566000000E+00  0.10566000000E+00 0.  1.
     999900   -1    0    0    0    0 -0.00000000000E+00 -0.00000000000E+00 -0.74505805969E-08  0.93827000000E+00  0.93827000000E+00 0.  1.
     999902    2    1    2    0    0 -0.68923349261E-02  0.22112917624E-01  0.53643992380E-02  0.10201547569E+01  0.10198776720E+01 0.  0.
     999903    2    3    3    0    0 -0.32630671292E-01  0.26831078814E-01 -0.12174846194E+00  0.13063668371E+00  0.21414659657E-01 0.  0.
         14    1    1    2    0    0  0.68923349261E-02 -0.22112917624E-01 -0.53643992380E-02  0.23775243128E-01  0.00000000000E+00 0. -1.
     999901    1    3    3    0    0  0.25738336366E-01 -0.47181611895E-02  0.12711286117E+00  0.88951807316E+00  0.88000000000E+00 0. -1.
        -11    1    4    4    0    0 -0.14857609134E-01  0.29520539181E-03 -0.29915006789E-01  0.33406652744E-01  0.51100000000E-03 0. -1.
         11    1    4    4    0    0 -0.17773062159E-01  0.26535873422E-01 -0.91833455147E-01  0.97230030967E-01  0.51100000000E-03 0.  1.
</event>
<event>
 8    1  0.1183092E+005  0.1043930E+01  0.7957747E-01            NaN
         13   -1    0    0    0    0  0.00000000000E+00  0.00000000000E+00  0.74505805969E-08  0.10566000000E+00  0.10566000000E+00 0.  1.
     999900   -1    0    0    0    0 -0.00000000000E+00 -0.00000000000E+00 -0.74505805969E-08  0.93827000000E+00  0.93827000000E+00 0.  1.
     999902    2    1    2    0    0  0.18213997803E-01 -0.10563219987E-01 -0.85160363088E-02  0.10212175759E+01  0.10209649765E+01 0.  0.
     999903    2    3    3    0    0  0.41423677656E-01  0.12088066063E+00  0.19096845359E-01  0.13072408678E+00  0.19900808446E-01 0.  0.
         14    1    1    2    0    0 -0.18213997803E-01  0.10563219987E-01  0.85160363088E-02  0.22712424065E-01  0.00000000000E+00 0. -1.
     999901    1    3    3    0    0 -0.23209679852E-01 -0.13144388062E+00 -0.27612881668E-01  0.89049348915E+00  0.88000000000E+00 0. -1.
        -11    1    4    4    0    0  0.27781494373E-01  0.10013188714E+00  0.20207225914E-01  0.10586217149E+00  0.51100000000E-03 0.  1.
         11    1    4    4    0    0  0.13642183283E-01  0.20748773494E-01 -0.11103805545E-02  0.24861915296E-01  0.51100000000E-03 0. -1.
</event>
<event>
 8    1  0.1183092E+005  0.1043930E+01  0.7957747E-01            NaN
         13   -1    0    0    0    0  0.00000000000E+00  0.00000000000E+00  0.74505805969E-08  0.10566000000E+00  0.10566000000E+00 0. -1.
     999900   -1    0    0    0    0 -0.00000000000E+00 -0.00000000000E+00 -0.74505805969E-08  0.93827000000E+00  0.93827000000E+00 0.  1.
     999902    2    1    2    0    0  0.20839470563E-01  0.97755311080E-02 -0.57476524008E-02  0.10202049067E+01  0.10199290033E+01 0.  0.
     999903    2    3    3    0    0 -0.11256829481E+00 -0.56808280776E-01 -0.53043888984E-02  0.12766290082E+00  0.19258191592E-01 0.  0.
         14    1    1    2    0    0 -0.20839470563E-01 -0.97755311080E-02  0.57476524008E-02  0.23725093254E-01  0.00000000000E+00 0.  1.
     999901    1    3    3    0    0  0.13340776537E+00  0.66583811884E-01 -0.44326350240E-03  0.89254200593E+00  0.88000000000E+00 0. -1.
        -11    1    4    4    0    0 -0.61058790867E-01 -0.20937765623E-01 -0.65269951938E-02  0.64880110656E-01  0.51100000000E-03 0.  1.
         11    1    4    4    0    0 -0.51509503938E-01 -0.35870515153E-01  0.12226062954E-02  0.62782790161E-01  0.51100000000E-03 0. -1.
</event>
<event>
 8    1  0.1183092E+005  0.1043930E+01  0.7957747E-01            NaN
         13   -1    0    0    0    0  0.00000000000E+00  0.00000000000E+00  0.74505805969E-08  0.10566000000E+00  0.10566000000E+00 0. -1.
     999900   -1    0    0    0    0 -0.00000000000E+00 -0.00000000000E+00 -0.74505805969E-08  0.93827000000E+00  0.93827000000E+00 0.  1.
     999902    2    1    2    0    0  0.31300211056E-02 -0.10424919717E-01 -0.20404953178E-01  0.10208034331E+01  0.10205414303E+01 0.  0.
     999903    2    3    3    0    0  0.12787370862E+00 -0.23028183615E-01 -0.88527694282E-02  0.13184152007E+00  0.20538556176E-01 0.  0.
         14    1    1    2    0    0 -0.31300211056E-02  0.10424919717E-01  0.20404953178E-01  0.23126566918E-01  0.00000000000E+00 0. -1.
     999901    1    3    3    0    0 -0.12474368752E+00  0.12603263898E-01 -0.11552183750E-01  0.88896191301E+00  0.88000000000E+00 0.  1.
        -11    1    4    4    0    0  0.50515946328E-01  0.85662148221E-03 -0.52639185247E-02  0.50799257799E-01  0.51100000000E-03 0. -1.
         11    1    4    4    0    0  0.77357762297E-01 -0.23884805097E-01 -0.35888509034E-02  0.81042262270E-01  0.51100000000E-03 0.  1.
</event>
<event>
 8    1  0.1183092E+005  0.1043930E+01  0.7957747E-01            NaN
         13   -1    0    0    0    0  0.00000000000E+00  0.00000000000E+00  0.74505805969E-08  0.10566000000E+00  0.10566000000E+00 0.  1.
     999900   -1    0    0    0    0 -0.00000000000E+00 -0.00000000000E+00 -0.74505805969E-08  0.93827000000E+00  0.93827000000E+00 0. -1.
     999902    2    1    2    0    0 -0.94593519081E-02 -0.12145805864E-01 -0.18161043912E-01  0.10201219456E+01  0.10198440863E+01 0.  0.
     999903    2    3    3    0    0  0.12467145743E+00 -0.18618021194E-01  0.19574662798E-01  0.12913544337E+00  0.20079648881E-01 0.  0.
         14    1    1    2    0    0  0.94593519081E-02  0.12145805864E-01  0.18161043912E-01  0.23808054405E-01  0.00000000000E+00 0.  1.
     999901    1    3    3    0    0 -0.13413080934E+00  0.64722153302E-02 -0.37735706710E-01  0.89098650222E+00  0.88000000000E+00 0. -1.
        -11    1    4    4    0    0  0.89983363853E-01 -0.10814181568E-01  0.52007917650E-02  0.90781394841E-01  0.51100000000E-03 0.  1.
         11    1    4    4    0    0  0.34688093579E-01 -0.78038396265E-02  0.14373871033E-01  0.38354048529E-01  0.51100000000E-03 0. -1.
</event>
<event>
 8    1  0.1183092E+005  0.1043930E+01  0.7957747E-01            NaN
         13   -1    0    0    0    0  0.00000000000E+00  0.00000000000E+00  0.74505805969E-08  0.10566000000E+00  0.10566000000E+00 0.  1.
     999900   -1    0    0    0    0 -0.00000000000E+00 -0.00000000000E+00 -0.74505805969E-08  0.93827000000E+00  0.93827000000E+00 0.  1.
     999902    2    1    2    0    0 -0.68998791950E-02  0.15916552864E-01  0.16493504215E-01  0.10199929854E+01  0.10197120719E+01 0.  0.
     999903    2    3    3    0    0  0.78324581401E-01  0.41054144504E-01 -0.91657783069E-01  0.12893080565E+00  0.20045463706E-01 0.  0.
         14    1    1    2    0    0  0.68998791950E-02 -0.15916552864E-01 -0.16493504215E-01  0.23937014627E-01  0.00000000000E+00 0. -1.
     999901    1    3    3    0    0 -0.85224460596E-01 -0.25137591640E-01  0.10815128728E+00  0.89106217973E+00  0.88000000000E+00 0. -1.
        -11    1    4    4    0    0  0.34872152764E-01  0.16541336780E-01 -0.26307785646E-01  0.46712349197E-01  0.51100000000E-03 0. -1.
         11    1    4    4    0    0  0.43452428636E-01  0.24512807724E-01 -0.65349997423E-01  0.82218456451E-01  0.51100000000E-03 0.  1.
</event>
<event>
 8    1  0.1183092E+005  0.1043930E+01  0.7957747E-01            NaN
         13   -1    0    0    0    0  0.00000000000E+00  0.00000000000E+00  0.74505805969E-08  0.10566000000E+00  0.10566000000E+00 0.  1.
     999900   -1    0    0    0    0 -0.00000000000E+00 -0.00000000000E+00 -0.74505805969E-08  0.93827000000E+00  0.93827000000E+00 0.  1.
     999902    2    1    2    0    0 -0.39826467758E-02  0.16466101069E-01 -0.17444121413E-01  0.10196135173E+01  0.10193235175E+01 0.  0.
     999903    2    3    3    0    0 -0.89509972255E-01 -0.40102450324E-01  0.80217635158E-01  0.12829273154E+00  0.20097619753E-01 0.  0.
         14    1    1    2    0    0  0.39826467758E-02 -0.16466101069E-01  0.17444121413E-01  0.24316482715E-01  0.00000000000E+00 0.  1.
     999901    1    3    3    0    0  0.85527325479E-01  0.56568551392E-01 -0.97661756572E-01  0.89132078575E+00  0.88000000000E+00 0.  1.
        -11    1    4    4    0    0 -0.29056003916E-01 -0.12435483408E-01  0.38452263699E-01  0.49776804997E-01  0.51100000000E-03 0. -1.
         11    1    4    4    0    0 -0.60453968339E-01 -0.27666966915E-01  0.41765371459E-01  0.78515926540E-01  0.51100000000E-03 0.  1.
</event>
<event>
 8    1  0.1183092E+005  0.1043930E+01  0.7957747E-01            NaN
         13   -1    0    0    0    0  0.00000000000E+00  0.00000000000E+00  0.74505805969E-08  0.10566000000E+00  0.10566000000E+00 0. -1.
     999900   -1    0    0    0    0 -0.00000000000E+00 -0.00000000000E+00 -0.74505805969E-08  0.93827000000E+00  0.93827000000E+00 0.  1.
     999902    2    1    2    0    0  0.13838834470E-01  0.17981933079E-01  0.75148345858E-02  0.10200273643E+01  0.10197472666E+01 0.  0.
     999903    2    3    3    0    0 -0.19621885517E-01 -0.57664268455E-01  0.11290910555E+00  0.12988697087E+00  0.20297114009E-01 0.  0.
         14    1    1    2    0    0 -0.13838834470E-01 -0.17981933079E-01 -0.75148345858E-02  0.23902635746E-01  0.00000000000E+00 0.  1.
     999901    1    3    3    0    0  0.33460719987E-01  0.75646201535E-01 -0.10539427096E+00  0.89014039339E+00  0.88000000000E+00 0.  1.
        -11    1    4    4    0    0 -0.13704337939E-01 -0.41919187587E-01  0.97742236092E-01  0.10723261166E+00  0.51100000000E-03 0. -1.
         11    1    4    4    0    0 -0.59175475777E-02 -0.15745080868E-01  0.15166869458E-01  0.22654359206E-01  0.51100000000E-03 0.  1.
</event>
<event>
 8    1  0.1239704E+005  0.1043930E+01  0.7957747E-01            NaN
         13   -1    0    0    0    0  0.00000000000E+00  0.00000000000E+00  0.74505805969E-08  0.10566000000E+00  0.10566000000E+00 0.  1.
     999900   -1    0    0    0    0 -0.00000000000E+00 -0.00000000000E+00 -0.74505805969E-08  0.93827000000E+00  0.93827000000E+00 0. -1.
     999902    2    1    2    0    0 -0.26318084497E-02 -0.25266594592E-01 -0.10707849435E-02  0.10185041510E+01  0.10181867372E+01 0.  0.
     999903    2    3    3    0    0 -0.60134646391E-01 -0.45233679554E-01 -0.10450429204E+00  0.13035790669E+00  0.20242907862E-01 0.  0.
         14    1    1    2    0    0  0.26318084497E-02  0.25266594592E-01  0.10707849435E-02  0.25425849020E-01  0.00000000000E+00 0. -1.
     999901    1    3    3    0    0  0.57502837942E-01  0.19967084962E-01  0.10343350710E+00  0.88814624429E+00  0.88000000000E+00 0.  1.
        -11    1    4    4    0    0 -0.42916900333E-01 -0.35383517925E-01 -0.61068634956E-01  0.82604436753E-01  0.51100000000E-03 0.  1.
         11    1    4    4    0    0 -0.17217746058E-01 -0.98501616291E-02 -0.43435657089E-01  0.47753469938E-01  0.51100000000E-03 0. -1.
</event>
<event>
 8    1  0.1183092E+005  0.1043930E+01  0.7957747E-01            NaN
         13   -1    0    0    0    0  0.00000000000E+00  0.00000000000E+00  0.74505805969E-08  0.10566000000E+00  0.10566000000E+00 0.  1.
     999900   -1    0    0    0    0 -0.00000000000E+00 -0.00000000000E+00 -0.74505805969E-08  0.93827000000E+00  0.93827000000E+00 0.  1.
     999902    2    1    2    0    0  0.19536087588E-01  0.63365559006E-02 -0.11055791160E-01  0.10206053097E+01  0.10203387462E+01 0.  0.
     999903    2    3    3    0    0 -0.28350898054E-01  0.80739702443E-01  0.95563106576E-01  0.12976493065E+00  0.19594818635E-01 0.  0.
         14    1    1    2    0    0 -0.19536087588E-01 -0.63365559006E-02  0.11055791160E-01  0.23324690289E-01  0.00000000000E+00 0. -1.
     999901    1    3    3    0    0  0.47886985642E-01 -0.74403146542E-01 -0.10661889774E+00  0.89084037906E+00  0.88000000000E+00 0.  1.
        -11    1    4    4    0    0 -0.65364337699E-02  0.30654929101E-01  0.22740141265E-01  0.38727571449E-01  0.51100000000E-03 0.  1.
         11    1    4    4    0    0 -0.21814464285E-01  0.50084773342E-01  0.72822965311E-01  0.91037359202E-01  0.51100000000E-03 0. -1.
</event>
<event>
 8    1  0.1183092E+005  0.1043930E+01  0.7957747E-01            NaN
         13   -1    0    0    0    0  0.00000000000E+00  0.00000000000E+00  0.74505805969E-08  0.10566000000E+00  0.10566000000E+00 0.  1.
     999900   -1    0    0    0    0 -0.00000000000E+00 -0.00000000000E+00 -0.74505805969E-08  0.93827000000E+00  0.93827000000E+00 0. -1.
     999902    2    1    2    0    0  0.12884004206E-01 -0.13863850839E-01 -0.13925738909E-01  0.10204325506E+01  0.10201619774E+01 0.  0.
     999903    2    3    3    0    0 -0.89429911973E-01 -0.92358865149E-01  0.10120768426E-01  0.13070908837E+00  0.21320569927E-01 0.  0.
         14    1    1    2    0    0 -0.12884004206E-01  0.13863850839E-01  0.13925738909E-01  0.23497449406E-01  0.00000000000E+00 0.  1.
     999901    1    3    3    0    0  0.10231391618E+00  0.78495014310E-01 -0.24046507335E-01  0.88972346222E+00  0.88000000000E+00 0.  1.
        -11    1    4    4    0    0 -0.83085369830E-01 -0.77669262016E-01  0.47958232459E-02  0.11383740151E+00  0.51100000000E-03 0.  1.
         11    1    4    4    0    0 -0.63445421432E-02 -0.14689603133E-01  0.53249451797E-02  0.16871686856E-01  0.51100000000E-03 0. -1.
</event>
<event>
 8    1  0.1183092E+005  0.1043930E+01  0.7957747E-01            NaN
         13   -1    0    0    0    0  0.00000000000E+00  0.00000000000E+00  0.74505805969E-08  0.10566000000E+00  0.10566000000E+00 0. -1.
     999900   -1    0    0    0    0 -0.00000000000E+00 -0.00000000000E+00 -0.74505805969E-08  0.93827000000E+00  0.93827000000E+00 0.  1.
     999902    2    1    2    0    0 -0.62616882291E-02  0.22749279580E-01 -0.25088965316E-03  0.10203333603E+01  0.10200604711E+01 0.  0.
     999903    2    3    3    0    0  0.10330539132E+00  0.28477111953E-01 -0.72014137717E-01  0.13062120639E+00  0.19822052040E-01 0.  0.
         14    1    1    2    0    0  0.62616882291E-02 -0.22749279580E-01  0.25088965316E-03  0.23596639729E-01  0.00000000000E+00 0. -1.
     999901    1    3    3    0    0 -0.10956707955E+00 -0.57278323733E-02  0.71763248064E-01  0.88971215388E+00  0.88000000000E+00 0.  1.
        -11    1    4    4    0    0  0.19387896869E-01  0.24331478579E-02 -0.22341496840E-01  0.29685254851E-01  0.51100000000E-03 0. -1.
         11    1    4    4    0    0  0.83917494453E-01  0.26043964095E-01 -0.49672640877E-01  0.10093595154E+00  0.51100000000E-03 0.  1.
</event>
<event>
 8    1  0.1183092E+005  0.1043930E+01  0.7957747E-01            NaN
         13   -1    0    0    0    0  0.00000000000E+00  0.00000000000E+00  0.74505805969E-08  0.10566000000E+00  0.10566000000E+00 0. -1.
     999900   -1    0    0    0    0 -0.00000000000E+00 -0.00000000000E+00 -0.74505805969E-08  0.93827000000E+00  0.93827000000E+00 0.  1.
     999902    2    1    2    0    0 -0.14165090536E-01 -0.14149182539E-04  0.19888987869E-01  0.10195123460E+01  0.10192198986E+01 0.  0.
     999903    2    3    3    0    0  0.10814888336E+00 -0.59843403074E-01  0.30671240178E-01  0.12897514585E+00  0.20407092115E-01 0.  0.
         14    1    1    2    0    0  0.14165090536E-01  0.14149182539E-04 -0.19888987869E-01  0.24417654034E-01  0.00000000000E+00 0. -1.
     999901    1    3    3    0    0 -0.12231397390E+00  0.59829253891E-01 -0.10782252309E-01  0.89053720012E+00  0.88000000000E+00 0.  1.
        -11    1    4    4    0    0  0.89716671308E-01 -0.47799319163E-01  0.32876135499E-01  0.10684080414E+00  0.51100000000E-03 0. -1.
         11    1    4    4    0    0  0.18432212053E-01 -0.12044083910E-01 -0.22048953213E-02  0.22134341706E-01  0.51100000000E-03 0.  1.
</event>
<event>
 8    1  0.1183092E+005  0.1043930E+01  0.7957747E-01            NaN
         13   -1    0    0    0    0  0.00000000000E+00  0.00000000000E+00  0.74505805969E-08  0.10566000000E+00  0.10566000000E+00 0. -1.
     999900   -1    0    0    0    0 -0.00000000000E+00 -0.00000000000E+00 -0.74505805969E-08  0.93827000000E+00  0.93827000000E+00 0. -1.
     999902    2    1    2    0    0 -0.37754065818E-03  0.22242877745E-01  0.78627328291E-02  0.10203352821E+01  0.10200624378E+01 0.  0.
     999903    2    3    3    0    0  0.11808477935E+00  0.31253296601E-02 -0.52332032427E-01  0.13015428267E+00  0.15738896999E-01 0.  0.
         14    1    1    2    0    0  0.37754065818E-03 -0.22242877745E-01 -0.78627328291E-02  0.23594717944E-01  0.00000000000E+00 0. -1.
     999901    1    3    3    0    0 -0.11846232001E+00  0.19117548085E-01  0.60194765256E-01  0.89018099939E+00  0.88000000000E+00 0. -1.
        -11    1    4    4    0    0  0.37253606747E-01 -0.40310684759E-02 -0.10828243551E-01  0.39007598082E-01  0.51100000000E-03 0. -1.
         11    1    4    4    0    0  0.80831172606E-01  0.71563981359E-02 -0.41503788875E-01  0.91146684586E-01  0.51100000000E-03 0.  1.
</event>
<event>
 8    1  0.1183092E+005  0.1043930E+01  0.7957747E-01            NaN
         13   -1    0    0    0    0  0.00000000000E+00  0.00000000000E+00  0.74505805969E-08  0.10566000000E+00  0.10566000000E+00 0.  1.
     999900   -1    0    0    0    0 -0.00000000000E+00 -0.00000000000E+00 -0.74505805969E-08  0.93827000000E+00  0.93827000000E+00 0. -1.
     999902    2    1    2    0    0 -0.21082766671E-01 -0.14540289402E-02  0.54714675742E-02  0.10221003365E+01  0.10218671947E+01 0.  0.
     999903    2    3    3    0    0 -0.63797961864E-01 -0.78649568466E-01  0.85927258141E-01  0.13403678391E+00  0.18067406876E-01 0.  0.
         14    1    1    2    0    0  0.21082766671E-01  0.14540289402E-02 -0.54714675742E-02  0.21829663490E-01  0.00000000000E+00 0. -1.
     999901    1    3    3    0    0  0.42715195193E-01  0.77195539526E-01 -0.80455790566E-01  0.88806355260E+00  0.88000000000E+00 0. -1.
        -11    1    4    4    0    0 -0.28897965790E-01 -0.30455693948E-01  0.46518258309E-01  0.62664592856E-01  0.51100000000E-03 0. -1.
         11    1    4    4    0    0 -0.34899996075E-01 -0.48193874518E-01  0.39408999831E-01  0.71372191054E-01  0.51100000000E-03 0.  1.
</event>
<event>
 8    1  0.1183092E+005  0.1043930E+01  0.7957747E-01            NaN
         13   -1    0    0    0    0  0.00000000000E+00  0.00000000000E+00  0.74505805969E-08  0.10566000000E+00  0.10566000000E+00 0. -1.
     999900   -1    0    0    0    0 -0.00000000000E+00 -0.00000000000E+00 -0.74505805969E-08  0.93827000000E+00  0.93827000000E+00 0.  1.
     999902    2    1    2    0    0  0.17513328834E-01 -0.12243432566E-01 -0.10216397214E-01  0.10202447071E+01  0.10199697394E+01 0.  0.
     999903    2    3    3    0    0  0.12241256257E+00  0.36457808987E-01  0.26215779449E-01  0.13193003106E+00  0.20106185440E-01 0.  0.
         14    1    1    2    0    0 -0.17513328834E-01  0.12243432566E-01  0.10216397214E-01  0.23685292903E-01  0.00000000000E+00 0. -1.
     999901    1    3    3    0    0 -0.10489923373E+00 -0.48701241553E-01 -0.36432176663E-01  0.88831467604E+00  0.88000000000E+00 0.  1.
        -11    1    4    4    0    0  0.55914893279E-01  0.88400789675E-02  0.48426199215E-02  0.56818433411E-01  0.51100000000E-03 0. -1.
         11    1    4    4    0    0  0.66497669288E-01  0.27617730020E-01  0.21373159528E-01  0.75111597649E-01  0.51100000000E-03 0.  1.
</event>
<event>
 8    1  0.1183092E+005  0.1043930E+01  0.7957747E-01            NaN
         13   -1    0    0    0    0  0.00000000000E+00  0.00000000000E+00  0.74505805969E-08  0.10566000000E+00  0.10566000000E+00 0.  1.
     999900   -1    0    0    0    0 -0.00000000000E+00 -0.00000000000E+00 -0.74505805969E-08  0.93827000000E+00  0.93827000000E+00 0.  1.
     999902    2    1    2    0    0 -0.81963642259E-02 -0.15424266660E-01  0.11314160693E-01  0.10231189784E+01  0.10229073004E+01 0.  0.
     999903    2    3    3    0    0 -0.11032884391E+00  0.64750200167E-01 -0.29612054494E-01  0.13265059398E+00  0.18821904576E-01 0.  0.
         14    1    1    2    0    0  0.81963642259E-02  0.15424266660E-01 -0.11314160693E-01  0.20811021616E-01  0.00000000000E+00 0. -1.
     999901    1    3    3    0    0  0.10213247968E+00 -0.80174466827E-01  0.40926215187E-01  0.89046838441E+00  0.88000000000E+00 0. -1.
        -11    1    4    4    0    0 -0.91167679306E-01  0.55231808953E-01 -0.31540269803E-01  0.11116271052E+00  0.51100000000E-03 0.  1.
         11    1    4    4    0    0 -0.19161164601E-01  0.95183912136E-02  0.19282153085E-02  0.21487883456E-01  0.51100000000E-03 0. -1.
</event>
<event>
 8    1  0.1183092E+005  0.1043930E+01  0.7957747E-01            NaN
         13   -1    0    0    0    0  0.00000000000E+00  0.00000000000E+00  0.74505805969E-08  0.10566000000E+00  0.10566000000E+00 0. -1.
     999900   -1    0    0    0    0 -0.00000000000E+00 -0.00000000000E+00 -0.74505805969E-08  0.93827000000E+00  0.93827000000E+00 0. -1.
     999902    2    1    2    0    0 -0.60543783570E-03 -0.11711480418E-01 -0.21900472520E-01  0.10190873748E+01  0.10187845314E+01 0.  0.
     999903    2    3    3    0    0  0.37231900287E-01 -0.12805156196E-01 -0.12533345847E+00  0.13222140815E+00  0.14961234410E-01 0.  0.
         14    1    1    2    0    0  0.60543783570E-03  0.11711480418E-01  0.21900472520E-01  0.24842625166E-01  0.00000000000E+00 0. -1.
     999901    1    3    3    0    0 -0.37837338123E-01  0.10936757787E-02  0.10343298595E+00  0.88686596669E+00  0.88000000000E+00 0.  1.
        -11    1    4    4    0    0  0.15777427720E-01 -0.42219634539E-02 -0.30384750921E-01  0.34499947976E-01  0.51100000000E-03 0. -1.
         11    1    4    4    0    0  0.21454472568E-01 -0.85831927424E-02 -0.94948707554E-01  0.97721460171E-01  0.51100000000E-03 0.  1.
</event>
<event>
 8    1  0.1183092E+005  0.1043930E+01  0.7957747E-01            NaN
         13   -1    0    0    0    0  0.00000000000E+00  0.00000000000E+00  0.74505805969E-08  0.10566000000E+00  0.10566000000E+00 0. -1.
     999900   -1    0    0    0    0 -0.00000000000E+00 -0.00000000000E+00 -0.74505805969E-08  0.93827000000E+00  0.93827000000E+00 0. -1.
     999902    2    1    2    0    0 -0.15880075376E-01 -0.15281782553E-01  0.75846766526E-02  0.10206225550E+01  0.10203563901E+01 0.  0.
     999903    2    3    3    0    0 -0.17833936275E-01  0.86628002951E-01 -0.91801628795E-01  0.12918155323E+00  0.20925450208E-01 0.  0.
         14    1    1    2    0    0  0.15880075376E-01  0.15281782553E-01 -0.75846766526E-02  0.23307444988E-01  0.00000000000E+00 0. -1.
     999901    1    3    3    0    0  0.19538608991E-02 -0.10190978550E+00  0.99386305447E-01  0.89144100179E+00  0.88000000000E+00 0.  1.
        -11    1    4    4    0    0 -0.18570636354E-01  0.73252162340E-01 -0.86244261306E-01  0.11466944471E+00  0.51100000000E-03 0.  1.
         11    1    4    4    0    0  0.73670007850E-03  0.13375840611E-01 -0.55573674891E-02  0.14512108512E-01  0.51100000000E-03 0. -1.
</event>
<event>
 8    1  0.1183092E+005  0.1043930E+01  0.7957747E-01            NaN
         13   -1    0    0    0    0  0.00000000000E+00  0.00000000000E+00  0.74505805969E-08  0.10566000000E+00  0.10566000000E+00 0. -1.
     999900   -1    0    0    0    0 -0.00000000000E+00 -0.00000000000E+00 -0.74505805969E-08  0.93827000000E+00  0.93827000000E+00 0. -1.
     999902    2    1    2    0    0 -0.63811686313E-02 -0.81295966582E-02 -0.20356433481E-01  0.10211003255E+01  0.10208450816E+01 0.  0.
     999903    2    3    3    0    0  0.44589075722E-01 -0.28825711901E-01  0.11579448316E+00  0.12893253458E+00  0.19902984790E-01 0.  0.
         14    1    1    2    0    0  0.63811686313E-02  0.81295966582E-02  0.20356433481E-01  0.22829674527E-01  0.00000000000E+00 0. -1.
     999901    1    3    3    0    0 -0.50970244353E-01  0.20696115243E-01 -0.13615091664E+00  0.89216779089E+00  0.88000000000E+00 0. -1.
        -11    1    4    4    0    0  0.32237237284E-01 -0.15832476632E-01  0.56200282987E-01  0.66698123758E-01  0.51100000000E-03 0. -1.
         11    1    4    4    0    0  0.12351838437E-01 -0.12993235270E-01  0.59594200174E-01  0.62234410827E-01  0.51100000000E-03 0.  1.
</event>
<event>
 8    1  0.1183092E+005  0.1043930E+01  0.7957747E-01            NaN
         13   -1    0    0    0    0  0.00000000000E+00  0.00000000000E+00  0.74505805969E-08  0.10566000000E+00  0.10566000000E+00 0.  1.
     999900   -1    0    0    0    0 -0.00000000000E+00 -0.00000000000E+00 -0.74505805969E-08  0.93827000000E+00  0.93827000000E+00 0. -1.
     999902    2    1    2    0    0 -0.85219634766E-02 -0.16678900096E-01  0.14541470489E-01  0.10202178948E+01  0.10199422968E+01 0.  0.
     999903    2    3    3    0    0 -0.86531093484E-01  0.90723207862E-01 -0.25355536660E-01  0.12936863237E+00  0.19365154730E-01 0.  0.
         14    1    1    2    0    0  0.85219634766E-02  0.16678900096E-01 -0.14541470489E-01  0.23712105219E-01  0.00000000000E+00 0. -1.
     999901    1    3    3    0    0  0.78009130007E-01 -0.10740210796E+00  0.39897007150E-01  0.89084926241E+00  0.88000000000E+00 0.  1.
        -11    1    4    4    0    0 -0.30385329836E-01  0.35091380596E-01 -0.20233530240E-03  0.46421711751E-01  0.51100000000E-03 0.  1.
         11    1    4    4    0    0 -0.56145763648E-01  0.55631827267E-01 -0.25153201358E-01  0.82946920619E-01  0.51100000000E-03 0. -1.
</event>
<event>
 8    1  0.1183092E+005  0.1043930E+01  0.7957747E-01            NaN
         13   -1    0    0    0    0  0.00000000000E+00  0.00000000000E+00  0.74505805969E-08  0.10566000000E+00  0.10566000000E+00 0. -1.
     999900   -1    0    0    0    0 -0.00000000000E+00 -0.00000000000E+00 -0.74505805969E-08  0.93827000000E+00  0.93827000000E+00 0. -1.
     999902    2    1    2    0    0  0.12570073116E-01  0.10791694919E-01 -0.17099854885E-01  0.10201209166E+01  0.10198430330E+01 0.  0.
     999903    2    3    3    0    0  0.30102346078E-02 -0.40703570539E-01  0.11979461047E+00  0.12799802843E+00  0.19154749210E-01 0.  0.
         14    1    1    2    0    0 -0.12570073116E-01 -0.10791694919E-01  0.17099854885E-01  0.23809083444E-01  0.00000000000E+00 0. -1.
     999901    1    3    3    0    0  0.95598385084E-02  0.51495265457E-01 -0.13689446535E+00  0.89212288813E+00  0.88000000000E+00 0. -1.
        -11    1    4    4    0    0 -0.48753207929E-02 -0.29156207410E-01  0.95389897451E-01  0.99866645283E-01  0.51100000000E-03 0.  1.
         11    1    4    4    0    0  0.78855554008E-02 -0.11547363129E-01  0.24404713017E-01  0.28131383145E-01  0.51100000000E-03 0. -1.
</event>
<event>
 8    1  0.1183092E+005  0.1043930E+01  0.7957747E-01            NaN
         13   -1    0    0    0    0  0.00000000000E+00  0.00000000000E+00  0.74505805969E-08  0.10566000000E+00  0.10566000000E+00 0. -1.
     999900   -1    0    0    0    0 -0.00000000000E+00 -0.00000000000E+00 -0.74505805969E-08  0.93827000000E+00  0.93827000000E+00 0. -1.
     999902    2    1    2    0    0 -0.85522731760E-02  0.22200473003E-01  0.19500520678E-02  0.10200594097E+01  0.10197800715E+01 0.  0.
     999903    2    3    3    0    0 -0.80627361247E-01  0.10758358300E-01 -0.10081633651E+00  0.13107871760E+00  0.20029549299E-01 0.  0.
         14    1    1    2    0    0  0.85522731760E-02 -0.22200473003E-01 -0.19500520678E-02  0.23870590296E-01  0.00000000000E+00 0.  1.
     999901    1    3    3    0    0  0.72075088071E-01  0.11442114703E-01  0.10276638858E+00  0.88898069210E+00  0.88000000000E+00 0.  1.
        -11    1    4    4    0    0 -0.13990275974E-01 -0.56805421593E-04 -0.74413858166E-02  0.15854538548E-01  0.51100000000E-03 0. -1.
         11    1    4    4    0    0 -0.66637085273E-01  0.10815163722E-01 -0.93374950696E-01  0.11522417905E+00  0.51100000000E-03 0.  1.
</event>
<event>
 8    1  0.1183092E+005  0.1043930E+01  0.7957747E-01            NaN
         13   -1    0    0    0    0  0.00000000000E+00  0.00000000000E+00  0.74505805969E-08  0.10566000000E+00  0.10566000000E+00 0.  1.
     999900   -1    0    0    0    0 -0.00000000000E+00 -0.00000000000E+00 -0.74505805969E-08  0.93827000000E+00  0.93827000000E+00 0. -1.
     999902    2    1    2    0    0 -0.13034175033E-01 -0.18251403160E-01 -0.86099603704E-02  0.10199063688E+01  0.10196233944E+01 0.  0.
     999903    2    3    3    0    0 -0.68910503091E-01 -0.92205035523E-01  0.61447686987E-01  0.13226940605E+00  0.21655288685E-01 0.  0.
         14    1    1    2    0    0  0.13034175033E-01  0.18251403160E-01  0.86099603704E-02  0.24023631151E-01  0.00000000000E+00 0.  1.
     999901    1    3    3    0    0  0.55876328058E-01  0.73953632363E-01 -0.70057647358E-01  0.88763696280E+00  0.88000000000E+00 0. -1.
        -11    1    4    4    0    0 -0.18843379349E-01 -0.41311045458E-01  0.19113625925E-01  0.49267303956E-01  0.51100000000E-03 0. -1.
         11    1    4    4    0    0 -0.50067123743E-01 -0.50893990065E-01  0.42334061062E-01  0.83002102092E-01  0.51100000000E-03 0.  1.
</event>
<event>
 8    1  0.1183092E+005  0.1043930E+01  0.7957747E-01            NaN
         13   -1    0    0    0    0  0.00000000000E+00  0.00000000000E+00  0.74505805969E-08  0.10566000000E+00  0.10566000000E+00 0.  1.
     999900   -1    0    0    0    0 -0.00000000000E+00 -0.00000000000E+00 -0.74505805969E-08  0.93827000000E+00  0.93827000000E+00 0.  1.
     999902    2    1    2    0    0 -0.13542163367E-01  0.18301356044E-01  0.11617708716E-02  0.10211335193E+01  0.10208790255E+01 0.  0.
     999903    2    3    3    0    0  0.35070813324E-01  0.40186461612E-01 -0.11807739157E+00  0.13149305414E+00  0.22432994526E-01 0.  0.
         14    1    1    2    0    0  0.13542163367E-01 -0.18301356044E-01 -0.11617708716E-02  0.22796480721E-01  0.00000000000E+00 0. -1.
     999901    1    3    3    0    0 -0.48612976692E-01 -0.21885105568E-01  0.11923916244E+00  0.88964046514E+00  0.88000000000E+00 0. -1.
        -11    1    4    4    0    0  0.12683553109E-01  0.92079426711E-02 -0.59617744085E-01  0.61645723765E-01  0.51100000000E-03 0.  1.
         11    1    4    4    0    0  0.22387260215E-01  0.30978518941E-01 -0.58459647486E-01  0.69847330378E-01  0.51100000000E-03 0. -1.
</event>
<event>
 8    1  0.1183092E+005  0.1043930E+01  0.7957747E-01            NaN
         13   -1    0    0    0    0  0.00000000000E+00  0.00000000000E+00  0.74505805969E-08  0.10566000000E+00  0.10566000000E+00 0. -1.
     999900   -1    0    0    0    0 -0.00000000000E+00 -0.00000000000E+00 -0.74505805969E-08  0.93827000000E+00  0.93827000000E+00 0.  1.
     999902    2    1    2    0    0 -0.38582723953E-02  0.16980103059E-01  0.20213529087E-01  0.10172504774E+01  0.10169005541E+01 0.  0.
     999903    2    3    3    0    0  0.48173368802E-02  0.12790455330E+00  0.10975047412E-01  0.13019644899E+00  0.21163226924E-01 0.  0.
         14    1    1    2    0    0  0.38582723953E-02 -0.16980103059E-01 -0.20213529087E-01  0.26679522558E-01  0.00000000000E+00 0.  1.
     999901    1    3    3    0    0 -0.86756092755E-02 -0.11092445024E+00  0.92384816753E-02  0.88705402846E+00  0.88000000000E+00 0. -1.
        -11    1    4    4    0    0  0.10455769346E-01  0.11625320999E+00  0.87328176849E-02  0.11704979783E+00  0.51100000000E-03 0. -1.
         11    1    4    4    0    0 -0.56384324658E-02  0.11651343310E-01  0.22422297268E-02  0.13146651161E-01  0.51100000000E-03 0.  1.
</event>
<event>
 8    1  0.1183092E+005  0.1043930E+01  0.7957747E-01            NaN
         13   -1    0    0    0    0  0.00000000000E+00  0.00000000000E+00  0.74505805969E-08  0.10566000000E+00  0.10566000000E+00 0. -1.
     999900   -1    0    0    0    0 -0.00000000000E+00 -0.00000000000E+00 -0.74505805969E-08  0.93827000000E+00  0.93827000000E+00 0. -1.
     999902    2    1    2    0    0 -0.14272412538E-01 -0.21782479317E-01 -0.41850994536E-02  0.10175540029E+01  0.10172120996E+01 0.  0.
     999903    2    3    3    0    0  0.43624640697E-01  0.35509968335E-02  0.11715469759E+00  0.12698272551E+00  0.21992511353E-01 0.  0.
         14    1    1    2    0    0  0.14272412538E-01  0.21782479317E-01  0.41850994536E-02  0.26375997086E-01  0.00000000000E+00 0. -1.
     999901    1    3    3    0    0 -0.57897053235E-01 -0.25333476150E-01 -0.12133979705E+00  0.89057127740E+00  0.88000000000E+00 0. -1.
        -11    1    4    4    0    0  0.13009006218E-01 -0.86614114734E-02  0.30622593630E-01  0.34383988325E-01  0.51100000000E-03 0.  1.
         11    1    4    4    0    0  0.30615634479E-01  0.12212408307E-01  0.86532103963E-01  0.92598737186E-01  0.51100000000E-03 0. -1.
</event>
<event>
 8    1  0.1183092E+005  0.1043930E+01  0.7957747E-01            NaN
         13   -1    0    0    0    0  0.00000000000E+00  0.00000000000E+00  0.74505805969E-08  0.10566000000E+00  0.10566000000E+00 0.  1.
     999900   -1    0    0    0    0 -0.00000000000E+00 -0.00000000000E+00 -0.74505805969E-08  0.93827000000E+00  0.93827000000E+00 0. -1.
     999902    2    1    2    0    0  0.13125258589E-01  0.19878314047E-01 -0.10492066410E-02  0.10200863296E+01  0.10198076286E+01 0.  0.
     999903    2    3    3    0    0 -0.75229919650E-01  0.10591721110E+00  0.28638124776E-02  0.13147806889E+00  0.20007117719E-01 0.  0.
         14    1    1    2    0    0 -0.13125258589E-01 -0.19878314047E-01  0.10492066410E-02  0.23843670375E-01  0.00000000000E+00 0.  1.
     999901    1    3    3    0    0  0.88355178239E-01 -0.86038897053E-01 -0.39130191186E-02  0.88860826073E+00  0.88000000000E+00 0. -1.
        -11    1    4    4    0    0 -0.36535990635E-01  0.43636880010E-01  0.10078933937E-01  0.57800535801E-01  0.51100000000E-03 0. -1.
         11    1    4    4    0    0 -0.38693929015E-01  0.62280331091E-01 -0.72151214591E-02  0.73677533089E-01  0.51100000000E-03 0.  1.
</event>
<event>
 8    1  0.1183092E+005  0.1043930E+01  0.7957747E-01            NaN
         13   -1    0    0    0    0  0.00000000000E+00  0.00000000000E+00  0.74505805969E-08  0.10566000000E+00  0.10566000000E+00 0. -1.
     999900   -1    0    0    0    0 -0.00000000000E+00 -0.00000000000E+00 -0.74505805969E-08  0.93827000000E+00  0.93827000000E+00 0.  1.
     999902    2    1    2    0    0  0.22098756886E-01 -0.52220266975E-02 -0.10614943284E-01  0.10188640542E+01  0.10185556731E+01 0.  0.
     999903    2    3    3    0    0 -0.10081704449E+00 -0.43076383649E-01 -0.62687484898E-01  0.12799212391E+00  0.20799320429E-01 0.  0.
         14    1    1    2    0    0 -0.22098756886E-01  0.52220266975E-02  0.10614943284E-01  0.25065945816E-01  0.00000000000E+00 0. -1.
     999901    1    3    3    0    0  0.12291580138E+00  0.37854356952E-01  0.52072541614E-01  0.89087193028E+00  0.88000000000E+00 0.  1.
        -11    1    4    4    0    0 -0.37574792475E-01 -0.71074503290E-02 -0.15461310111E-01  0.41251595255E-01  0.51100000000E-03 0. -1.
         11    1    4    4    0    0 -0.63242252017E-01 -0.35968933320E-01 -0.47226174787E-01  0.86740528650E-01  0.51100000000E-03 0.  1.
</event>
<event>
 8    1  0.1183092E+005  0.1043930E+01  0.7957747E-01            NaN
         13   -1    0    0    0    0  0.00000000000E+00  0.00000000000E+00  0.74505805969E-08  0.10566000000E+00  0.10566000000E+00 0. -1.
     999900   -1    0    0    0    0 -0.00000000000E+00 -0.00000000000E+00 -0.74505805969E-08  0.93827000000E+00  0.93827000000E+00 0.  1.
     999902    2    1    2    0    0 -0.15748669735E-01 -0.10984839043E-01 -0.12341178698E-01  0.10211047513E+01  0.10208496075E+01 0.  0.
     999903    2    3    3    0    0  0.10276865756E+00 -0.38644331737E-01 -0.68449499532E-01  0.13095894970E+00  0.20251695482E-01 0.  0.
         14    1    1    2    0    0  0.15748669735E-01  0.10984839043E-01  0.12341178698E-01  0.22825248715E-01  0.00000000000E+00 0.  1.
     999901    1    3    3    0    0 -0.11851732729E+00  0.27659492694E-01  0.56108320834E-01  0.89014580158E+00  0.88000000000E+00 0.  1.
        -11    1    4    4    0    0  0.86288325054E-01 -0.26446558681E-01 -0.61859863920E-01  0.10941663215E+00  0.51100000000E-03 0. -1.
         11    1    4    4    0    0  0.16480332504E-01 -0.12197773056E-01 -0.65896356126E-02  0.21542317551E-01  0.51100000000E-03 0.  1.
</event>
<event>
 8    1  0.1183092E+005  0.1043930E+01  0.7957747E-01            NaN
         13   -1    0    0    0    0  0.00000000000E+00  0.00000000000E+00  0.74505805969E-08  0.10566000000E+00  0.10566000000E+00 0. -1.
     999900   -1    0    0    0    0 -0.00000000000E+00 -0.00000000000E+00 -0.74505805969E-08  0.93827000000E+00  0.93827000000E+00 0.  1.
     999902    2    1    2    0    0  0.22291882396E-01  0.70258159123E-02 -0.14079889691E-02  0.10205147797E+01  0.10202461188E+01 0.  0.
     999903    2    3    3    0    0 -0.33665241323E-01  0.61073133291E-01 -0.10914378967E+00  0.13053763673E+00  0.16261355948E-01 0.  0.
         14    1    1    2    0    0 -0.22291882396E-01 -0.70258159123E-02  0.14079889691E-02  0.23415220326E-01  0.00000000000E+00 0. -1.
     999901    1    3    3    0    0  0.55957123719E-01 -0.54047317379E-01  0.10773580070E+00  0.88997714294E+00  0.88000000000E+00 0. -1.
        -11    1    4    4    0    0 -0.12980181852E-01  0.12885858930E-01 -0.19956249134E-01  0.27074775748E-01  0.51100000000E-03 0. -1.
         11    1    4    4    0    0 -0.20685059471E-01  0.48187274361E-01 -0.89187540532E-01  0.10346286098E+00  0.51100000000E-03 0.  1.
</event>
<event>
 8    1  0.1183092E+005  0.1043930E+01  0.7957747E-01            NaN
         13   -1    0    0    0    0  0.00000000000E+00  0.00000000000E+00  0.74505805969E-08  0.10566000000E+00  0.10566000000E+00 0.  1.
     999900   -1    0    0    0    0 -0.00000000000E+00 -0.00000000000E+00 -0.74505805969E-08  0.93827000000E+00  0.93827000000E+00 0. -1.
     999902    2    1    2    0    0 -0.10433985087E-01 -0.31255087633E-02 -0.21201404408E-01  0.10200943880E+01  0.10198158775E+01 0.  0.
     999903    2    3    3    0    0  0.46341273286E-02 -0.10292043848E+00 -0.80667040828E-01  0.13233189842E+00  0.19760264949E-01 0.  0.
         14    1    1    2    0    0  0.10433985087E-01  0.31255087633E-02  0.21201404408E-01  0.23835611985E-01  0.00000000000E+00 0.  1.
     999901    1    3    3    0    0 -0.15068112415E-01  0.99794929720E-01  0.59465636419E-01  0.88776248959E+00  0.88000000000E+00 0. -1.
        -11    1    4    4    0    0  0.50758533716E-02 -0.88002754755E-02 -0.39773631923E-02  0.10921981270E-01  0.51100000000E-03 0. -1.
         11    1    4    4    0    0 -0.44172604306E-03 -0.94120163008E-01 -0.76689677636E-01  0.12140991715E+00  0.51100000000E-03 0.  1.
</event>
<event>
 8    1  0.1183092E+005  0.1043930E+01  0.7957747E-01            NaN
         13   -1    0    0    0    0  0.00000000000E+00  0.00000000000E+00  0.74505805969E-08  0.10566000000E+00  0.10566000000E+00 0.  1.
     999900   -1    0    0    0    0 -0.00000000000E+00 -0.00000000000E+00 -0.74505805969E-08  0.93827000000E+00  0.93827000000E+00 0. -1.
     999902    2    1    2    0    0  0.15544398932E-01  0.30267596113E-02  0.18205513538E-01  0.10198005505E+01  0.10195150476E+01 0.  0.
     999903    2    3    3    0    0  0.89157864574E-01 -0.34251500178E-01  0.90764355110E-01  0.13296719719E+00  0.17883436221E-01 0.  0.
         14    1    1    2    0    0 -0.15544398932E-01 -0.30267596113E-02 -0.18205513538E-01  0.24129449540E-01  0.00000000000E+00 0. -1.
     999901    1    3    3    0    0 -0.73613465642E-01  0.37278259789E-01 -0.72558841572E-01  0.88683335327E+00  0.88000000000E+00 0. -1.
        -11    1    4    4    0    0  0.38569219360E-01 -0.22620474393E-01  0.49042497640E-01  0.66367900672E-01  0.51100000000E-03 0. -1.
         11    1    4    4    0    0  0.50588645214E-01 -0.11631025785E-01  0.41721857469E-01  0.66599296521E-01  0.51100000000E-03 0.  1.
</event>
<event>
 8    1  0.1183092E+005  0.1043930E+01  0.7957747E-01            NaN
         13   -1    0    0    0    0  0.00000000000E+00  0.00000000000E+00  0.74505805969E-08  0.10566000000E+00  0.10566000000E+00 0. -1.
     999900   -1    0    0    0    0 -0.00000000000E+00 -0.00000000000E+00 -0.74505805969E-08  0.93827000000E+00  0.93827000000E+00 0.  1.
     999902    2    1    2    0    0 -0.89688741474E-02 -0.79881869614E-04  0.22330233120E-01  0.10198657860E+01  0.10195818432E+01 0.  0.
     999903    2    3    3    0    0  0.12248290154E+00  0.35598626807E-01  0.32083288059E-02  0.12918168232E+00  0.20206193942E-01 0.  0.
         14    1    1    2    0    0  0.89688741474E-02  0.79881869614E-04 -0.22330233120E-01  0.24064214007E-01  0.00000000000E+00 0.  1.
     999901    1    3    3    0    0 -0.13145177568E+00 -0.35678508677E-01  0.19121904314E-01  0.89068410367E+00  0.88000000000E+00 0.  1.
        -11    1    4    4    0    0  0.33142017353E-01  0.99517335615E-02  0.98845560828E-02  0.35991608537E-01  0.51100000000E-03 0. -1.
         11    1    4    4    0    0  0.89340884184E-01  0.25646893246E-01 -0.66762272769E-02  0.93190073783E-01  0.51100000000E-03 0.  1.
</event>
<event>
 8    1  0.1183092E+005  0.1043930E+01  0.7957747E-01            NaN
         13   -1    0    0    0    0  0.00000000000E+00  0.00000000000E+00  0.74505805969E-08  0.10566000000E+00  0.10566000000E+00 0.  1.
     999900   -1    0    0    0    0 -0.00000000000E+00 -0.00000000000E+00 -0.74505805969E-08  0.93827000000E+00  0.93827000000E+00 0.  1.
     999902    2    1    2    0    0 -0.27215536068E-02  0.13539274971E-01 -0.19112376540E-01  0.10203503105E+01  0.10200778178E+01 0.  0.
     999903    2    3    3    0    0 -0.21429713971E-01 -0.11266749863E+00  0.53291097762E-01  0.12820659557E+00  0.21066375090E-01 0.  0.
         14    1    1    2    0    0  0.27215536068E-02 -0.13539274971E-01  0.19112376540E-01  0.23579689518E-01  0.00000000000E+00 0.  1.
     999901    1    3    3    0    0  0.18708160364E-01  0.12620677360E+00 -0.72403474302E-01  0.89214371491E+00  0.88000000000E+00 0. -1.
        -11    1    4    4    0    0 -0.24029130382E-01 -0.83000812740E-01  0.44239003998E-01  0.97076694516E-01  0.51100000000E-03 0.  1.
         11    1    4    4    0    0  0.25994164104E-02 -0.29666685886E-01  0.90520937644E-02  0.31129901054E-01  0.51100000000E-03 0. -1.
</event>
<event>
 8    1  0.1183092E+005  0.1043930E+01  0.7957747E-01            NaN
         13   -1    0    0    0    0  0.00000000000E+00  0.00000000000E+00  0.74505805969E-08  0.10566000000E+00  0.10566000000E+00 0. -1.
     999900   -1    0    0    0    0 -0.00000000000E+00 -0.00000000000E+00 -0.74505805969E-08  0.93827000000E+00  0.93827000000E+00 0. -1.
     999902    2    1    2    0    0  0.29535374749E-02  0.23315726857E-01 -0.46416451256E-02  0.10199739700E+01  0.10196926047E+01 0.  0.
     999903    2    3    3    0    0  0.39220098841E-01  0.70229833949E-01 -0.10334061435E+00  0.13247316246E+00  0.19985256228E-01 0.  0.
         14    1    1    2    0    0 -0.29535374749E-02 -0.23315726857E-01  0.46416451256E-02  0.23956029971E-01  0.00000000000E+00 0. -1.
     999901    1    3    3    0    0 -0.36266561366E-01 -0.46914107092E-01  0.98698969228E-01  0.88750080757E+00  0.88000000000E+00 0.  1.
        -11    1    4    4    0    0  0.34343119206E-01  0.53978414349E-01 -0.68586282467E-01  0.93794766997E-01  0.51100000000E-03 0.  1.
         11    1    4    4    0    0  0.48769796354E-02  0.16251419600E-01 -0.34754331887E-01  0.38678395459E-01  0.51100000000E-03 0. -1.
</event>
<event>
 8    1  0.1183092E+005  0.1043930E+01  0.7957747E-01            NaN
         13   -1    0    0    0    0  0.00000000000E+00  0.00000000000E+00  0.74505805969E-08  0.10566000000E+00  0.10566000000E+00 0. -1.
     999900   -1    0    0    0    0 -0.00000000000E+00 -0.00000000000E+00 -0.74505805969E-08  0.93827000000E+00  0.93827000000E+00 0. -1.
     999902    2    1    2    0    0 -0.80195734073E-02  0.16525032109E-01 -0.16737092128E-01  0.10190800403E+01  0.10187770159E+01 0.  0.
     999903    2    3    3    0    0 -0.30517170063E-01 -0.23907112336E-01  0.11961506631E+00  0.12737784155E+00  0.20359340342E-01 0.  0.
         14    1    1    2    0    0  0.80195734073E-02 -0.16525032109E-01  0.16737092128E-01  0.24849959693E-01  0.00000000000E+00 0. -1.
     999901    1    3    3    0    0  0.22497596656E-01  0.40432144445E-01 -0.13635215844E+00  0.89170219876E+00  0.88000000000E+00 0. -1.
        -11    1    4    4    0    0 -0.10836876309E-01 -0.11192836775E-01  0.78677199542E-01  0.80206485598E-01  0.51100000000E-03 0.  1.
         11    1    4    4    0    0 -0.19680293754E-01 -0.12714275562E-01  0.40937866773E-01  0.47171355950E-01  0.51100000000E-03 0. -1.
</event>
<event>
 8    1  0.1183092E+005  0.1043930E+01  0.7957747E-01            NaN
         13   -1    0    0    0    0  0.00000000000E+00  0.00000000000E+00  0.74505805969E-08  0.10566000000E+00  0.10566000000E+00 0.  1.
     999900   -1    0    0    0    0 -0.00000000000E+00 -0.00000000000E+00 -0.74505805969E-08  0.93827000000E+00  0.93827000000E+00 0. -1.
     999902    2    1    2    0    0  0.92792738689E-02  0.17047146103E-01  0.13455728776E-01  0.10203129140E+01  0.10200395462E+01 0.  0.
     999903    2    3    3    0    0 -0.86530705477E-01 -0.16513025438E-01  0.94406216073E-01  0.13078561333E+00  0.20787015708E-01 0.  0.
         14    1    1    2    0    0 -0.92792738689E-02 -0.17047146103E-01 -0.13455728776E-01  0.23617085991E-01  0.00000000000E+00 0. -1.
     999901    1    3    3    0    0  0.95809979346E-01  0.33560171542E-01 -0.80950487297E-01  0.88952730068E+00  0.88000000000E+00 0. -1.
        -11    1    4    4    0    0 -0.29081742897E-01 -0.14512007149E-01  0.40977866675E-01  0.52304806659E-01  0.51100000000E-03 0.  1.
         11    1    4    4    0    0 -0.57448962580E-01 -0.20010182896E-02  0.53428349398E-01  0.78480806673E-01  0.51100000000E-03 0. -1.
</event>
<event>
 8    1  0.1183092E+005  0.1043930E+01  0.7957747E-01            NaN
         13   -1    0    0    0    0  0.00000000000E+00  0.00000000000E+00  0.74505805969E-08  0.10566000000E+00  0.10566000000E+00 0.  1.
     999900   -1    0    0    0    0 -0.00000000000E+00 -0.00000000000E+00 -0.74505805969E-08  0.93827000000E+00  0.93827000000E+00 0.  1.
     999902    2    1    2    0    0  0.22243971667E-01  0.30904914952E-03 -0.63915015768E-02  0.10207839187E+01  0.10205214685E+01 0.  0.
     999903    2    3    3    0    0 -0.18945097637E-02 -0.52370992195E-01  0.11757487700E+00  0.13020797244E+00  0.19594754287E-01 0.  0.
         14    1    1    2    0    0 -0.22243971667E-01 -0.30904914952E-03  0.63915015768E-02  0.23146081295E-01  0.00000000000E+00 0.  1.
     999901    1    3    3    0    0  0.24138481431E-01  0.52680041345E-01 -0.12396637858E+00  0.89057594626E+00  0.88000000000E+00 0.  1.
        -11    1    4    4    0    0  0.83201924286E-02 -0.32675201695E-01  0.68669412810E-01  0.76502573712E-01  0.51100000000E-03 0.  1.
         11    1    4    4    0    0 -0.10214702192E-01 -0.19695790500E-01  0.48905464191E-01  0.53705398732E-01  0.51100000000E-03 0. -1.
</event>
<event>
 8    1  0.1183092E+005  0.1043930E+01  0.7957747E-01            NaN
         13   -1    0    0    0    0  0.00000000000E+00  0.00000000000E+00  0.74505805969E-08  0.10566000000E+00  0.10566000000E+00 0.  1.
     999900   -1    0    0    0    0 -0.00000000000E+00 -0.00000000000E+00 -0.74505805969E-08  0.93827000000E+00  0.93827000000E+00 0. -1.
     999902    2    1    2    0    0 -0.55392678703E-02 -0.83789783792E-02  0.20041894046E-01  0.10215119652E+01  0.10212659432E+01 0.  0.
     999903    2    3    3    0    0 -0.60858155681E-01 -0.10698469524E+00  0.48664072835E-01  0.13381691854E+00  0.19731588253E-01 0.  0.
         14    1    1    2    0    0  0.55392678703E-02  0.83789783792E-02 -0.20041894046E-01  0.22418034797E-01  0.00000000000E+00 0. -1.
     999901    1    3    3    0    0  0.55318887811E-01  0.98605716860E-01 -0.28622178789E-01  0.88769504666E+00  0.88000000000E+00 0. -1.
        -11    1    4    4    0    0 -0.85389580558E-02 -0.32383207873E-01  0.14593157476E-01  0.36535015026E-01  0.51100000000E-03 0.  1.
         11    1    4    4    0    0 -0.52319197625E-01 -0.74601487366E-01  0.34070915359E-01  0.97281903517E-01  0.51100000000E-03 0. -1.
</event>
<event>
 8    1  0.1183092E+005  0.1043930E+01  0.7957747E-01            NaN
         13   -1    0    0    0    0  0.00000000000E+00  0.00000000000E+00  0.74505805969E-08  0.10566000000E+00  0.10566000000E+00 0. -1.
     999900   -1    0    0    0    0 -0.00000000000E+00 -0.00000000000E+00 -0.74505805969E-08  0.93827000000E+00  0.93827000000E+00 0.  1.
     999902    2    1    2    0    0  0.24443634660E-03  0.20468185065E-01  0.12980905693E-01  0.10196913890E+01  0.10194032659E+01 0.  0.
     999903    2    3    3    0    0 -0.20176627159E-01 -0.12319431979E+00  0.18791655428E-01  0.12778909621E+00  0.19823977477E-01 0.  0.
         14    1    1    2    0    0 -0.24443634660E-03 -0.20468185065E-01 -0.12980905693E-01  0.24238610967E-01  0.00000000000E+00 0. -1.
     999901    1    3    3    0    0  0.20421063505E-01  0.14366250486E+00 -0.58107497350E-02  0.89190229283E+00  0.88000000000E+00 0.  1.
        -11    1    4    4    0    0  0.35847204695E-02 -0.24693453018E-01  0.15551985565E-02  0.25005931423E-01  0.51100000000E-03 0. -1.
         11    1    4    4    0    0 -0.23761347628E-01 -0.98500866775E-01  0.17236456871E-01  0.10278316478E+00  0.51100000000E-03 0.  1.
</event>
<event>
 8    1  0.1183092E+005  0.1043930E+01  0.7957747E-01            NaN
         13   -1    0    0    0    0  0.00000000000E+00  0.00000000000E+00  0.74505805969E-08  0.10566000000E+00  0.10566000000E+00 0.  1.
     999900   -1    0    0    0    0 -0.00000000000E+00 -0.00000000000E+00 -0.74505805969E-08  0.93827000000E+00  0.93827000000E+00 0.  1.
     999902    2    1    2    0    0  0.10362793402E-01  0.12652041456E-01  0.19167820455E-01  0.10187334331E+01  0.10184217893E+01 0.  0.
     999903    2    3    3    0    0  0.43532978266E-01 -0.82790565288E-01  0.88352315503E-01  0.13025380665E+00  0.20261406540E-01 0.  0.
         14    1    1    2    0    0 -0.10362793402E-01 -0.12652041456E-01 -0.19167820455E-01  0.25196566851E-01  0.00000000000E+00 0. -1.
     999901    1    3    3    0    0 -0.33170184865E-01  0.95442606744E-01 -0.69184495048E-01  0.88847962650E+00  0.88000000000E+00 0. -1.
        -11    1    4    4    0    0  0.19645338769E-02 -0.21403712327E-01  0.17830990386E-01  0.27931767468E-01  0.51100000000E-03 0. -1.
         11    1    4    4    0    0  0.41568444389E-01 -0.61386852961E-01  0.70521325117E-01  0.10232203918E+00  0.51100000000E-03 0.  1.
</event>
<event>
 8    1  0.1183092E+005  0.1043930E+01  0.7957747E-01            NaN
         13   -1    0    0    0    0  0.00000000000E+00  0.00000000000E+00  0.74505805969E-08  0.10566000000E+00  0.10566000000E+00 0.  1.
     999900   -1    0    0    0    0 -0.00000000000E+00 -0.00000000000E+00 -0.74505805969E-08  0.93827000000E+00  0.93827000000E+00 0.  1.
     999902    2    1    2    0    0 -0.53597006483E-02  0.97912373136E-03  0.22787470021E-01  0.10205002355E+01  0.10202312369E+01 0.  0.
     999903    2    3    3    0    0  0.90381558161E-01  0.58956510230E-01  0.73245987669E-01  0.13197683796E+00  0.20204328593E-01 0.  0.
         14    1    1    2    0    0  0.53597006483E-02 -0.97912373136E-03 -0.22787470021E-01  0.23429764494E-01  0.00000000000E+00 0. -1.
     999901    1    3    3    0    0 -0.95741258810E-01 -0.57977386499E-01 -0.50458517648E-01  0.88852339755E+00  0.88000000000E+00 0.  1.
        -11    1    4    4    0    0  0.76150063584E-01  0.57218435894E-01  0.60964663173E-01  0.11309170114E+00  0.51100000000E-03 0. -1.
         11    1    4    4    0    0  0.14231494578E-01  0.17380743369E-02  0.12281324496E-01  0.18885136819E-01  0.51100000000E-03 0.  1.
</event>
<event>
 8    1  0.1183092E+005  0.1043930E+01  0.7957747E-01            NaN
         13   -1    0    0    0    0  0.00000000000E+00  0.00000000000E+00  0.74505805969E-08  0.10566000000E+00  0.10566000000E+00 0.  1.
     999900   -1    0    0    0    0 -0.00000000000E+00 -0.00000000000E+00 -0.74505805969E-08  0.93827000000E+00  0.93827000000E+00 0.  1.
     999902    2    1    2    0    0 -0.20144985795E-01 -0.60707611156E-02  0.98826521598E-02  0.10206847552E+01  0.10204200253E+01 0.  0.
     999903    2    3    3    0    0 -0.98500687054E-01  0.15180083888E-01 -0.84174218591E-01  0.13195650128E+00  0.19859477803E-01 0.  0.
         14    1    1    2    0    0  0.20144985795E-01  0.60707611156E-02 -0.98826521598E-02  0.23245244823E-01  0.00000000000E+00 0. -1.
     999901    1    3    3    0    0  0.78355701259E-01 -0.21250845003E-01  0.94056870750E-01  0.88872825389E+00  0.88000000000E+00 0. -1.
        -11    1    4    4    0    0 -0.62131184790E-01  0.17047137866E-01 -0.45793221994E-01  0.79045362510E-01  0.51100000000E-03 0. -1.
         11    1    4    4    0    0 -0.36369502264E-01 -0.18670539777E-02 -0.38380996596E-01  0.52911138773E-01  0.51100000000E-03 0.  1.
</event>
<event>
 8    1  0.1183092E+005  0.1043930E+01  0.7957747E-01            NaN
         13   -1    0    0    0    0  0.00000000000E+00  0.00000000000E+00  0.74505805969E-08  0.10566000000E+00  0.10566000000E+00 0.  1.
     999900   -1    0    0    0    0 -0.00000000000E+00 -0.00000000000E+00 -0.74505805969E-08  0.93827000000E+00  0.93827000000E+00 0. -1.
     999902    2    1    2    0    0 -0.53919559630E-02  0.22305886001E-01  0.29410400272E-02  0.10207939793E+01  0.10205317597E+01 0.  0.
     999903    2    3    3    0    0 -0.10227544035E+00 -0.78691698805E-02  0.79865775751E-01  0.13162900103E+00  0.20626736096E-01 0.  0.
         14    1    1    2    0    0  0.53919559630E-02 -0.22305886001E-01 -0.29410400272E-02  0.23136020743E-01  0.00000000000E+00 0.  1.
     999901    1    3    3    0    0  0.96883484385E-01  0.30175055881E-01 -0.76924735724E-01  0.88916497823E+00  0.88000000000E+00 0. -1.
        -11    1    4    4    0    0 -0.59376711682E-01 -0.86128396386E-02  0.34615495756E-01  0.69269535614E-01  0.51100000000E-03 0.  1.
         11    1    4    4    0    0 -0.42898728666E-01  0.74366975813E-03  0.45250279996E-01  0.62359465413E-01  0.51100000000E-03 0. -1.
</event>
<event>
 8    1  0.1183092E+005  0.1043930E+01  0.7957747E-01            NaN
         13   -1    0    0    0    0  0.00000000000E+00  0.00000000000E+00  0.74505805969E-08  0.10566000000E+00  0.10566000000E+00 0.  1.
     999900   -1    0    0    0    0 -0.00000000000E+00 -0.00000000000E+00 -0.74505805969E-08  0.93827000000E+00  0.93827000000E+00 0. -1.
     999902    2    1    2    0    0 -0.24774886430E-02 -0.22895253605E-01  0.76672876340E-02  0.10196582492E+01  0.10193693282E+01 0.  0.
     999903    2    3    3    0    0 -0.30850125373E-01 -0.71158274307E-02  0.12570905778E+00  0.13118323193E+00  0.20097459929E-01 0.  0.
         14    1    1    2    0    0  0.24774886430E-02  0.22895253605E-01 -0.76672876340E-02  0.24271750808E-01  0.00000000000E+00 0. -1.
     999901    1    3    3    0    0  0.28372636730E-01 -0.15779426175E-01 -0.11804177014E+00  0.88847501727E+00  0.88000000000E+00 0. -1.
        -11    1    4    4    0    0 -0.18109999717E-02 -0.81933235904E-02  0.26066840748E-01  0.27388895194E-01  0.51100000000E-03 0.  1.
         11    1    4    4    0    0 -0.29039125402E-01  0.10774961597E-02  0.99642217030E-01  0.10379433673E+00  0.51100000000E-03 0. -1.
</event>
<event>
 8    1  0.1183092E+005  0.1043930E+01  0.7957747E-01            NaN
         13   -1    0    0    0    0  0.00000000000E+00  0.00000000000E+00  0.74505805969E-08  0.10566000000E+00  0.10566000000E+00 0.  1.
     999900   -1    0    0    0    0 -0.00000000000E+00 -0.00000000000E+00 -0.74505805969E-08  0.93827000000E+00  0.93827000000E+00 0.  1.
     999902    2    1    2    0    0 -0.55392079998E-02 -0.14751660814E-02  0.23284707015E-01  0.10199500809E+01  0.10196681475E+01 0.  0.
     999903    2    3    3    0    0  0.12255654074E+00  0.32345204853E-02 -0.34585824818E-01  0.12878247574E+00  0.18925617023E-01 0.  0.
         14    1    1    2    0    0  0.55392079998E-02  0.14751660814E-02 -0.23284707015E-01  0.23979919120E-01  0.00000000000E+00 0. -1.
     999901    1    3    3    0    0 -0.12809574874E+00 -0.47096865667E-02  0.57870531832E-01  0.89116760514E+00  0.88000000000E+00 0. -1.
        -11    1    4    4    0    0  0.28067923782E-01 -0.67778334790E-02 -0.10790859907E-01  0.30829387775E-01  0.51100000000E-03 0. -1.
         11    1    4    4    0    0  0.94488616956E-01  0.10012353964E-01 -0.23794964911E-01  0.97953087967E-01  0.51100000000E-03 0.  1.
</event>
<event>
 8    1  0.1183092E+005  0.1043930E+01  0.7957747E-01            NaN
         13   -1    0    0    0    0  0.00000000000E+00  0.00000000000E+00  0.74505805969E-08  0.10566000000E+00  0.10566000000E+00 0.  1.
     999900   -1    0    0    0    0 -0.00000000000E+00 -0.00000000000E+00 -0.74505805969E-08  0.93827000000E+00  0.93827000000E+00 0. -1.
     999902    2    1    2    0    0  0.21966350767E-01 -0.73647938959E-02 -0.44466508300E-02  0.10203390386E+01  0.10200662823E+01 0.  0.
     999903    2    3    3    0    0  0.84930191664E-01  0.94896731054E-01 -0.29567625645E-01  0.13182740216E+00  0.16902439294E-01 0.  0.
         14    1    1    2    0    0 -0.21966350767E-01  0.73647938959E-02  0.44466508300E-02  0.23590961378E-01  0.00000000000E+00 0. -1.
     999901    1    3    3    0    0 -0.62963840898E-01 -0.10226152495E+00  0.25120974815E-01  0.88851163646E+00  0.88000000000E+00 0.  1.
        -11    1    4    4    0    0  0.29032345470E-01  0.44323933364E-01 -0.96663543747E-02  0.53862674276E-01  0.51100000000E-03 0. -1.
         11    1    4    4    0    0  0.55897846194E-01  0.50572797691E-01 -0.19901271270E-01  0.77964727888E-01  0.51100000000E-03 0.  1.
</event>
<event>
 8    1  0.1183092E+005  0.1043930E+01  0.7957747E-01            NaN
         13   -1    0    0    0    0  0.00000000000E+00  0.00000000000E+00  0.74505805969E-08  0.10566000000E+00  0.10566000000E+00 0.  1.
     999900   -1    0    0    0    0 -0.00000000000E+00 -0.00000000000E+00 -0.74505805969E-08  0.93827000000E+00  0.93827000000E+00 0. -1.
     999902    2    1    2    0    0  0.74245287341E-02  0.74721765325E-02 -0.23088434514E-01  0.10185521975E+01  0.10182359973E+01 0.  0.
     999903    2    3    3    0    0  0.73236475068E-01  0.10582473835E+00  0.38997276334E-02  0.13022072811E+00  0.19487781439E-01 0.  0.
         14    1    1    2    0    0 -0.74245287341E-02 -0.74721765325E-02  0.23088434514E-01  0.25377802454E-01  0.00000000000E+00 0.  1.
     999901    1    3    3    0    0 -0.65811946334E-01 -0.98352561822E-01 -0.26988162148E-01  0.88833146944E+00  0.88000000000E+00 0.  1.
        -11    1    4    4    0    0  0.63156105627E-01  0.83603327770E-01 -0.31211924488E-02  0.10482467770E+00  0.51100000000E-03 0. -1.
         11    1    4    4    0    0  0.10080369441E-01  0.22221410584E-01  0.70209200822E-02  0.25396050406E-01  0.51100000000E-03 0.  1.
</event>
<event>
 8    1  0.1183092E+005  0.1043930E+01  0.7957747E-01            NaN
         13   -1    0    0    0    0  0.00000000000E+00  0.00000000000E+00  0.74505805969E-08  0.10566000000E+00  0.10566000000E+00 0.  1.
     999900   -1    0    0    0    0 -0.00000000000E+00 -0.00000000000E+00 -0.74505805969E-08  0.93827000000E+00  0.93827000000E+00 0.  1.
     999902    2    1    2    0    0 -0.21977496419E-01 -0.77647805179E-02 -0.91287144673E-03  0.10206032879E+01  0.10203366776E+01 0.  0.
     999903    2    3    3    0    0  0.10685344465E+00  0.30977455370E-02 -0.68598299828E-01  0.12858494552E+00  0.20027651203E-01 0.  0.
         14    1    1    2    0    0  0.21977496419E-01  0.77647805179E-02  0.91287144673E-03  0.23326712147E-01  0.00000000000E+00 0.  1.
     999901    1    3    3    0    0 -0.12883094107E+00 -0.10862526055E-01  0.67685428381E-01  0.89201834234E+00  0.88000000000E+00 0. -1.
        -11    1    4    4    0    0  0.90732775948E-01  0.12333468055E-02 -0.48974017528E-01  0.10311485484E+00  0.51100000000E-03 0.  1.
         11    1    4    4    0    0  0.16120668704E-01  0.18643987315E-02 -0.19624282300E-01  0.25470090673E-01  0.51100000000E-03 0. -1.
</event>
<event>
 8    1  0.1183092E+005  0.1043930E+01  0.7957747E-01            NaN
         13   -1    0    0    0    0  0.00000000000E+00  0.00000000000E+00  0.74505805969E-08  0.10566000000E+00  0.10566000000E+00 0. -1.
     999900   -1    0    0    0    0 -0.00000000000E+00 -0.00000000000E+00 -0.74505805969E-08  0.93827000000E+00  0.93827000000E+00 0. -1.
     999902    2    1    2    0    0 -0.27215015798E-02 -0.16715211091E-01 -0.16876252382E-01  0.10200215758E+01  0.10197413409E+01 0.  0.
     999903    2    3    3    0    0 -0.29292651212E-01 -0.10251396816E+00  0.73447484037E-01  0.13085014686E+00  0.18975113674E-01 0.  0.
         14    1    1    2    0    0  0.27215015798E-02  0.16715211091E-01  0.16876252382E-01  0.23908424187E-01  0.00000000000E+00 0. -1.
     999901    1    3    3    0    0  0.26571149632E-01  0.85798757068E-01 -0.90323736419E-01  0.88917142895E+00  0.88000000000E+00 0.  1.
        -11    1    4    4    0    0 -0.26307256191E-01 -0.99143915176E-01  0.65509783864E-01  0.12171023189E+00  0.51100000000E-03 0. -1.
         11    1    4    4    0    0 -0.29853950210E-02 -0.33700529830E-02  0.79377001723E-02  0.91399149648E-02  0.51100000000E-03 0.  1.
</event>
<event>
 8    1  0.1183092E+005  0.1043930E+01  0.7957747E-01            NaN
         13   -1    0    0    0    0  0.00000000000E+00  0.00000000000E+00  0.74505805969E-08  0.10566000000E+00  0.10566000000E+00 0.  1.
     999900   -1    0    0    0    0 -0.00000000000E+00 -0.00000000000E+00 -0.74505805969E-08  0.93827000000E+00  0.93827000000E+00 0. -1.
     999902    2    1    2    0    0 -0.80733214378E-02  0.41986202043E-02 -0.27061805625E-01  0.10153791987E+01  0.10149777184E+01 0.  0.
     999903    2    3    3    0    0  0.10960173420E+00 -0.56223882093E-01  0.48458611215E-02  0.12492066700E+00  0.20199643914E-01 0.  0.
         14    1    1    2    0    0  0.80733214378E-02 -0.41986202043E-02  0.27061805625E-01  0.28550801291E-01  0.00000000000E+00 0.  1.
     999901    1    3    3    0    0 -0.11767505564E+00  0.60422502298E-01 -0.31907666747E-01  0.89045853171E+00  0.88000000000E+00 0.  1.
        -11    1    4    4    0    0  0.33465504599E-01 -0.24257580868E-01  0.87525890362E-02  0.42252090640E-01  0.51100000000E-03 0. -1.
         11    1    4    4    0    0  0.76136229606E-01 -0.31966301225E-01 -0.39067279146E-02  0.82668576356E-01  0.51100000000E-03 0.  1.
</event>
<event>
 8    1  0.1183092E+005  0.1043930E+01  0.7957747E-01            NaN
         13   -1    0    0    0    0  0.00000000000E+00  0.00000000000E+00  0.74505805969E-08  0.10566000000E+00  0.10566000000E+00 0.  1.
     999900   -1    0    0    0    0 -0.00000000000E+00 -0.00000000000E+00 -0.74505805969E-08  0.93827000000E+00  0.93827000000E+00 0. -1.
     999902    2    1    2    0    0 -0.36283034166E-02  0.75220915690E-03 -0.23241169878E-01  0.10203952941E+01  0.10201238522E+01 0.  0.
     999903    2    3    3    0    0  0.62530379178E-01 -0.90786170853E-01  0.64336895188E-01  0.12886505694E+00  0.17742313252E-01 0.  0.
         14    1    1    2    0    0  0.36283034166E-02 -0.75220915690E-03  0.23241169878E-01  0.23534705896E-01  0.00000000000E+00 0.  1.
     999901    1    3    3    0    0 -0.66158682595E-01  0.91538380010E-01 -0.87578065066E-01  0.89153023716E+00  0.88000000000E+00 0. -1.
        -11    1    4    4    0    0  0.25099163213E-01 -0.50151631746E-01  0.27518970503E-01  0.62471665732E-01  0.51100000000E-03 0. -1.
         11    1    4    4    0    0  0.37431215965E-01 -0.40634539107E-01  0.36817924685E-01  0.66393391208E-01  0.51100000000E-03 0.  1.
</event>
<event>
 8    1  0.1183092E+005  0.1043930E+01  0.7957747E-01            NaN
         13   -1    0    0    0    0  0.00000000000E+00  0.00000000000E+00  0.74505805969E-08  0.10566000000E+00  0.10566000000E+00 0. -1.
     999900   -1    0    0    0    0 -0.00000000000E+00 -0.00000000000E+00 -0.74505805969E-08  0.93827000000E+00  0.93827000000E+00 0. -1.
     999902    2    1    2    0    0 -0.13384728966E-01  0.17108194496E-01 -0.10285055676E-01  0.10198961976E+01  0.10196129806E+01 0.  0.
     999903    2    3    3    0    0 -0.74442430401E-01 -0.77904036164E-01 -0.71055716881E-01  0.13059959906E+00  0.19915473346E-01 0.  0.
         14    1    1    2    0    0  0.13384728966E-01 -0.17108194496E-01  0.10285055676E-01  0.24033802418E-01  0.00000000000E+00 0. -1.
     999901    1    3    3    0    0  0.61057701435E-01  0.95012230660E-01  0.60770661206E-01  0.88929659852E+00  0.88000000000E+00 0.  1.
        -11    1    4    4    0    0 -0.38563452682E-01 -0.43966489821E-01 -0.26999683671E-01  0.64416117154E-01  0.51100000000E-03 0.  1.
         11    1    4    4    0    0 -0.35878977719E-01 -0.33937546342E-01 -0.44056033211E-01  0.66183481906E-01  0.51100000000E-03 0. -1.
</event>
<event>
 8    1  0.1183092E+005  0.1043930E+01  0.7957747E-01            NaN
         13   -1    0    0    0    0  0.00000000000E+00  0.00000000000E+00  0.74505805969E-08  0.10566000000E+00  0.10566000000E+00 0.  1.
     999900   -1    0    0    0    0 -0.00000000000E+00 -0.00000000000E+00 -0.74505805969E-08  0.93827000000E+00  0.93827000000E+00 0.  1.
     999902    2    1    2    0    0  0.16413654283E-02 -0.14336762311E-01  0.19025983133E-01  0.10200506183E+01  0.10197710719E+01 0.  0.
     999903    2    3    3    0    0 -0.11516524594E+00 -0.18443243441E-01  0.57212640940E-01  0.13150187546E+00  0.20402692603E-01 0.  0.
         14    1    1    2    0    0 -0.16413654283E-02  0.14336762311E-01 -0.19025983133E-01  0.23879381655E-01  0.00000000000E+00 0. -1.
     999901    1    3    3    0    0  0.11680661137E+00  0.41064811306E-02 -0.38186657807E-01  0.88854874288E+00  0.88000000000E+00 0.  1.
        -11    1    4    4    0    0 -0.52913188955E-01 -0.18389776047E-01  0.24031513177E-01  0.60957068294E-01  0.51100000000E-03 0. -1.
         11    1    4    4    0    0 -0.62252056985E-01 -0.53467394578E-04  0.33181127763E-01  0.70544807167E-01  0.51100000000E-03 0.  1.
</event>
<event>
 8    1  0.1183092E+005  0.1043930E+01  0.7957747E-01            NaN
         13   -1    0    0    0    0  0.00000000000E+00  0.00000000000E+00  0.74505805969E-08  0.10566000000E+00  0.10566000000E+00 0.  1.
     999900   -1    0    0    0    0 -0.00000000000E+00 -0.00000000000E+00 -0.74505805969E-08  0.93827000000E+00  0.93827000000E+00 0.  1.
     999902    2    1    2    0    0  0.19509821079E-01  0.71458315520E-02  0.13216613363E-01  0.10193053194E+01  0.10190078308E+01 0.  0.
     999903    2    3    3    0    0 -0.38628053648E-01  0.12159440179E+00 -0.11529698642E-01  0.12964759437E+00  0.19955943933E-01 0.  0.
         14    1    1    2    0    0 -0.19509821079E-01 -0.71458315520E-02 -0.13216613363E-01  0.24624680625E-01  0.00000000000E+00 0. -1.
     999901    1    3    3    0    0  0.58137874727E-01 -0.11444857024E+00  0.24746312005E-01  0.88965772501E+00  0.88000000000E+00 0. -1.
        -11    1    4    4    0    0 -0.17463667150E-01  0.82909815364E-01 -0.11798557372E-01  0.85548139846E-01  0.51100000000E-03 0.  1.
         11    1    4    4    0    0 -0.21164386498E-01  0.38684586430E-01  0.26885873009E-03  0.44099454522E-01  0.51100000000E-03 0. -1.
</event>
<event>
 8    1  0.1183092E+005  0.1043930E+01  0.7957747E-01            NaN
         13   -1    0    0    0    0  0.00000000000E+00  0.00000000000E+00  0.74505805969E-08  0.10566000000E+00  0.10566000000E+00 0. -1.
     999900   -1    0    0    0    0 -0.00000000000E+00 -0.00000000000E+00 -0.74505805969E-08  0.93827000000E+00  0.93827000000E+00 0. -1.
     999902    2    1    2    0    0 -0.19744252433E-01 -0.12231785210E-01 -0.57136122071E-02  0.10200114416E+01  0.10197309662E+01 0.  0.
     999903    2    3    3    0    0 -0.86027545753E-01  0.13167816176E-01 -0.97725850690E-01  0.13237138683E+00  0.19942721660E-01 0.  0.
         14    1    1    2    0    0  0.19744252433E-01  0.12231785210E-01  0.57136122071E-02  0.23918558443E-01  0.00000000000E+00 0. -1.
     999901    1    3    3    0    0  0.66283293321E-01 -0.25399601386E-01  0.92012238483E-01  0.88764005473E+00  0.88000000000E+00 0.  1.
        -11    1    4    4    0    0 -0.43311677494E-01  0.79932717759E-02 -0.34777666736E-01  0.56120771784E-01  0.51100000000E-03 0.  1.
         11    1    4    4    0    0 -0.42715868259E-01  0.51745443999E-02 -0.62948183954E-01  0.76250615046E-01  0.51100000000E-03 0. -1.
</event>
<event>
 8    1  0.1183092E+005  0.1043930E+01  0.7957747E-01            NaN
         13   -1    0    0    0    0  0.00000000000E+00  0.00000000000E+00  0.74505805969E-08  0.10566000000E+00  0.10566000000E+00 0.  1.
     999900   -1    0    0    0    0 -0.00000000000E+00 -0.00000000000E+00 -0.74505805969E-08  0.93827000000E+00  0.93827000000E+00 0.  1.
     999902    2    1    2    0    0  0.78689267959E-02  0.18048312659E-01 -0.12675965246E-01  0.10205133031E+01  0.10202446080E+01 0.  0.
     999903    2    3    3    0    0 -0.53586932563E-01  0.56163037636E-01  0.10240327879E+00  0.13007925876E+00  0.20207323324E-01 0.  0.
         14    1    1    2    0    0 -0.78689267959E-02 -0.18048312659E-01  0.12675965246E-01  0.23416696899E-01  0.00000000000E+00 0.  1.
     999901    1    3    3    0    0  0.61455859359E-01 -0.38114724977E-01 -0.11507924403E+00  0.89043404434E+00  0.88000000000E+00 0.  1.
        -11    1    4    4    0    0 -0.34165886361E-01  0.21190918351E-01  0.51322295287E-01  0.65196640449E-01  0.51100000000E-03 0. -1.
         11    1    4    4    0    0 -0.19421046203E-01  0.34972119285E-01  0.51080983499E-01  0.64882618313E-01  0.51100000000E-03 0.  1.
</event>
<event>
 8    1  0.1183092E+005  0.1043930E+01  0.7957747E-01            NaN
         13   -1    0    0    0    0  0.00000000000E+00  0.00000000000E+00  0.74505805969E-08  0.10566000000E+00  0.10566000000E+00 0.  1.
     999900   -1    0    0    0    0 -0.00000000000E+00 -0.00000000000E+00 -0.74505805969E-08  0.93827000000E+00  0.93827000000E+00 0.  1.
     999902    2    1    2    0    0 -0.23527886571E-02 -0.27955834304E-02 -0.24801955726E-01  0.10188603389E+01  0.10185518653E+01 0.  0.
     999903    2    3    3    0    0 -0.54090714651E-02  0.38915256343E-01 -0.12452323045E+00  0.13224121678E+00  0.20929626471E-01 0.  0.
         14    1    1    2    0    0  0.23527886571E-02  0.27955834304E-02  0.24801955726E-01  0.25069661127E-01  0.00000000000E+00 0.  1.
     999901    1    3    3    0    0  0.30562828079E-02 -0.41710839773E-01  0.99721274726E-01  0.88661912209E+00  0.88000000000E+00 0. -1.
        -11    1    4    4    0    0 -0.84594784224E-02  0.32510692315E-01 -0.74632327738E-01  0.81845912266E-01  0.51100000000E-03 0. -1.
         11    1    4    4    0    0  0.30504069573E-02  0.64045640281E-02 -0.49890902714E-01  0.50395304519E-01  0.51100000000E-03 0.  1.
</event>
<event>
 8    1  0.1183092E+005  0.1043930E+01  0.7957747E-01            NaN
         13   -1    0    0    0    0  0.00000000000E+00  0.00000000000E+00  0.74505805969E-08  0.10566000000E+00  0.10566000000E+00 0.  1.
     999900   -1    0    0    0    0 -0.00000000000E+00 -0.00000000000E+00 -0.74505805969E-08  0.93827000000E+00  0.93827000000E+00 0.  1.
     999902    2    1    2    0    0  0.79638365277E-02 -0.20082155064E-01 -0.10227347148E-01  0.10200278186E+01  0.10197477318E+01 0.  0.
     999903    2    3    3    0    0 -0.22718238515E-01  0.11742347371E+00  0.39290381810E-01  0.12744662168E+00  0.19862445393E-01 0.  0.
         14    1    1    2    0    0 -0.79638365277E-02  0.20082155064E-01  0.10227347148E-01  0.23902181364E-01  0.00000000000E+00 0. -1.
     999901    1    3    3    0    0  0.30682075043E-01 -0.13750562877E+00 -0.49517728957E-01  0.89258119695E+00  0.88000000000E+00 0. -1.
        -11    1    4    4    0    0 -0.55473866864E-03 -0.16113437955E-03  0.19538298027E-02  0.21005406867E-02  0.51100000000E-03 0. -1.
         11    1    4    4    0    0 -0.22163499847E-01  0.11758460809E+00  0.37336552007E-01  0.12534608100E+00  0.51100000000E-03 0.  1.
</event>
<event>
 8    1  0.1183092E+005  0.1043930E+01  0.7957747E-01            NaN
         13   -1    0    0    0    0  0.00000000000E+00  0.00000000000E+00  0.74505805969E-08  0.10566000000E+00  0.10566000000E+00 0.  1.
     999900   -1    0    0    0    0 -0.00000000000E+00 -0.00000000000E+00 -0.74505805969E-08  0.93827000000E+00  0.93827000000E+00 0. -1.
     999902    2    1    2    0    0  0.23128634209E-01 -0.48249778030E-02  0.81416969730E-02  0.10189399748E+01  0.10186334821E+01 0.  0.
     999903    2    3    3    0    0 -0.15858815832E-01  0.12139851317E+00  0.36938723578E-01  0.12861325964E+00  0.13704021907E-01 0.  0.
         14    1    1    2    0    0 -0.23128634209E-01  0.48249778030E-02 -0.81416969730E-02  0.24990025226E-01  0.00000000000E+00 0. -1.
     999901    1    3    3    0    0  0.38987450041E-01 -0.12622349098E+00 -0.28797026605E-01  0.89032671513E+00  0.88000000000E+00 0. -1.
        -11    1    4    4    0    0  0.69045447589E-03  0.45259475462E-01  0.14300537660E-01  0.47472764243E-01  0.51100000000E-03 0. -1.
         11    1    4    4    0    0 -0.16549270308E-01  0.76139037710E-01  0.22638185919E-01  0.81140495400E-01  0.51100000000E-03 0.  1.
</event>
<event>
 8    1  0.1183092E+005  0.1043930E+01  0.7957747E-01            NaN
         13   -1    0    0    0    0  0.00000000000E+00  0.00000000000E+00  0.74505805969E-08  0.10566000000E+00  0.10566000000E+00 0. -1.
     999900   -1    0    0    0    0 -0.00000000000E+00 -0.00000000000E+00 -0.74505805969E-08  0.93827000000E+00  0.93827000000E+00 0.  1.
     999902    2    1    2    0    0 -0.88943741599E-02 -0.13717621238E-01  0.18614087332E-01  0.10191556731E+01  0.10188545131E+01 0.  0.
     999903    2    3    3    0    0 -0.57110561486E-01  0.11337100529E+00 -0.62928574226E-02  0.12837136950E+00  0.18027961062E-01 0.  0.
         14    1    1    2    0    0  0.88943741599E-02  0.13717621238E-01 -0.18614087332E-01  0.24774326859E-01  0.00000000000E+00 0.  1.
     999901    1    3    3    0    0  0.48216187326E-01 -0.12708862653E+00  0.24906944754E-01  0.89078430364E+00  0.88000000000E+00 0. -1.
        -11    1    4    4    0    0 -0.43410043005E-02  0.83781918817E-02 -0.53486378387E-02  0.10858520400E-01  0.51100000000E-03 0. -1.
         11    1    4    4    0    0 -0.52769557185E-01  0.10499281341E+00 -0.94421958385E-03  0.11751284910E+00  0.51100000000E-03 0.  1.
</event>
<event>
 8    1  0.1183092E+005  0.1043930E+01  0.7957747E-01            NaN
         13   -1    0    0    0    0  0.00000000000E+00  0.00000000000E+00  0.74505805969E-08  0.10566000000E+00  0.10566000000E+00 0. -1.
     999900   -1    0    0    0    0 -0.00000000000E+00 -0.00000000000E+00 -0.74505805969E-08  0.93827000000E+00  0.93827000000E+00 0. -1.
     999902    2    1    2    0    0 -0.15205904428E-02 -0.21212413301E-01 -0.52069167102E-02  0.10220350084E+01  0.10218004540E+01 0.  0.
     999903    2    3    3    0    0  0.28595984452E-01 -0.13014063430E+00  0.55629227799E-02  0.13474229753E+00  0.19241247630E-01 0.  0.
         14    1    1    2    0    0  0.15205904428E-02  0.21212413301E-01  0.52069167102E-02  0.21894991550E-01  0.00000000000E+00 0. -1.
     999901    1    3    3    0    0 -0.30116574894E-01  0.10892822100E+00 -0.10769839490E-01  0.88729271092E+00  0.88000000000E+00 0.  1.
        -11    1    4    4    0    0 -0.23206785846E-02 -0.20220611138E-01  0.25234473796E-02  0.20515544633E-01  0.51100000000E-03 0. -1.
         11    1    4    4    0    0  0.30916663036E-01 -0.10992002316E+00  0.30394754003E-02  0.11422675289E+00  0.51100000000E-03 0.  1.
</event>
<event>
 8    1  0.1183092E+005  0.1043930E+01  0.7957747E-01            NaN
         13   -1    0    0    0    0  0.00000000000E+00  0.00000000000E+00  0.74505805969E-08  0.10566000000E+00  0.10566000000E+00 0. -1.
     999900   -1    0    0    0    0 -0.00000000000E+00 -0.00000000000E+00 -0.74505805969E-08  0.93827000000E+00  0.93827000000E+00 0.  1.
     999902    2    1    2    0    0  0.63958598280E-02  0.20349606226E-02 -0.22656581083E-01  0.10203001724E+01  0.10200265060E+01 0.  0.
     999903    2    3    3    0    0 -0.61182255541E-01  0.91588309485E-01  0.66074683175E-01  0.12875104796E+00  0.89040309372E-02 0.  0.
         14    1    1    2    0    0 -0.63958598280E-02 -0.20349606226E-02  0.22656581083E-01  0.23629827635E-01  0.00000000000E+00 0. -1.
     999901    1    3    3    0    0  0.67578115369E-01 -0.89553348863E-01 -0.88731264258E-01  0.89154912440E+00  0.88000000000E+00 0.  1.
        -11    1    4    4    0    0 -0.89255212526E-02  0.10073146643E-01  0.55791086658E-02  0.14578092722E-01  0.51100000000E-03 0.  1.
         11    1    4    4    0    0 -0.52256734289E-01  0.81515162842E-01  0.60495574509E-01  0.11417295524E+00  0.51100000000E-03 0. -1.
</event>
<event>
 8    1  0.1183092E+005  0.1043930E+01  0.7957747E-01            NaN
         13   -1    0    0    0    0  0.00000000000E+00  0.00000000000E+00  0.74505805969E-08  0.10566000000E+00  0.10566000000E+00 0. -1.
     999900   -1    0    0    0    0 -0.00000000000E+00 -0.00000000000E+00 -0.74505805969E-08  0.93827000000E+00  0.93827000000E+00 0. -1.
     999902    2    1    2    0    0  0.12761879277E-01 -0.28645465320E-01  0.74007271776E-02  0.10117089043E+01  0.10111956824E+01 0.  0.
     999903    2    3    3    0    0 -0.10601938098E+00 -0.54085176538E-01  0.26345326791E-01  0.12316230194E+00  0.17594343106E-01 0.  0.
         14    1    1    2    0    0 -0.12761879277E-01  0.28645465320E-01 -0.74007271776E-02  0.32221095711E-01  0.00000000000E+00 0.  1.
     999901    1    3    3    0    0  0.11878126026E+00  0.25439711218E-01 -0.18944599614E-01  0.88854660235E+00  0.88000000000E+00 0.  1.
        -11    1    4    4    0    0 -0.56413028448E-01 -0.37806977200E-01  0.18301171779E-01  0.70334851341E-01  0.51100000000E-03 0.  1.
         11    1    4    4    0    0 -0.49606352536E-01 -0.16278199337E-01  0.80441550117E-02  0.52827450596E-01  0.51100000000E-03 0. -1.
</event>
<event>
 8    1  0.1183092E+005  0.1043930E+01  0.7957747E-01            NaN
         13   -1    0    0    0    0  0.00000000000E+00  0.00000000000E+00  0.74505805969E-08  0.10566000000E+00  0.10566000000E+00 0. -1.
     999900   -1    0    0    0    0 -0.00000000000E+00 -0.00000000000E+00 -0.74505805969E-08  0.93827000000E+00  0.93827000000E+00 0. -1.
     999902    2    1    2    0    0  0.97500169222E-02  0.22157605871E-01  0.56575286980E-02  0.10190697917E+01  0.10187665141E+01 0.  0.
     999903    2    3    3    0    0 -0.11033271816E+00  0.58803977911E-01  0.29038615371E-01  0.12985131734E+00  0.19669949602E-01 0.  0.
         14    1    1    2    0    0 -0.97500169222E-02 -0.22157605871E-01 -0.56575286980E-02  0.24860208343E-01  0.00000000000E+00 0.  1.
     999901    1    3    3    0    0  0.12008273508E+00 -0.36646372040E-01 -0.23381086673E-01  0.88921847432E+00  0.88000000000E+00 0. -1.
        -11    1    4    4    0    0 -0.34171511974E-01  0.82879948554E-02  0.85264825364E-02  0.36184874116E-01  0.51100000000E-03 0.  1.
         11    1    4    4    0    0 -0.76161206188E-01  0.50515983056E-01  0.20512132835E-01  0.93666443226E-01  0.51100000000E-03 0. -1.
</event>
<event>
 8    1  0.1183092E+005  0.1043930E+01  0.7957747E-01            NaN
         13   -1    0    0    0    0  0.00000000000E+00  0.00000000000E+00  0.74505805969E-08  0.10566000000E+00  0.10566000000E+00 0. -1.
     999900   -1    0    0    0    0 -0.00000000000E+00 -0.00000000000E+00 -0.74505805969E-08  0.93827000000E+00  0.93827000000E+00 0. -1.
     999902    2    1    2    0    0 -0.13343512220E-01 -0.18594037223E-01  0.27522184584E-02  0.10208787040E+01  0.10206184234E+01 0.  0.
     999903    2    3    3    0    0  0.39708613902E-01 -0.12508443778E+00 -0.22288985278E-02  0.13285869018E+00  0.20580888608E-01 0.  0.
         14    1    1    2    0    0  0.13343512220E-01  0.18594037223E-01 -0.27522184584E-02  0.23051295952E-01  0.00000000000E+00 0.  1.
     999901    1    3    3    0    0 -0.53052126122E-01  0.10649040056E+00  0.49811169862E-02  0.88802001386E+00  0.88000000000E+00 0. -1.
        -11    1    4    4    0    0  0.17300045450E-01 -0.69098483645E-01 -0.10447250656E-01  0.71995126098E-01  0.51100000000E-03 0.  1.
         11    1    4    4    0    0  0.22408568452E-01 -0.55985954136E-01  0.82183521284E-02  0.60863564086E-01  0.51100000000E-03 0. -1.
</event>
<event>
 8    1  0.1183092E+005  0.1043930E+01  0.7957747E-01            NaN
         13   -1    0    0    0    0  0.00000000000E+00  0.00000000000E+00  0.74505805969E-08  0.10566000000E+00  0.10566000000E+00 0. -1.
     999900   -1    0    0    0    0 -0.00000000000E+00 -0.00000000000E+00 -0.74505805969E-08  0.93827000000E+00  0.93827000000E+00 0. -1.
     999902    2    1    2    0    0  0.20322167829E-01 -0.11274404238E-01 -0.61415631036E-02  0.10198920822E+01  0.10196087670E+01 0.  0.
     999903    2    3    3    0    0  0.51261767293E-01 -0.52325932510E-01 -0.10860899992E+00  0.13245641555E+00  0.19570773053E-01 0.  0.
         14    1    1    2    0    0 -0.20322167829E-01  0.11274404238E-01  0.61415631036E-02  0.24037917829E-01  0.00000000000E+00 0. -1.
     999901    1    3    3    0    0 -0.30939599464E-01  0.41051528272E-01  0.10246743681E+00  0.88743566662E+00  0.88000000000E+00 0.  1.
        -11    1    4    4    0    0  0.17013419343E-01 -0.71896944217E-02 -0.19543764933E-01  0.26895501713E-01  0.51100000000E-03 0. -1.
         11    1    4    4    0    0  0.34248347950E-01 -0.45136238089E-01 -0.89065234983E-01  0.10556091383E+00  0.51100000000E-03 0.  1.
</event>
<event>
 8    1  0.1183092E+005  0.1043930E+01  0.7957747E-01            NaN
         13   -1    0    0    0    0  0.00000000000E+00  0.00000000000E+00  0.74505805969E-08  0.10566000000E+00  0.10566000000E+00 0. -1.
     999900   -1    0    0    0    0 -0.00000000000E+00 -0.00000000000E+00 -0.74505805969E-08  0.93827000000E+00  0.93827000000E+00 0.  1.
     999902    2    1    2    0    0 -0.11439474079E-01 -0.20253761256E-01  0.58579639786E-02  0.10199426668E+01  0.10196605569E+01 0.  0.
     999903    2    3    3    0    0 -0.92554035148E-01  0.87978224377E-01 -0.31032777062E-02  0.12956407396E+00  0.21697961695E-01 0.  0.
         14    1    1    2    0    0  0.11439474079E-01  0.20253761256E-01 -0.58579639786E-02  0.23987333203E-01  0.00000000000E+00 0. -1.
     999901    1    3    3    0    0  0.81114561069E-01 -0.10823198563E+00  0.89612416848E-02  0.89037859284E+00  0.88000000000E+00 0. -1.
        -11    1    4    4    0    0 -0.31519356427E-01  0.19632734940E-01 -0.72458863964E-02  0.37837522401E-01  0.51100000000E-03 0.  1.
         11    1    4    4    0    0 -0.61034678721E-01  0.68345489437E-01  0.41426086902E-02  0.91726551558E-01  0.51100000000E-03 0. -1.
</event>
<event>
 8    1  0.1183092E+005  0.1043930E+01  0.7957747E-01            NaN
         13   -1    0    0    0    0  0.00000000000E+00  0.00000000000E+00  0.74505805969E-08  0.10566000000E+00  0.10566000000E+00 0.  1.
     999900   -1    0    0    0    0 -0.00000000000E+00 -0.00000000000E+00 -0.74505805969E-08  0.93827000000E+00  0.93827000000E+00 0. -1.
     999902    2    1    2    0    0 -0.63953283510E-02  0.10515925588E-01 -0.19074223216E-01  0.10212295395E+01  0.10209772091E+01 0.  0.
     999903    2    3    3    0    0  0.40768265147E-01 -0.12183264980E+00 -0.49221192616E-02  0.12997153420E+00  0.19055876931E-01 0.  0.
         14    1    1    2    0    0  0.63953283510E-02 -0.10515925588E-01  0.19074223216E-01  0.22700460501E-01  0.00000000000E+00 0.  1.
     999901    1    3    3    0    0 -0.47163593498E-01  0.13234857538E+00 -0.14152103954E-01  0.89125800530E+00  0.88000000000E+00 0. -1.
        -11    1    4    4    0    0  0.25916528607E-01 -0.74113260917E-01  0.62309936714E-02  0.78762480293E-01  0.51100000000E-03 0. -1.
         11    1    4    4    0    0  0.14851736540E-01 -0.47719388879E-01 -0.11153112933E-01  0.51209053910E-01  0.51100000000E-03 0.  1.
</event>
<event>
 8    1  0.1183092E+005  0.1043930E+01  0.7957747E-01            NaN
         13   -1    0    0    0    0  0.00000000000E+00  0.00000000000E+00  0.74505805969E-08  0.10566000000E+00  0.10566000000E+00 0.  1.
     999900   -1    0    0    0    0 -0.00000000000E+00 -0.00000000000E+00 -0.74505805969E-08  0.93827000000E+00  0.93827000000E+00 0.  1.
     999902    2    1    2    0    0 -0.10534910619E-01  0.17130234851E-02  0.21700581824E-01  0.10197466577E+01  0.10194598628E+01 0.  0.
     999903    2    3    3    0    0 -0.66574571246E-02  0.47686008056E-01  0.12133498378E+00  0.13292335854E+00  0.25063197248E-01 0.  0.
         14    1    1    2    0    0  0.10534910619E-01 -0.17130234851E-02 -0.21700581824E-01  0.24183342257E-01  0.00000000000E+00 0. -1.
     999901    1    3    3    0    0 -0.38774534942E-02 -0.45972984571E-01 -0.99634401958E-01  0.88682329920E+00  0.88000000000E+00 0.  1.
        -11    1    4    4    0    0  0.17072653348E-02  0.26758913600E-01  0.92576247361E-01  0.96382451247E-01  0.51100000000E-03 0. -1.
         11    1    4    4    0    0 -0.83647224595E-02  0.20927094456E-01  0.28758736421E-01  0.36540907293E-01  0.51100000000E-03 0.  1.
</event>
<event>
 7    1  0.1183092E+005  0.1043930E+01  0.7957747E-01            NaN
         13   -1    0    0    0    0  0.00000000000E+00  0.00000000000E+00  0.74505805969E-08  0.10566000000E+00  0.10566000000E+00 0. -1.
     999900   -1    0    0    0    0 -0.00000000000E+00 -0.00000000000E+00 -0.74505805969E-08  0.93827000000E+00  0.93827000000E+00 0. -1.
     999902    2    1    2    0    0  0.71314350859E-02  0.12833305216E-01  0.18063720495E-01  0.10206523479E+01  0.10203868708E+01 0.  0.
         14    1    1    2    0    0 -0.71314350859E-02 -0.12833305216E-01 -0.18063720495E-01  0.23277652099E-01  0.00000000000E+00 0.  1.
     999901    1    3    3    0    0  0.10520559860E+00  0.82767255692E-01  0.62351802290E-01  0.89230397502E+00  0.88000000000E+00 0. -1.
        -11    1    3    3    0    0 -0.27896710377E-01 -0.20005609357E-01 -0.13160802464E-01  0.36768447045E-01  0.51100000000E-03 0.  1.
         11    1    3    3    0    0 -0.70177453140E-01 -0.49928341119E-01 -0.31127279331E-01  0.91579925834E-01  0.51100000000E-03 0. -1.
</event>
<event>
 8    1  0.1183092E+005  0.1043930E+01  0.7957747E-01            NaN
         13   -1    0    0    0    0  0.00000000000E+00  0.00000000000E+00  0.74505805969E-08  0.10566000000E+00  0.10566000000E+00 0. -1.
     999900   -1    0    0    0    0 -0.00000000000E+00 -0.00000000000E+00 -0.74505805969E-08  0.93827000000E+00  0.93827000000E+00 0.  1.
     999902    2    1    2    0    0 -0.52943245782E-04 -0.11990124428E-01 -0.21475037520E-01  0.10193344085E+01  0.10190376309E+01 0.  0.
     999903    2    3    3    0    0  0.11474613650E+00  0.42350316181E-01 -0.39443336268E-01  0.13003436238E+00  0.19822550329E-01 0.  0.
         14    1    1    2    0    0  0.52943245782E-04  0.11990124428E-01  0.21475037520E-01  0.24595591541E-01  0.00000000000E+00 0. -1.
     999901    1    3    3    0    0 -0.11479907974E+00 -0.54340440609E-01  0.17968298748E-01  0.88930004608E+00  0.88000000000E+00 0. -1.
        -11    1    4    4    0    0  0.16040352747E-01  0.13734665061E-01 -0.60139684710E-02  0.21962761173E-01  0.51100000000E-03 0. -1.
         11    1    4    4    0    0  0.98705783752E-01  0.28615651121E-01 -0.33429367797E-01  0.10807160121E+00  0.51100000000E-03 0.  1.
</event>
<event>
 8    1  0.1183092E+005  0.1043930E+01  0.7957747E-01            NaN
         13   -1    0    0    0    0  0.00000000000E+00  0.00000000000E+00  0.74505805969E-08  0.10566000000E+00  0.10566000000E+00 0. -1.
     999900   -1    0    0    0    0 -0.00000000000E+00 -0.00000000000E+00 -0.74505805969E-08  0.93827000000E+00  0.93827000000E+00 0.  1.
     999902    2    1    2    0    0 -0.16950611958E-01  0.70319386770E-02  0.18717451276E-02  0.10254834600E+01  0.10253175371E+01 0.  0.
     999903    2    3    3    0    0  0.88743781669E-02 -0.11614454509E+00 -0.63845835015E-01  0.13410353171E+00  0.18416205509E-01 0.  0.
         14    1    1    2    0    0  0.16950611958E-01 -0.70319386770E-02 -0.18717451276E-02  0.18446539977E-01  0.00000000000E+00 0. -1.
     999901    1    3    3    0    0 -0.25824990125E-01  0.12317648377E+00  0.65717580142E-01  0.89137992832E+00  0.88000000000E+00 0. -1.
        -11    1    4    4    0    0  0.92560904314E-02 -0.37919366621E-01 -0.14661951535E-01  0.41698771191E-01  0.51100000000E-03 0.  1.
         11    1    4    4    0    0 -0.38171226455E-03 -0.78225178468E-01 -0.49183883480E-01  0.92404760514E-01  0.51100000000E-03 0. -1.
</event>
<event>
 8    1  0.1183092E+005  0.1043930E+01  0.7957747E-01            NaN
         13   -1    0    0    0    0  0.00000000000E+00  0.00000000000E+00  0.74505805969E-08  0.10566000000E+00  0.10566000000E+00 0. -1.
     999900   -1    0    0    0    0 -0.00000000000E+00 -0.00000000000E+00 -0.74505805969E-08  0.93827000000E+00  0.93827000000E+00 0. -1.
     999902    2    1    2    0    0  0.99447265755E-02  0.16098339386E-01 -0.13654450186E-01  0.10205955163E+01  0.10203287264E+01 0.  0.
     999903    2    3    3    0    0 -0.50983918130E-01 -0.18286496974E-01 -0.11817970692E+00  0.13165224143E+00  0.20787343877E-01 0.  0.
         14    1    1    2    0    0 -0.99447265755E-02 -0.16098339386E-01  0.13654450186E-01  0.23334483656E-01  0.00000000000E+00 0. -1.
     999901    1    3    3    0    0  0.60928644706E-01  0.34384836360E-01  0.10452525674E+00  0.88894327491E+00  0.88000000000E+00 0.  1.
        -11    1    4    4    0    0 -0.24536691889E-01 -0.13897393267E-01 -0.39549488541E-01  0.48575816549E-01  0.51100000000E-03 0. -1.
         11    1    4    4    0    0 -0.26447226241E-01 -0.43891037071E-02 -0.78630218383E-01  0.83076424882E-01  0.51100000000E-03 0.  1.
</event>
<event>
 8    1  0.1183092E+005  0.1043930E+01  0.7957747E-01            NaN
         13   -1    0    0    0    0  0.00000000000E+00  0.00000000000E+00  0.74505805969E-08  0.10566000000E+00  0.10566000000E+00 0.  1.
     999900   -1    0    0    0    0 -0.00000000000E+00 -0.00000000000E+00 -0.74505805969E-08  0.93827000000E+00  0.93827000000E+00 0.  1.
     999902    2    1    2    0    0  0.12646491058E-03 -0.18964651018E-01  0.13058020831E-01  0.10209042342E+01  0.10206445363E+01 0.  0.
     999903    2    3    3    0    0 -0.54591084874E-01 -0.11086574704E+00 -0.43792446353E-01  0.13260710076E+00  0.19886286691E-01 0.  0.
         14    1    1    2    0    0 -0.12646491058E-03  0.18964651018E-01 -0.13058020831E-01  0.23025765777E-01  0.00000000000E+00 0. -1.
     999901    1    3    3    0    0  0.54717549785E-01  0.91901096026E-01  0.56850467184E-01  0.88829713347E+00  0.88000000000E+00 0. -1.
        -11    1    4    4    0    0 -0.31164718235E-01 -0.75430862770E-01 -0.20470979351E-01  0.84144975117E-01  0.51100000000E-03 0.  1.
         11    1    4    4    0    0 -0.23426366640E-01 -0.35434884274E-01 -0.23321467003E-01  0.48462125640E-01  0.51100000000E-03 0. -1.
</event>
<event>
 8    1  0.1183092E+005  0.1043930E+01  0.7957747E-01            NaN
         13   -1    0    0    0    0  0.00000000000E+00  0.00000000000E+00  0.74505805969E-08  0.10566000000E+00  0.10566000000E+00 0.  1.
     999900   -1    0    0    0    0 -0.00000000000E+00 -0.00000000000E+00 -0.74505805969E-08  0.93827000000E+00  0.93827000000E+00 0. -1.
     999902    2    1    2    0    0 -0.20981912308E-02  0.93088877573E-02  0.21541001923E-01  0.10203700220E+01  0.10200979901E+01 0.  0.
     999903    2    3    3    0    0  0.20218684318E-01 -0.10552055065E+00 -0.66528082347E-01  0.12827136916E+00  0.22004013296E-01 0.  0.
         14    1    1    2    0    0  0.20981912308E-02 -0.93088877573E-02 -0.21541001923E-01  0.23559977962E-01  0.00000000000E+00 0. -1.
     999901    1    3    3    0    0 -0.22316875548E-01  0.11482943841E+00  0.88069084270E-01  0.89209865288E+00  0.88000000000E+00 0.  1.
        -11    1    4    4    0    0  0.71800352175E-02 -0.39539669668E-01 -0.37667232835E-01  0.55081938361E-01  0.51100000000E-03 0.  1.
         11    1    4    4    0    0  0.13038649100E-01 -0.65980880982E-01 -0.28860849512E-01  0.73189430801E-01  0.51100000000E-03 0. -1.
</event>
<event>
 8    1  0.1183092E+005  0.1043930E+01  0.7957747E-01            NaN
         13   -1    0    0    0    0  0.00000000000E+00  0.00000000000E+00  0.74505805969E-08  0.10566000000E+00  0.10566000000E+00 0.  1.
     999900   -1    0    0    0    0 -0.00000000000E+00 -0.00000000000E+00 -0.74505805969E-08  0.93827000000E+00  0.93827000000E+00 0. -1.
     999902    2    1    2    0    0 -0.70030499248E-04  0.27839179765E-02 -0.22682145334E-01  0.10210775424E+01  0.10208217830E+01 0.  0.
     999903    2    3    3    0    0  0.49239405579E-02  0.11929979368E+00 -0.54767020476E-01  0.13280375109E+00  0.19512145113E-01 0.  0.
         14    1    1    2    0    0  0.70030499248E-04 -0.27839179765E-02  0.22682145334E-01  0.22852457648E-01  0.00000000000E+00 0.  1.
     999901    1    3    3    0    0 -0.49939710572E-02 -0.11651587571E+00  0.32084875141E-01  0.88827379127E+00  0.88000000000E+00 0. -1.
        -11    1    4    4    0    0  0.64041691606E-02  0.28558986437E-01 -0.20761294154E-01  0.35887623840E-01  0.51100000000E-03 0.  1.
         11    1    4    4    0    0 -0.14802286027E-02  0.90740807247E-01 -0.34005726322E-01  0.96916127245E-01  0.51100000000E-03 0. -1.
</event>
<event>
 8    1  0.1183092E+005  0.1043930E+01  0.7957747E-01            NaN
         13   -1    0    0    0    0  0.00000000000E+00  0.00000000000E+00  0.74505805969E-08  0.10566000000E+00  0.10566000000E+00 0. -1.
     999900   -1    0    0    0    0 -0.00000000000E+00 -0.00000000000E+00 -0.74505805969E-08  0.93827000000E+00  0.93827000000E+00 0. -1.
     999902    2    1    2    0    0 -0.10981797513E-01  0.98800969302E-02  0.18377764429E-01  0.10203512295E+01  0.10200787583E+01 0.  0.
     999903    2    3    3    0    0  0.55354611738E-01 -0.15172190848E-03 -0.11362718370E+00  0.12797997107E+00  0.20089302084E-01 0.  0.
         14    1    1    2    0    0  0.10981797513E-01 -0.98800969302E-02 -0.18377764429E-01  0.23578770480E-01  0.00000000000E+00 0.  1.
     999901    1    3    3    0    0 -0.66336409251E-01  0.10031818839E-01  0.13200494813E+00  0.89237125845E+00  0.88000000000E+00 0.  1.
        -11    1    4    4    0    0  0.41989659345E-01 -0.87660339621E-02 -0.85793606586E-01  0.95920690653E-01  0.51100000000E-03 0. -1.
         11    1    4    4    0    0  0.13364952393E-01  0.86143120536E-02 -0.27833577115E-01  0.32059280414E-01  0.51100000000E-03 0.  1.
</event>
<event>
 8    1  0.1183092E+005  0.1043930E+01  0.7957747E-01            NaN
         13   -1    0    0    0    0  0.00000000000E+00  0.00000000000E+00  0.74505805969E-08  0.10566000000E+00  0.10566000000E+00 0.  1.
     999900   -1    0    0    0    0 -0.00000000000E+00 -0.00000000000E+00 -0.74505805969E-08  0.93827000000E+00  0.93827000000E+00 0.  1.
     999902    2    1    2    0    0  0.20951947296E-01  0.64233468730E-02  0.86658022093E-02  0.10203643553E+01  0.10200921909E+01 0.  0.
     999903    2    3    3    0    0 -0.98961400687E-01  0.71471271506E-01  0.37689227520E-01  0.12938017885E+00  0.20426730834E-01 0.  0.
         14    1    1    2    0    0 -0.20951947296E-01 -0.64233468730E-02 -0.86658022093E-02  0.23565644665E-01  0.00000000000E+00 0. -1.
     999901    1    3    3    0    0  0.11991334798E+00 -0.65047924633E-01 -0.29023425310E-01  0.89098417648E+00  0.88000000000E+00 0. -1.
        -11    1    4    4    0    0 -0.84249462835E-02  0.10918988558E-01 -0.88885558946E-03  0.13829505279E-01  0.51100000000E-03 0.  1.
         11    1    4    4    0    0 -0.90536454404E-01  0.60552282948E-01  0.38578083109E-01  0.11555067357E+00  0.51100000000E-03 0. -1.
</event>
<event>
 8    1  0.1183092E+005  0.1043930E+01  0.7957747E-01            NaN
         13   -1    0    0    0    0  0.00000000000E+00  0.00000000000E+00  0.74505805969E-08  0.10566000000E+00  0.10566000000E+00 0. -1.
     999900   -1    0    0    0    0 -0.00000000000E+00 -0.00000000000E+00 -0.74505805969E-08  0.93827000000E+00  0.93827000000E+00 0. -1.
     999902    2    1    2    0    0 -0.20754967833E-01 -0.31632974201E-03  0.10148231140E-01  0.10208246900E+01  0.10205631741E+01 0.  0.
     999903    2    3    3    0    0  0.87749563024E-01 -0.85438987744E-01 -0.34978713212E-01  0.12894154676E+00  0.20065035865E-01 0.  0.
         14    1    1    2    0    0  0.20754967833E-01  0.31632974201E-03 -0.10148231140E-01  0.23105309985E-01  0.00000000000E+00 0.  1.
     999901    1    3    3    0    0 -0.10850453086E+00  0.85122658002E-01  0.45126944352E-01  0.89188314326E+00  0.88000000000E+00 0.  1.
        -11    1    4    4    0    0  0.71272033773E-02 -0.12680432015E-01 -0.95357164964E-02  0.17400614764E-01  0.51100000000E-03 0. -1.
         11    1    4    4    0    0  0.80622359647E-01 -0.72758555729E-01 -0.25442996716E-01  0.11154093199E+00  0.51100000000E-03 0.  1.
</event>
<event>
 8    1  0.1183092E+005  0.1043930E+01  0.7957747E-01            NaN
         13   -1    0    0    0    0  0.00000000000E+00  0.00000000000E+00  0.74505805969E-08  0.10566000000E+00  0.10566000000E+00 0.  1.
     999900   -1    0    0    0    0 -0.00000000000E+00 -0.00000000000E+00 -0.74505805969E-08  0.93827000000E+00  0.93827000000E+00 0.  1.
     999902    2    1    2    0    0 -0.18822871944E-01 -0.20733814585E-02  0.16322886645E-01  0.10189292791E+01  0.10186225207E+01 0.  0.
     999903    2    3    3    0    0  0.77191608624E-01  0.71326589157E-01 -0.67921812918E-01  0.12668295345E+00  0.19727424120E-01 0.  0.
         14    1    1    2    0    0  0.18822871944E-01  0.20733814585E-02 -0.16322886645E-01  0.25000720936E-01  0.00000000000E+00 0. -1.
     999901    1    3    3    0    0 -0.96014480568E-01 -0.73399970615E-01  0.84244699563E-01  0.89224632561E+00  0.88000000000E+00 0. -1.
        -11    1    4    4    0    0  0.17479620345E-01  0.11452616635E-01 -0.56115697832E-02  0.21643714829E-01  0.51100000000E-03 0.  1.
         11    1    4    4    0    0  0.59711988280E-01  0.59873972522E-01 -0.62310243135E-01  0.10503923862E+00  0.51100000000E-03 0. -1.
</event>
<event>
 8    1  0.1183092E+005  0.1043930E+01  0.7957747E-01            NaN
         13   -1    0    0    0    0  0.00000000000E+00  0.00000000000E+00  0.74505805969E-08  0.10566000000E+00  0.10566000000E+00 0.  1.
     999900   -1    0    0    0    0 -0.00000000000E+00 -0.00000000000E+00 -0.74505805969E-08  0.93827000000E+00  0.93827000000E+00 0.  1.
     999902    2    1    2    0    0 -0.15829541733E-02  0.10457808881E-01 -0.21714817357E-01  0.10197762259E+01  0.10194901403E+01 0.  0.
     999903    2    3    3    0    0 -0.11843105143E+00  0.50796967631E-01  0.82550001086E-02  0.13063117838E+00  0.19751300610E-01 0.  0.
         14    1    1    2    0    0  0.15829541733E-02 -0.10457808881E-01  0.21714817357E-01  0.24153774102E-01  0.00000000000E+00 0.  1.
     999901    1    3    3    0    0  0.11684809726E+00 -0.40339158750E-01 -0.29969817465E-01  0.88914504751E+00  0.88000000000E+00 0. -1.
        -11    1    4    4    0    0 -0.23359211206E-01  0.16346811586E-01  0.75833599233E-02  0.29506600379E-01  0.51100000000E-03 0.  1.
         11    1    4    4    0    0 -0.95071840224E-01  0.34450156045E-01  0.67164018536E-03  0.10112457800E+00  0.51100000000E-03 0. -1.
</event>
<event>
 8    1  0.1183092E+005  0.1043930E+01  0.7957747E-01            NaN
         13   -1    0    0    0    0  0.00000000000E+00  0.00000000000E+00  0.74505805969E-08  0.10566000000E+00  0.10566000000E+00 0. -1.
     999900   -1    0    0    0    0 -0.00000000000E+00 -0.00000000000E+00 -0.74505805969E-08  0.93827000000E+00  0.93827000000E+00 0. -1.
     999902    2    1    2    0    0  0.79985865321E-02  0.18604918923E-01 -0.10813513020E-01  0.10209723769E+01  0.10207142313E+01 0.  0.
     999903    2    3    3    0    0  0.73386153160E-01 -0.98317052108E-01  0.37079609299E-01  0.12954653458E+00  0.18858339966E-01 0.  0.
         14    1    1    2    0    0 -0.79985865321E-02 -0.18604918923E-01  0.10813513020E-01  0.22957623101E-01  0.00000000000E+00 0. -1.
     999901    1    3    3    0    0 -0.65387566627E-01  0.11692197103E+00 -0.47893122319E-01  0.89142584231E+00  0.88000000000E+00 0. -1.
        -11    1    4    4    0    0  0.39211807596E-01 -0.37244851288E-01  0.14205189940E-01  0.55917737299E-01  0.51100000000E-03 0. -1.
         11    1    4    4    0    0  0.34174345564E-01 -0.61072200820E-01  0.22874419359E-01  0.73628797286E-01  0.51100000000E-03 0.  1.
</event>
<event>
 8    1  0.1183092E+005  0.1043930E+01  0.7957747E-01            NaN
         13   -1    0    0    0    0  0.00000000000E+00  0.00000000000E+00  0.74505805969E-08  0.10566000000E+00  0.10566000000E+00 0.  1.
     999900   -1    0    0    0    0 -0.00000000000E+00 -0.00000000000E+00 -0.74505805969E-08  0.93827000000E+00  0.93827000000E+00 0. -1.
     999902    2    1    2    0    0 -0.16880916878E-01  0.14315211610E-01  0.10215690220E-01  0.10195527367E+01  0.10192612678E+01 0.  0.
     999903    2    3    3    0    0  0.87208022808E-01  0.92095826107E-01  0.19864235126E-01  0.12995876992E+00  0.20194395604E-01 0.  0.
         14    1    1    2    0    0  0.16880916878E-01 -0.14315211610E-01 -0.10215690220E-01  0.24377263275E-01  0.00000000000E+00 0.  1.
     999901    1    3    3    0    0 -0.10408893969E+00 -0.77780614496E-01 -0.96485449059E-02  0.88959396680E+00  0.88000000000E+00 0.  1.
        -11    1    4    4    0    0  0.51759700930E-01  0.43269887071E-01  0.16882898928E-01  0.69545978782E-01  0.51100000000E-03 0. -1.
         11    1    4    4    0    0  0.35448321878E-01  0.48825939035E-01  0.29813361983E-02  0.60412791139E-01  0.51100000000E-03 0.  1.
</event>
<event>
 8    1  0.1183092E+005  0.1043930E+01  0.7957747E-01            NaN
         13   -1    0    0    0    0  0.00000000000E+00  0.00000000000E+00  0.74505805969E-08  0.10566000000E+00  0.10566000000E+00 0.  1.
     999900   -1    0    0    0    0 -0.00000000000E+00 -0.00000000000E+00 -0.74505805969E-08  0.93827000000E+00  0.93827000000E+00 0.  1.
     999902    2    1    2    0    0 -0.10938309381E-01  0.21340243999E-01 -0.11425792137E-02  0.10199225405E+01  0.10196399514E+01 0.  0.
     999903    2    3    3    0    0  0.46126246332E-01 -0.57520439501E-01  0.10344488371E+00  0.12839917660E+00  0.18688847567E-01 0.  0.
         14    1    1    2    0    0  0.10938309381E-01 -0.21340243999E-01  0.11425792137E-02  0.24007459535E-01  0.00000000000E+00 0. -1.
     999901    1    3    3    0    0 -0.57064555713E-01  0.78860683500E-01 -0.10458746293E+00  0.89152336387E+00  0.88000000000E+00 0.  1.
        -11    1    4    4    0    0  0.32940082666E-02 -0.15415894066E-01  0.25719449257E-01  0.30170374068E-01  0.51100000000E-03 0. -1.
         11    1    4    4    0    0  0.42832238065E-01 -0.42104545435E-01  0.77725434456E-01  0.98228802529E-01  0.51100000000E-03 0.  1.
</event>
<event>
 8    1  0.1183092E+005  0.1043930E+01  0.7957747E-01            NaN
         13   -1    0    0    0    0  0.00000000000E+00  0.00000000000E+00  0.74505805969E-08  0.10566000000E+00  0.10566000000E+00 0.  1.
     999900   -1    0    0    0    0 -0.00000000000E+00 -0.00000000000E+00 -0.74505805969E-08  0.93827000000E+00  0.93827000000E+00 0. -1.
     999902    2    1    2    0    0  0.20837701984E-01  0.11064819047E-01  0.39668333136E-02  0.10200056231E+01  0.10197250096E+01 0.  0.
     999903    2    3    3    0    0 -0.20945471047E-01  0.31602233046E-01 -0.12260347068E+00  0.12973169851E+00  0.19007595399E-01 0.  0.
         14    1    1    2    0    0 -0.20837701984E-01 -0.11064819047E-01 -0.39668333136E-02  0.23924376921E-01  0.00000000000E+00 0.  1.
     999901    1    3    3    0    0  0.41783173032E-01 -0.20537413999E-01  0.12657030400E+00  0.89027392457E+00  0.88000000000E+00 0.  1.
        -11    1    4    4    0    0 -0.35285602534E-02  0.13873577466E-01 -0.23188563999E-01  0.27256146288E-01  0.51100000000E-03 0. -1.
         11    1    4    4    0    0 -0.17416910794E-01  0.17728655580E-01 -0.99414906683E-01  0.10247555222E+00  0.51100000000E-03 0.  1.
</event>
<event>
 8    1  0.1183092E+005  0.1043930E+01  0.7957747E-01            NaN
         13   -1    0    0    0    0  0.00000000000E+00  0.00000000000E+00  0.74505805969E-08  0.10566000000E+00  0.10566000000E+00 0.  1.
     999900   -1    0    0    0    0 -0.00000000000E+00 -0.00000000000E+00 -0.74505805969E-08  0.93827000000E+00  0.93827000000E+00 0.  1.
     999902    2    1    2    0    0 -0.10869010592E-01 -0.15973218936E-01 -0.13909204492E-01  0.10201235915E+01  0.10198457711E+01 0.  0.
     999903    2    3    3    0    0  0.31234426706E-01  0.19164891640E-01  0.12099460458E+00  0.12815586569E+00  0.21008310006E-01 0.  0.
         14    1    1    2    0    0  0.10869010592E-01  0.15973218936E-01  0.13909204492E-01  0.23806408465E-01  0.00000000000E+00 0.  1.
     999901    1    3    3    0    0 -0.42103437298E-01 -0.35138110576E-01 -0.13490380907E+00  0.89196772585E+00  0.88000000000E+00 0.  1.
        -11    1    4    4    0    0  0.19881512116E-01  0.14778730592E-01  0.46670795137E-01  0.52840416744E-01  0.51100000000E-03 0. -1.
         11    1    4    4    0    0  0.11352914591E-01  0.43861610482E-02  0.74323809445E-01  0.75315448946E-01  0.51100000000E-03 0.  1.
</event>
<event>
 8    1  0.1183092E+005  0.1043930E+01  0.7957747E-01            NaN
         13   -1    0    0    0    0  0.00000000000E+00  0.00000000000E+00  0.74505805969E-08  0.10566000000E+00  0.10566000000E+00 0.  1.
     999900   -1    0    0    0    0 -0.00000000000E+00 -0.00000000000E+00 -0.74505805969E-08  0.93827000000E+00  0.93827000000E+00 0. -1.
     999902    2    1    2    0    0 -0.48388025259E-02  0.14954672340E-01  0.17354448555E-01  0.10205156215E+01  0.10202469802E+01 0.  0.
     999903    2    3    3    0    0 -0.52178590114E-02 -0.10101831812E+00 -0.75827861782E-01  0.12802874702E+00  0.20237806073E-01 0.  0.
         14    1    1    2    0    0  0.48388025259E-02 -0.14954672340E-01 -0.17354448555E-01  0.23414378474E-01  0.00000000000E+00 0. -1.
     999901    1    3    3    0    0  0.37905648549E-03  0.11597299046E+00  0.93182310336E-01  0.89248687450E+00  0.88000000000E+00 0. -1.
        -11    1    4    4    0    0 -0.11873903919E-01 -0.38953085036E-01 -0.30747205957E-01  0.51029248704E-01  0.51100000000E-03 0. -1.
         11    1    4    4    0    0  0.66560449074E-02 -0.62065233079E-01 -0.45080655825E-01  0.76999498320E-01  0.51100000000E-03 0.  1.
</event>
<event>
 8    1  0.1183092E+005  0.1043930E+01  0.7957747E-01            NaN
         13   -1    0    0    0    0  0.00000000000E+00  0.00000000000E+00  0.74505805969E-08  0.10566000000E+00  0.10566000000E+00 0. -1.
     999900   -1    0    0    0    0 -0.00000000000E+00 -0.00000000000E+00 -0.74505805969E-08  0.93827000000E+00  0.93827000000E+00 0.  1.
     999902    2    1    2    0    0 -0.67851076294E-02  0.14035144101E-01 -0.17519309742E-01  0.10204790049E+01  0.10202095130E+01 0.  0.
     999903    2    3    3    0    0 -0.20088658701E-01  0.12672716133E+00 -0.29149829965E-01  0.13311676537E+00  0.20175059055E-01 0.  0.
         14    1    1    2    0    0  0.67851076294E-02 -0.14035144101E-01  0.17519309742E-01  0.23450995060E-01  0.00000000000E+00 0. -1.
     999901    1    3    3    0    0  0.13303551072E-01 -0.11269201723E+00  0.11630520223E-01  0.88736223957E+00  0.88000000000E+00 0. -1.
        -11    1    4    4    0    0 -0.77147446006E-02  0.94616637379E-01 -0.15983017028E-01  0.96268080418E-01  0.51100000000E-03 0. -1.
         11    1    4    4    0    0 -0.12373914101E-01  0.32110523950E-01 -0.13166812937E-01  0.36848684949E-01  0.51100000000E-03 0.  1.
</event>
<event>
 8    1  0.1183092E+005  0.1043930E+01  0.7957747E-01            NaN
         13   -1    0    0    0    0  0.00000000000E+00  0.00000000000E+00  0.74505805969E-08  0.10566000000E+00  0.10566000000E+00 0.  1.
     999900   -1    0    0    0    0 -0.00000000000E+00 -0.00000000000E+00 -0.74505805969E-08  0.93827000000E+00  0.93827000000E+00 0. -1.
     999902    2    1    2    0    0  0.83662167639E-02  0.20779980861E-01  0.78543337249E-02  0.10201920189E+01  0.10199158121E+01 0.  0.
     999903    2    3    3    0    0 -0.25166848208E-01  0.91903077704E-01  0.90426395075E-01  0.13283577329E+00  0.19719629758E-01 0.  0.
         14    1    1    2    0    0 -0.83662167639E-02 -0.20779980861E-01 -0.78543337249E-02  0.23737981080E-01  0.00000000000E+00 0. -1.
     999901    1    3    3    0    0  0.33533064972E-01 -0.71123096843E-01 -0.82572061350E-01  0.88735624563E+00  0.88000000000E+00 0.  1.
        -11    1    4    4    0    0 -0.18948813846E-02  0.31355292386E-01  0.20821948249E-01  0.37690311566E-01  0.51100000000E-03 0.  1.
         11    1    4    4    0    0 -0.23271966823E-01  0.60547785318E-01  0.69604446826E-01  0.95145461719E-01  0.51100000000E-03 0. -1.
</event>
<event>
 8    1  0.1183092E+005  0.1043930E+01  0.7957747E-01            NaN
         13   -1    0    0    0    0  0.00000000000E+00  0.00000000000E+00  0.74505805969E-08  0.10566000000E+00  0.10566000000E+00 0. -1.
     999900   -1    0    0    0    0 -0.00000000000E+00 -0.00000000000E+00 -0.74505805969E-08  0.93827000000E+00  0.93827000000E+00 0. -1.
     999902    2    1    2    0    0 -0.24130912859E-01 -0.12800792596E-03  0.25553374705E-02  0.10196638283E+01  0.10193750417E+01 0.  0.
     999903    2    3    3    0    0  0.16751274744E-01 -0.88234263238E-01 -0.90889180455E-01  0.12940210078E+00  0.20449208957E-01 0.  0.
         14    1    1    2    0    0  0.24130912859E-01  0.12800792596E-03 -0.25553374705E-02  0.24266171742E-01  0.00000000000E+00 0.  1.
     999901    1    3    3    0    0 -0.40882187603E-01  0.88106255312E-01  0.93444517925E-01  0.89026172748E+00  0.88000000000E+00 0.  1.
        -11    1    4    4    0    0  0.15005951806E-01 -0.28362993082E-01 -0.28621164343E-01  0.43000815522E-01  0.51100000000E-03 0. -1.
         11    1    4    4    0    0  0.17453229381E-02 -0.59871270156E-01 -0.62268016112E-01  0.86401285255E-01  0.51100000000E-03 0.  1.
</event>
<event>
 8    1  0.1183092E+005  0.1043930E+01  0.7957747E-01            NaN
         13   -1    0    0    0    0  0.00000000000E+00  0.00000000000E+00  0.74505805969E-08  0.10566000000E+00  0.10566000000E+00 0.  1.
     999900   -1    0    0    0    0 -0.00000000000E+00 -0.00000000000E+00 -0.74505805969E-08  0.93827000000E+00  0.93827000000E+00 0. -1.
     999902    2    1    2    0    0 -0.68191366019E-02  0.22213168762E-01 -0.74736471623E-02  0.10195213767E+01  0.10192291482E+01 0.  0.
     999903    2    3    3    0    0 -0.13928602227E-01  0.12455128411E+00  0.36953716229E-01  0.13244898675E+00  0.21682449479E-01 0.  0.
         14    1    1    2    0    0  0.68191366019E-02 -0.22213168762E-01  0.74736471623E-02  0.24408623319E-01  0.00000000000E+00 0. -1.
     999901    1    3    3    0    0  0.71094656247E-02 -0.10233811535E+00 -0.44427363391E-01  0.88707238993E+00  0.88000000000E+00 0. -1.
        -11    1    4    4    0    0  0.23265478817E-02  0.45095098803E-01  0.20952837576E-01  0.49782158296E-01  0.51100000000E-03 0. -1.
         11    1    4    4    0    0 -0.16255150108E-01  0.79456185306E-01  0.16000878653E-01  0.82666828457E-01  0.51100000000E-03 0.  1.
</event>
<event>
 8    1  0.1183092E+005  0.1043930E+01  0.7957747E-01            NaN
         13   -1    0    0    0    0  0.00000000000E+00  0.00000000000E+00  0.74505805969E-08  0.10566000000E+00  0.10566000000E+00 0. -1.
     999900   -1    0    0    0    0 -0.00000000000E+00 -0.00000000000E+00 -0.74505805969E-08  0.93827000000E+00  0.93827000000E+00 0.  1.
     999902    2    1    2    0    0  0.44848783981E-02 -0.23181157866E-01  0.33793205455E-03  0.10203165629E+01  0.10200432805E+01 0.  0.
     999903    2    3    3    0    0  0.94419266609E-02 -0.13040735084E+00  0.18749328922E-01  0.13360296294E+00  0.20074542087E-01 0.  0.
         14    1    1    2    0    0 -0.44848783981E-02  0.23181157866E-01 -0.33793205455E-03  0.23613437114E-01  0.00000000000E+00 0. -1.
     999901    1    3    3    0    0 -0.49570482628E-02  0.10722619298E+00 -0.18411396868E-01  0.88671359994E+00  0.88000000000E+00 0. -1.
        -11    1    4    4    0    0  0.13303570077E-01 -0.59729618824E-01  0.42086326304E-02  0.61339922165E-01  0.51100000000E-03 0. -1.
         11    1    4    4    0    0 -0.38616434162E-02 -0.70677732017E-01  0.14540696292E-01  0.72263040779E-01  0.51100000000E-03 0.  1.
</event>
<event>
 8    1  0.1183092E+005  0.1043930E+01  0.7957747E-01            NaN
         13   -1    0    0    0    0  0.00000000000E+00  0.00000000000E+00  0.74505805969E-08  0.10566000000E+00  0.10566000000E+00 0.  1.
     999900   -1    0    0    0    0 -0.00000000000E+00 -0.00000000000E+00 -0.74505805969E-08  0.93827000000E+00  0.93827000000E+00 0.  1.
     999902    2    1    2    0    0 -0.24224062340E-02 -0.14715460553E-01 -0.17076521068E-01  0.10212579819E+01  0.10210062905E+01 0.  0.
     999903    2    3    3    0    0 -0.91541308001E-01 -0.66031061211E-01 -0.69084414902E-01  0.13374443807E+00  0.19365077271E-01 0.  0.
         14    1    1    2    0    0  0.24224062340E-02  0.14715460553E-01  0.17076521068E-01  0.22672018063E-01  0.00000000000E+00 0.  1.
     999901    1    3    3    0    0  0.89118901767E-01  0.51315600658E-01  0.52007893834E-01  0.88751354387E+00  0.88000000000E+00 0. -1.
        -11    1    4    4    0    0 -0.53687270428E-01 -0.38781128320E-01 -0.51490231952E-01  0.83891620721E-01  0.51100000000E-03 0.  1.
         11    1    4    4    0    0 -0.37854037573E-01 -0.27249932891E-01 -0.17594182950E-01  0.49852817351E-01  0.51100000000E-03 0. -1.
</event>
<event>
 8    1  0.1183092E+005  0.1043930E+01  0.7957747E-01            NaN
         13   -1    0    0    0    0  0.00000000000E+00  0.00000000000E+00  0.74505805969E-08  0.10566000000E+00  0.10566000000E+00 0.  1.
     999900   -1    0    0    0    0 -0.00000000000E+00 -0.00000000000E+00 -0.74505805969E-08  0.93827000000E+00  0.93827000000E+00 0. -1.
     999902    2    1    2    0    0 -0.13793598168E-01  0.19570567653E-01  0.49445413661E-02  0.10194817085E+01  0.10191885179E+01 0.  0.
     999903    2    3    3    0    0  0.45051896361E-01  0.90774550337E-01 -0.79919462305E-01  0.13058649616E+00  0.19900255513E-01 0.  0.
         14    1    1    2    0    0  0.13793598168E-01 -0.19570567653E-01 -0.49445413661E-02  0.24448291515E-01  0.00000000000E+00 0. -1.
     999901    1    3    3    0    0 -0.58845494529E-01 -0.71203982684E-01  0.84864003671E-01  0.88889521233E+00  0.88000000000E+00 0.  1.
        -11    1    4    4    0    0  0.26935107630E-01  0.59995769641E-01 -0.39805243952E-01  0.76874644487E-01  0.51100000000E-03 0.  1.
         11    1    4    4    0    0  0.18116788732E-01  0.30778780696E-01 -0.40114218353E-01  0.53711851673E-01  0.51100000000E-03 0. -1.
</event>
<event>
 8    1  0.1183092E+005  0.1043930E+01  0.7957747E-01            NaN
         13   -1    0    0    0    0  0.00000000000E+00  0.00000000000E+00  0.74505805969E-08  0.10566000000E+00  0.10566000000E+00 0.  1.
     999900   -1    0    0    0    0 -0.00000000000E+00 -0.00000000000E+00 -0.74505805969E-08  0.93827000000E+00  0.93827000000E+00 0. -1.
     999902    2    1    2    0    0  0.14752697587E-01 -0.12155619571E-01  0.15020630949E-01  0.10196190862E+01  0.10193292209E+01 0.  0.
     999903    2    3    3    0    0  0.35360880388E-01 -0.85633532151E-01 -0.89313767206E-01  0.13017579549E+00  0.19628933470E-01 0.  0.
         14    1    1    2    0    0 -0.14752697587E-01  0.12155619571E-01 -0.15020630949E-01  0.24310913750E-01  0.00000000000E+00 0.  1.
     999901    1    3    3    0    0 -0.20608182801E-01  0.73477912579E-01  0.10433439815E+00  0.88944329076E+00  0.88000000000E+00 0.  1.
        -11    1    4    4    0    0  0.75878368233E-02 -0.17444655902E-01 -0.30455357272E-01  0.35912131582E-01  0.51100000000E-03 0. -1.
         11    1    4    4    0    0  0.27773043565E-01 -0.68188876248E-01 -0.58858409934E-01  0.94263663910E-01  0.51100000000E-03 0.  1.
</event>
<event>
 8    1  0.1183092E+005  0.1043930E+01  0.7957747E-01            NaN
         13   -1    0    0    0    0  0.00000000000E+00  0.00000000000E+00  0.74505805969E-08  0.10566000000E+00  0.10566000000E+00 0.  1.
     999900   -1    0    0    0    0 -0.00000000000E+00 -0.00000000000E+00 -0.74505805969E-08  0.93827000000E+00  0.93827000000E+00 0.  1.
     999902    2    1    2    0    0 -0.94129926495E-02  0.16492777213E-02  0.21246216023E-01  0.10206335144E+01  0.10203676026E+01 0.  0.
     999903    2    3    3    0    0 -0.19891645158E-01 -0.64223745262E-01  0.11355070132E+00  0.13329526132E+00  0.18801540265E-01 0.  0.
         14    1    1    2    0    0  0.94129926495E-02 -0.16492777213E-02 -0.21246216023E-01  0.23296485635E-01  0.00000000000E+00 0. -1.
     999901    1    3    3    0    0  0.10478652508E-01  0.65873022983E-01 -0.92304485299E-01  0.88733825305E+00  0.88000000000E+00 0.  1.
        -11    1    4    4    0    0 -0.10305614391E-01 -0.56004875661E-01  0.88531342003E-01  0.10526543318E+00  0.51100000000E-03 0. -1.
         11    1    4    4    0    0 -0.95860307673E-02 -0.82188696010E-02  0.25019359320E-01  0.28029828133E-01  0.51100000000E-03 0.  1.
</event>
<event>
 8    1  0.1183092E+005  0.1043930E+01  0.7957747E-01            NaN
         13   -1    0    0    0    0  0.00000000000E+00  0.00000000000E+00  0.74505805969E-08  0.10566000000E+00  0.10566000000E+00 0. -1.
     999900   -1    0    0    0    0 -0.00000000000E+00 -0.00000000000E+00 -0.74505805969E-08  0.93827000000E+00  0.93827000000E+00 0.  1.
     999902    2    1    2    0    0  0.15507957064E-01  0.13609435911E-01  0.12176963197E-01  0.10199718717E+01  0.10196904566E+01 0.  0.
     999903    2    3    3    0    0 -0.85116334271E-01  0.53846969716E-01 -0.77666629971E-01  0.12878380045E+00  0.20220666165E-01 0.  0.
         14    1    1    2    0    0 -0.15507957064E-01 -0.13609435911E-01 -0.12176963197E-01  0.23958128283E-01  0.00000000000E+00 0.  1.
     999901    1    3    3    0    0  0.10062429134E+00 -0.40237533805E-01  0.89843593168E-01  0.89118807127E+00  0.88000000000E+00 0. -1.
        -11    1    4    4    0    0 -0.34846170691E-01  0.18419929793E-01 -0.18883623952E-01  0.43708143406E-01  0.51100000000E-03 0. -1.
         11    1    4    4    0    0 -0.50270163580E-01  0.35427039923E-01 -0.58783006018E-01  0.85075657045E-01  0.51100000000E-03 0.  1.
</event>
<event>
 8    1  0.1183092E+005  0.1043930E+01  0.7957747E-01            NaN
         13   -1    0    0    0    0  0.00000000000E+00  0.00000000000E+00  0.74505805969E-08  0.10566000000E+00  0.10566000000E+00 0.  1.
     999900   -1    0    0    0    0 -0.00000000000E+00 -0.00000000000E+00 -0.74505805969E-08  0.93827000000E+00  0.93827000000E+00 0.  1.
     999902    2    1    2    0    0  0.20333745968E-01  0.27945382904E-02 -0.20690843106E-02  0.10233010936E+01  0.10230931416E+01 0.  0.
     999903    2    3    3    0    0 -0.27092864560E-02 -0.13104930994E+00 -0.15547405177E-01  0.13278055920E+00  0.14411565675E-01 0.  0.
         14    1    1    2    0    0 -0.20333745968E-01 -0.27945382904E-02  0.20690843106E-02  0.20628906399E-01  0.00000000000E+00 0.  1.
     999901    1    3    3    0    0  0.23043032424E-01  0.13384384823E+00  0.13478320866E-01  0.89052053440E+00  0.88000000000E+00 0. -1.
        -11    1    4    4    0    0  0.84940245372E-03 -0.33543895369E-01 -0.10149126244E-01  0.35059667505E-01  0.51100000000E-03 0.  1.
         11    1    4    4    0    0 -0.35586889097E-02 -0.97505414572E-01 -0.53982789323E-02  0.97720891697E-01  0.51100000000E-03 0. -1.
</event>
<event>
 8    1  0.1183092E+005  0.1043930E+01  0.7957747E-01            NaN
         13   -1    0    0    0    0  0.00000000000E+00  0.00000000000E+00  0.74505805969E-08  0.10566000000E+00  0.10566000000E+00 0.  1.
     999900   -1    0    0    0    0 -0.00000000000E+00 -0.00000000000E+00 -0.74505805969E-08  0.93827000000E+00  0.93827000000E+00 0.  1.
     999902    2    1    2    0    0  0.13970683104E-01  0.15997742336E-01  0.11108721259E-01  0.10199610318E+01  0.10196793589E+01 0.  0.
     999903    2    3    3    0    0  0.12781822961E+00  0.27931855109E-01 -0.57469607513E-02  0.13238692175E+00  0.19379915970E-01 0.  0.
         14    1    1    2    0    0 -0.13970683104E-01 -0.15997742336E-01 -0.11108721259E-01  0.23968968151E-01  0.00000000000E+00 0. -1.
     999901    1    3    3    0    0 -0.11384754651E+00 -0.11934112773E-01  0.16855682010E-01  0.88757411009E+00  0.88000000000E+00 0.  1.
        -11    1    4    4    0    0  0.43670406161E-01  0.99865910850E-02  0.72039433210E-02  0.45376142367E-01  0.51100000000E-03 0. -1.
         11    1    4    4    0    0  0.84147823451E-01  0.17945264024E-01 -0.12950904072E-01  0.87010779388E-01  0.51100000000E-03 0.  1.
</event>
<event>
 8    1  0.1183092E+005  0.1043930E+01  0.7957747E-01            NaN
         13   -1    0    0    0    0  0.00000000000E+00  0.00000000000E+00  0.74505805969E-08  0.10566000000E+00  0.10566000000E+00 0.  1.
     999900   -1    0    0    0    0 -0.00000000000E+00 -0.00000000000E+00 -0.74505805969E-08  0.93827000000E+00  0.93827000000E+00 0. -1.
     999902    2    1    2    0    0  0.16304636948E-01 -0.12245698943E-01  0.15829867305E-01  0.10181156043E+01  0.10177882887E+01 0.  0.
     999903    2    3    3    0    0 -0.11263794158E+00  0.52442433490E-01  0.10584329744E-01  0.12635428042E+00  0.20392680813E-01 0.  0.
         14    1    1    2    0    0 -0.16304636948E-01  0.12245698943E-01 -0.15829867305E-01  0.25814395741E-01  0.00000000000E+00 0.  1.
     999901    1    3    3    0    0  0.12894257852E+00 -0.64688132432E-01  0.52455375611E-02  0.89176132384E+00  0.88000000000E+00 0. -1.
        -11    1    4    4    0    0 -0.14830464095E-01  0.43277727439E-02  0.78048909802E-02  0.17316169507E-01  0.51100000000E-03 0.  1.
         11    1    4    4    0    0 -0.97807477482E-01  0.48114660746E-01  0.27794387637E-02  0.10903811091E+00  0.51100000000E-03 0. -1.
</event>
<event>
 8    1  0.1183092E+005  0.1043930E+01  0.7957747E-01            NaN
         13   -1    0    0    0    0  0.00000000000E+00  0.00000000000E+00  0.74505805969E-08  0.10566000000E+00  0.10566000000E+00 0.  1.
     999900   -1    0    0    0    0 -0.00000000000E+00 -0.00000000000E+00 -0.74505805969E-08  0.93827000000E+00  0.93827000000E+00 0. -1.
     999902    2    1    2    0    0 -0.27564191794E-02  0.12706105989E-01 -0.19638675403E-01  0.10203774938E+01  0.10201056364E+01 0.  0.
     999903    2    3    3    0    0 -0.47970514525E-02  0.11232918387E+00  0.63990178521E-01  0.13081428244E+00  0.19410726154E-01 0.  0.
         14    1    1    2    0    0  0.27564191794E-02 -0.12706105989E-01  0.19638675403E-01  0.23552506187E-01  0.00000000000E+00 0.  1.
     999901    1    3    3    0    0  0.20406322732E-02 -0.99623077884E-01 -0.83628853925E-01  0.88956321138E+00  0.88000000000E+00 0. -1.
        -11    1    4    4    0    0 -0.17942666612E-02  0.71088985128E-01  0.50853081288E-01  0.87425169127E-01  0.51100000000E-03 0.  1.
         11    1    4    4    0    0 -0.30027847914E-02  0.41240198745E-01  0.13137097233E-01  0.43389113309E-01  0.51100000000E-03 0. -1.
</event>
<event>
 8    1  0.1183092E+005  0.1043930E+01  0.7957747E-01            NaN
         13   -1    0    0    0    0  0.00000000000E+00  0.00000000000E+00  0.74505805969E-08  0.10566000000E+00  0.10566000000E+00 0.  1.
     999900   -1    0    0    0    0 -0.00000000000E+00 -0.00000000000E+00 -0.74505805969E-08  0.93827000000E+00  0.93827000000E+00 0. -1.
     999902    2    1    2    0    0  0.20027030809E-01  0.83365048939E-02 -0.91652270437E-02  0.10203804636E+01  0.10201086755E+01 0.  0.
     999903    2    3    3    0    0 -0.60500826980E-01 -0.35716144217E-01  0.10511270814E+00  0.12825669517E+00  0.21566302895E-01 0.  0.
         14    1    1    2    0    0 -0.20027030809E-01 -0.83365048939E-02  0.91652270437E-02  0.23549536378E-01  0.00000000000E+00 0.  1.
     999901    1    3    3    0    0  0.80527857789E-01  0.44052649111E-01 -0.11427793518E+00  0.89212376846E+00  0.88000000000E+00 0. -1.
        -11    1    4    4    0    0 -0.45591612155E-01 -0.33344597734E-01  0.69409958710E-01  0.89490003833E-01  0.51100000000E-03 0.  1.
         11    1    4    4    0    0 -0.14909214825E-01 -0.23715464828E-02  0.35702749425E-01  0.38766691333E-01  0.51100000000E-03 0. -1.
</event>
<event>
 8    1  0.1183092E+005  0.1043930E+01  0.7957747E-01            NaN
         13   -1    0    0    0    0  0.00000000000E+00  0.00000000000E+00  0.74505805969E-08  0.10566000000E+00  0.10566000000E+00 0. -1.
     999900   -1    0    0    0    0 -0.00000000000E+00 -0.00000000000E+00 -0.74505805969E-08  0.93827000000E+00  0.93827000000E+00 0.  1.
     999902    2    1    2    0    0 -0.15411440884E-01  0.75579365257E-02 -0.15480136851E-01  0.10208157284E+01  0.10205540073E+01 0.  0.
     999903    2    3    3    0    0  0.47405518962E-01 -0.10778049786E+00  0.48129960363E-01  0.12879825696E+00  0.20213336272E-01 0.  0.
         14    1    1    2    0    0  0.15411440884E-01 -0.75579365257E-02  0.15480136851E-01  0.23114271600E-01  0.00000000000E+00 0. -1.
     999901    1    3    3    0    0 -0.62816959846E-01  0.11533843439E+00 -0.63610097214E-01  0.89201747144E+00  0.88000000000E+00 0.  1.
        -11    1    4    4    0    0  0.16569641141E-01 -0.48959190362E-01  0.11509329105E-01  0.52955463419E-01  0.51100000000E-03 0.  1.
         11    1    4    4    0    0  0.30835877821E-01 -0.58821307501E-01  0.36620631258E-01  0.75842793539E-01  0.51100000000E-03 0. -1.
</event>
<event>
 8    1  0.1183092E+005  0.1043930E+01  0.7957747E-01            NaN
         13   -1    0    0    0    0  0.00000000000E+00  0.00000000000E+00  0.74505805969E-08  0.10566000000E+00  0.10566000000E+00 0. -1.
     999900   -1    0    0    0    0 -0.00000000000E+00 -0.00000000000E+00 -0.74505805969E-08  0.93827000000E+00  0.93827000000E+00 0.  1.
     999902    2    1    2    0    0 -0.13586892366E-01 -0.93084994552E-02 -0.16858748057E-01  0.10203616061E+01  0.10200893774E+01 0.  0.
     999903    2    3    3    0    0 -0.97274873422E-01  0.94153531701E-02  0.84074522645E-01  0.13045049480E+00  0.19943830148E-01 0.  0.
         14    1    1    2    0    0  0.13586892366E-01  0.93084994552E-02  0.16858748057E-01  0.23568393928E-01  0.00000000000E+00 0. -1.
     999901    1    3    3    0    0  0.83687981056E-01 -0.18723852625E-01 -0.10093327070E+00  0.88991111127E+00  0.88000000000E+00 0.  1.
        -11    1    4    4    0    0 -0.62800201740E-01  0.15221505050E-01  0.50999130936E-01  0.82320908837E-01  0.51100000000E-03 0. -1.
         11    1    4    4    0    0 -0.34474671683E-01 -0.58061518797E-02  0.33075391709E-01  0.48129585963E-01  0.51100000000E-03 0.  1.
</event>
<event>
 7    1  0.1183092E+005  0.1043930E+01  0.7957747E-01            NaN
         13   -1    0    0    0    0  0.00000000000E+00  0.00000000000E+00  0.74505805969E-08  0.10566000000E+00  0.10566000000E+00 0. -1.
     999900   -1    0    0    0    0 -0.00000000000E+00 -0.00000000000E+00 -0.74505805969E-08  0.93827000000E+00  0.93827000000E+00 0. -1.
     999903    2    1    2    0    0 -0.80823910712E-01  0.23213587179E-01 -0.73253001507E-01  0.11336187625E+00  0.20335623542E-01 0.  0.
         14    1    1    2    0    0  0.14819392559E-02 -0.23948199404E-01 -0.32818432338E-01  0.40654174444E-01  0.00000000000E+00 0.  1.
     999901    1    1    2    0    0  0.79341971456E-01  0.73461222445E-03  0.10607143384E+00  0.88991394930E+00  0.88000000000E+00 0.  1.
        -11    1    3    3    0    0 -0.37838740666E-01  0.62647182021E-03 -0.34894079501E-01  0.51478351444E-01  0.51100000000E-03 0. -1.
         11    1    3    3    0    0 -0.42985170046E-01  0.22587115359E-01 -0.38358922006E-01  0.61883524807E-01  0.51100000000E-03 0.  1.
</event>
<event>
 8    1  0.1183092E+005  0.1043930E+01  0.7957747E-01            NaN
         13   -1    0    0    0    0  0.00000000000E+00  0.00000000000E+00  0.74505805969E-08  0.10566000000E+00  0.10566000000E+00 0.  1.
     999900   -1    0    0    0    0 -0.00000000000E+00 -0.00000000000E+00 -0.74505805969E-08  0.93827000000E+00  0.93827000000E+00 0.  1.
     999902    2    1    2    0    0 -0.84637423458E-02 -0.41633627564E-02  0.22033942337E-01  0.10199620393E+01  0.10196803904E+01 0.  0.
     999903    2    3    3    0    0 -0.76896267440E-01  0.39316399871E-01 -0.93282441875E-01  0.12874300412E+00  0.20355144371E-01 0.  0.
         14    1    1    2    0    0  0.84637423458E-02  0.41633627564E-02 -0.22033942337E-01  0.23967960674E-01  0.00000000000E+00 0. -1.
     999901    1    3    3    0    0  0.68432525094E-01 -0.43479762627E-01  0.11531638421E+00  0.89121903521E+00  0.88000000000E+00 0. -1.
        -11    1    4    4    0    0 -0.66614678421E-01  0.25126240414E-01 -0.75211563806E-01  0.10356584278E+00  0.51100000000E-03 0.  1.
         11    1    4    4    0    0 -0.10281589018E-01  0.14190159456E-01 -0.18070878069E-01  0.25177161344E-01  0.51100000000E-03 0. -1.
</event>
<event>
 8    1  0.1183092E+005  0.1043930E+01  0.7957747E-01            NaN
         13   -1    0    0    0    0  0.00000000000E+00  0.00000000000E+00  0.74505805969E-08  0.10566000000E+00  0.10566000000E+00 0. -1.
     999900   -1    0    0    0    0 -0.00000000000E+00 -0.00000000000E+00 -0.74505805969E-08  0.93827000000E+00  0.93827000000E+00 0.  1.
     999902    2    1    2    0    0  0.16560345273E-01 -0.45207223353E-02  0.15744450261E-01  0.10206368748E+01  0.10203710406E+01 0.  0.
     999903    2    3    3    0    0 -0.30565490827E-01 -0.34442235138E-01 -0.11853624058E+00  0.12870221058E+00  0.19821752912E-01 0.  0.
         14    1    1    2    0    0 -0.16560345273E-01  0.45207223353E-02 -0.15744450261E-01  0.23293125167E-01  0.00000000000E+00 0.  1.
     999901    1    3    3    0    0  0.47125836100E-01  0.29921512803E-01  0.13428069084E+00  0.89193466425E+00  0.88000000000E+00 0. -1.
        -11    1    4    4    0    0 -0.18639608722E-01 -0.11183349936E-01 -0.73278795590E-01  0.76436544488E-01  0.51100000000E-03 0.  1.
         11    1    4    4    0    0 -0.11925882104E-01 -0.23258885202E-01 -0.45257444987E-01  0.52265666097E-01  0.51100000000E-03 0. -1.
</event>
<event>
 8    1  0.1183092E+005  0.1043930E+01  0.7957747E-01            NaN
         13   -1    0    0    0    0  0.00000000000E+00  0.00000000000E+00  0.74505805969E-08  0.10566000000E+00  0.10566000000E+00 0.  1.
     999900   -1    0    0    0    0 -0.00000000000E+00 -0.00000000000E+00 -0.74505805969E-08  0.93827000000E+00  0.93827000000E+00 0. -1.
     999902    2    1    2    0    0  0.14211718568E-02 -0.63426689104E-02 -0.22895275199E-01  0.10201299411E+01  0.10198522706E+01 0.  0.
     999903    2    3    3    0    0 -0.77656506880E-01 -0.72529180501E-01 -0.76723847365E-01  0.13247491305E+00  0.19288306022E-01 0.  0.
         14    1    1    2    0    0 -0.14211718568E-02  0.63426689104E-02  0.22895275199E-01  0.23800058924E-01  0.00000000000E+00 0.  1.
     999901    1    3    3    0    0  0.79077678737E-01  0.66186511591E-01  0.53828572166E-01  0.88765502802E+00  0.88000000000E+00 0. -1.
        -11    1    4    4    0    0 -0.14787514632E-01 -0.25437880395E-01 -0.21923768075E-01  0.36696990007E-01  0.51100000000E-03 0.  1.
         11    1    4    4    0    0 -0.62868992248E-01 -0.47091300106E-01 -0.54800079291E-01  0.95777923047E-01  0.51100000000E-03 0. -1.
</event>
<event>
 8    1  0.1183092E+005  0.1043930E+01  0.7957747E-01            NaN
         13   -1    0    0    0    0  0.00000000000E+00  0.00000000000E+00  0.74505805969E-08  0.10566000000E+00  0.10566000000E+00 0.  1.
     999900   -1    0    0    0    0 -0.00000000000E+00 -0.00000000000E+00 -0.74505805969E-08  0.93827000000E+00  0.93827000000E+00 0.  1.
     999902    2    1    2    0    0 -0.24301751217E-02  0.23244714438E-01  0.71425338126E-02  0.10194915408E+01  0.10191985888E+01 0.  0.
     999903    2    3    3    0    0  0.82129514893E-01  0.81813652939E-01 -0.58054643621E-01  0.13110461286E+00  0.19476828367E-01 0.  0.
         14    1    1    2    0    0  0.24301751217E-02 -0.23244714438E-01 -0.71425338126E-02  0.24438459233E-01  0.00000000000E+00 0.  1.
     999901    1    3    3    0    0 -0.84559690014E-01 -0.58568938500E-01  0.65197177434E-01  0.88838692791E+00  0.88000000000E+00 0.  1.
        -11    1    4    4    0    0  0.35658527691E-01  0.44485405080E-01 -0.20181182696E-01  0.60481593219E-01  0.51100000000E-03 0. -1.
         11    1    4    4    0    0  0.46470987201E-01  0.37328247858E-01 -0.37873460925E-01  0.70623019640E-01  0.51100000000E-03 0.  1.
</event>
<event>
 8    1  0.1183092E+005  0.1043930E+01  0.7957747E-01            NaN
         13   -1    0    0    0    0  0.00000000000E+00  0.00000000000E+00  0.74505805969E-08  0.10566000000E+00  0.10566000000E+00 0.  1.
     999900   -1    0    0    0    0 -0.00000000000E+00 -0.00000000000E+00 -0.74505805969E-08  0.93827000000E+00  0.93827000000E+00 0.  1.
     999902    2    1    2    0    0 -0.25951581986E-02  0.65305505592E-02 -0.21090786323E-01  0.10216992959E+01  0.10214574132E+01 0.  0.
     999903    2    3    3    0    0 -0.10711717906E+00  0.47672553295E-01 -0.60010317467E-01  0.13370591353E+00  0.23005884556E-01 0.  0.
         14    1    1    2    0    0  0.25951581986E-02 -0.65305505592E-02  0.21090786323E-01  0.22230704092E-01  0.00000000000E+00 0.  1.
     999901    1    3    3    0    0  0.10452202086E+00 -0.41142002736E-01  0.38919531144E-01  0.88799338237E+00  0.88000000000E+00 0. -1.
        -11    1    4    4    0    0 -0.62217879175E-01  0.20478900371E-01 -0.43672971390E-01  0.78727627936E-01  0.51100000000E-03 0. -1.
         11    1    4    4    0    0 -0.44899299885E-01  0.27193652924E-01 -0.16337346077E-01  0.54978285599E-01  0.51100000000E-03 0.  1.
</event>
<event>
 8    1  0.1183092E+005  0.1043930E+01  0.7957747E-01            NaN
         13   -1    0    0    0    0  0.00000000000E+00  0.00000000000E+00  0.74505805969E-08  0.10566000000E+00  0.10566000000E+00 0.  1.
     999900   -1    0    0    0    0 -0.00000000000E+00 -0.00000000000E+00 -0.74505805969E-08  0.93827000000E+00  0.93827000000E+00 0.  1.
     999902    2    1    2    0    0  0.81186795186E-02 -0.18612548347E-01 -0.12281818460E-01  0.10201985235E+01  0.10199224698E+01 0.  0.
     999903    2    3    3    0    0 -0.88443289022E-01  0.19639845484E-01  0.88804719354E-01  0.12834318346E+00  0.19435937244E-01 0.  0.
         14    1    1    2    0    0 -0.81186795186E-02  0.18612548347E-01  0.12281818460E-01  0.23731476519E-01  0.00000000000E+00 0.  1.
     999901    1    3    3    0    0  0.96561968541E-01 -0.38252393831E-01 -0.10108653781E+00  0.89185534002E+00  0.88000000000E+00 0. -1.
        -11    1    4    4    0    0 -0.23482911487E-01  0.28691713591E-02  0.35450329356E-01  0.42622367938E-01  0.51100000000E-03 0.  1.
         11    1    4    4    0    0 -0.64960377536E-01  0.16770674125E-01  0.53354389998E-01  0.85720815519E-01  0.51100000000E-03 0. -1.
</event>
<event>
 8    1  0.1183092E+005  0.1043930E+01  0.7957747E-01            NaN
         13   -1    0    0    0    0  0.00000000000E+00  0.00000000000E+00  0.74505805969E-08  0.10566000000E+00  0.10566000000E+00 0. -1.
     999900   -1    0    0    0    0 -0.00000000000E+00 -0.00000000000E+00 -0.74505805969E-08  0.93827000000E+00  0.93827000000E+00 0.  1.
     999902    2    1    2    0    0  0.12297957573E-01 -0.11407251351E-01  0.16481589589E-01  0.10204138792E+01  0.10201428708E+01 0.  0.
     999903    2    3    3    0    0  0.31149131729E-02 -0.10147943819E+00  0.84109757815E-01  0.13318736001E+00  0.18884979408E-01 0.  0.
         14    1    1    2    0    0 -0.12297957573E-01  0.11407251351E-01 -0.16481589589E-01  0.23516120837E-01  0.00000000000E+00 0.  1.
     999901    1    3    3    0    0  0.91830444006E-02  0.90072186841E-01 -0.67628168226E-01  0.88722651915E+00  0.88000000000E+00 0. -1.
        -11    1    4    4    0    0 -0.73513960087E-03 -0.31664565611E-01  0.37806660835E-01  0.49323319739E-01  0.51100000000E-03 0.  1.
         11    1    4    4    0    0  0.38500527737E-02 -0.69814872582E-01  0.46303096980E-01  0.83864040273E-01  0.51100000000E-03 0. -1.
</event>
<event>
 8    1  0.1183092E+005  0.1043930E+01  0.7957747E-01            NaN
         13   -1    0    0    0    0  0.00000000000E+00  0.00000000000E+00  0.74505805969E-08  0.10566000000E+00  0.10566000000E+00 0.  1.
     999900   -1    0    0    0    0 -0.00000000000E+00 -0.00000000000E+00 -0.74505805969E-08  0.93827000000E+00  0.93827000000E+00 0. -1.
     999902    2    1    2    0    0 -0.13109096533E-01  0.14490569019E-01  0.11465354839E-01  0.10212743304E+01  0.10210230059E+01 0.  0.
     999903    2    3    3    0    0  0.38801339319E-01  0.11618172262E+00 -0.44611208062E-01  0.13212846782E+00  0.21541483698E-01 0.  0.
         14    1    1    2    0    0  0.13109096533E-01 -0.14490569019E-01 -0.11465354839E-01  0.22655669577E-01  0.00000000000E+00 0.  1.
     999901    1    3    3    0    0 -0.51910435852E-01 -0.10169115360E+00  0.56076562901E-01  0.88914586260E+00  0.88000000000E+00 0.  1.
        -11    1    4    4    0    0  0.99964198950E-02  0.16738268585E-01 -0.28178530574E-03  0.19504834526E-01  0.51100000000E-03 0.  1.
         11    1    4    4    0    0  0.28804919424E-01  0.99443454038E-01 -0.44329422756E-01  0.11262363330E+00  0.51100000000E-03 0. -1.
</event>
<event>
 8    1  0.1183092E+005  0.1043930E+01  0.7957747E-01            NaN
         13   -1    0    0    0    0  0.00000000000E+00  0.00000000000E+00  0.74505805969E-08  0.10566000000E+00  0.10566000000E+00 0.  1.
     999900   -1    0    0    0    0 -0.00000000000E+00 -0.00000000000E+00 -0.74505805969E-08  0.93827000000E+00  0.93827000000E+00 0.  1.
     999902    2    1    2    0    0  0.76227817180E-02  0.86421256500E-02 -0.21395047474E-01  0.10196289467E+01  0.10193393192E+01 0.  0.
     999903    2    3    3    0    0  0.32577469026E-01  0.62110837591E-01 -0.11133819672E+00  0.13307866063E+00  0.19866761939E-01 0.  0.
         14    1    1    2    0    0 -0.76227817180E-02 -0.86421256500E-02  0.21395047474E-01  0.24301053337E-01  0.00000000000E+00 0.  1.
     999901    1    3    3    0    0 -0.24954687308E-01 -0.53468711941E-01  0.89943149250E-01  0.88655028604E+00  0.88000000000E+00 0. -1.
        -11    1    4    4    0    0  0.26741248508E-01  0.61346388694E-01 -0.10374772725E+00  0.12345981455E+00  0.51100000000E-03 0.  1.
         11    1    4    4    0    0  0.58362205179E-02  0.76444889716E-03 -0.75904694711E-02  0.96188460764E-02  0.51100000000E-03 0. -1.
</event>
<event>
 8    1  0.1183092E+005  0.1043930E+01  0.7957747E-01            NaN
         13   -1    0    0    0    0  0.00000000000E+00  0.00000000000E+00  0.74505805969E-08  0.10566000000E+00  0.10566000000E+00 0. -1.
     999900   -1    0    0    0    0 -0.00000000000E+00 -0.00000000000E+00 -0.74505805969E-08  0.93827000000E+00  0.93827000000E+00 0.  1.
     999902    2    1    2    0    0 -0.20630675336E-01  0.59444223155E-02 -0.97687744043E-02  0.10203420820E+01  0.10200693969E+01 0.  0.
     999903    2    3    3    0    0  0.40336678811E-01  0.11791849046E+00 -0.34216075951E-01  0.13081811901E+00  0.20268753256E-01 0.  0.
         14    1    1    2    0    0  0.20630675336E-01 -0.59444223155E-02  0.97687744043E-02  0.23587917984E-01  0.00000000000E+00 0.  1.
     999901    1    3    3    0    0 -0.60967354147E-01 -0.11197406814E+00  0.24447301546E-01  0.88952396301E+00  0.88000000000E+00 0.  1.
        -11    1    4    4    0    0  0.22056969109E-01  0.90097114342E-01 -0.28492518046E-01  0.97036511708E-01  0.51100000000E-03 0.  1.
         11    1    4    4    0    0  0.18279709703E-01  0.27821376116E-01 -0.57235579051E-02  0.33781607302E-01  0.51100000000E-03 0. -1.
</event>
<event>
 8    1  0.1183092E+005  0.1043930E+01  0.7957747E-01            NaN
         13   -1    0    0    0    0  0.00000000000E+00  0.00000000000E+00  0.74505805969E-08  0.10566000000E+00  0.10566000000E+00 0. -1.
     999900   -1    0    0    0    0 -0.00000000000E+00 -0.00000000000E+00 -0.74505805969E-08  0.93827000000E+00  0.93827000000E+00 0.  1.
     999902    2    1    2    0    0 -0.24343070832E-02 -0.21671412768E-01  0.97444229304E-02  0.10200442352E+01  0.10197645375E+01 0.  0.
     999903    2    3    3    0    0 -0.80535154857E-02 -0.79628344530E-01 -0.10132300876E+00  0.13115360310E+00  0.23008327554E-01 0.  0.
         14    1    1    2    0    0  0.24343070832E-02  0.21671412768E-01 -0.97444229304E-02  0.23885764810E-01  0.00000000000E+00 0. -1.
     999901    1    3    3    0    0  0.56192084026E-02  0.57956931762E-01  0.11106743169E+00  0.88889063209E+00  0.88000000000E+00 0. -1.
        -11    1    4    4    0    0 -0.31180338040E-02 -0.61171337837E-01 -0.60578087294E-01  0.86148827553E-01  0.51100000000E-03 0.  1.
         11    1    4    4    0    0 -0.49354816817E-02 -0.18457006693E-01 -0.40744921465E-01  0.45004775543E-01  0.51100000000E-03 0. -1.
</event>
<event>
 8    1  0.1183092E+005  0.1043930E+01  0.7957747E-01            NaN
         13   -1    0    0    0    0  0.00000000000E+00  0.00000000000E+00  0.74505805969E-08  0.10566000000E+00  0.10566000000E+00 0. -1.
     999900   -1    0    0    0    0 -0.00000000000E+00 -0.00000000000E+00 -0.74505805969E-08  0.93827000000E+00  0.93827000000E+00 0.  1.
     999902    2    1    2    0    0 -0.20265228024E-01  0.11508583118E-01  0.17115785446E-02  0.10205621491E+01  0.10202945868E+01 0.  0.
     999903    2    3    3    0    0 -0.72166998326E-01 -0.88240844746E-01 -0.62792078466E-01  0.13106540161E+00  0.15516831238E-01 0.  0.
         14    1    1    2    0    0  0.20265228024E-01 -0.11508583118E-01 -0.17115785446E-02  0.23367850850E-01  0.00000000000E+00 0. -1.
     999901    1    3    3    0    0  0.51901770303E-01  0.99749427864E-01  0.64503657010E-01  0.88949674754E+00  0.88000000000E+00 0. -1.
        -11    1    4    4    0    0 -0.42748356196E-01 -0.44133690567E-01 -0.27131462294E-01  0.67168310741E-01  0.51100000000E-03 0. -1.
         11    1    4    4    0    0 -0.29418642130E-01 -0.44107154180E-01 -0.35660616171E-01  0.63897090867E-01  0.51100000000E-03 0.  1.
</event>
<event>
 8    1  0.1183092E+005  0.1043930E+01  0.7957747E-01            NaN
         13   -1    0    0    0    0  0.00000000000E+00  0.00000000000E+00  0.74505805969E-08  0.10566000000E+00  0.10566000000E+00 0. -1.
     999900   -1    0    0    0    0 -0.00000000000E+00 -0.00000000000E+00 -0.74505805969E-08  0.93827000000E+00  0.93827000000E+00 0.  1.
     999902    2    1    2    0    0 -0.20665868619E-01  0.10566826179E-01  0.66895921945E-02  0.10197745330E+01  0.10194884068E+01 0.  0.
     999903    2    3    3    0    0  0.41812118558E-01  0.11233445235E+00 -0.46783681261E-01  0.13010069414E+00  0.19240461011E-01 0.  0.
         14    1    1    2    0    0  0.20665868619E-01 -0.10566826179E-01 -0.66895921945E-02  0.24155466980E-01  0.00000000000E+00 0.  1.
     999901    1    3    3    0    0 -0.62477987177E-01 -0.10176762617E+00  0.53473273455E-01  0.88967383888E+00  0.88000000000E+00 0. -1.
        -11    1    4    4    0    0  0.18434893627E-01  0.39738733371E-01 -0.79872317337E-02  0.44531665416E-01  0.51100000000E-03 0. -1.
         11    1    4    4    0    0  0.23377224931E-01  0.72595718978E-01 -0.38796449527E-01  0.85569028721E-01  0.51100000000E-03 0.  1.
</event>
<event>
 8    1  0.1183092E+005  0.1043930E+01  0.7957747E-01            NaN
         13   -1    0    0    0    0  0.00000000000E+00  0.00000000000E+00  0.74505805969E-08  0.10566000000E+00  0.10566000000E+00 0.  1.
     999900   -1    0    0    0    0 -0.00000000000E+00 -0.00000000000E+00 -0.74505805969E-08  0.93827000000E+00  0.93827000000E+00 0.  1.
     999902    2    1    2    0    0 -0.23255574444E-01 -0.29199454341E-02  0.22063157680E-02  0.10203882147E+01  0.10201166076E+01 0.  0.
     999903    2    3    3    0    0  0.12304394628E+00  0.24647798777E-01  0.14092553409E-01  0.12780499009E+00  0.19702505644E-01 0.  0.
         14    1    1    2    0    0  0.23255574444E-01  0.29199454341E-02 -0.22063157680E-02  0.23541785262E-01  0.00000000000E+00 0. -1.
     999901    1    3    3    0    0 -0.14629952072E+00 -0.27567744211E-01 -0.11886237641E-01  0.89258322465E+00  0.88000000000E+00 0.  1.
        -11    1    4    4    0    0  0.69446146771E-01  0.41587225010E-02  0.56046569412E-02  0.69797819269E-01  0.51100000000E-03 0.  1.
         11    1    4    4    0    0  0.53597799508E-01  0.20489076276E-01  0.84878964676E-02  0.58007170817E-01  0.51100000000E-03 0. -1.
</event>
<event>
 8    1  0.1183092E+005  0.1043930E+01  0.7957747E-01            NaN
         13   -1    0    0    0    0  0.00000000000E+00  0.00000000000E+00  0.74505805969E-08  0.10566000000E+00  0.10566000000E+00 0.  1.
     999900   -1    0    0    0    0 -0.00000000000E+00 -0.00000000000E+00 -0.74505805969E-08  0.93827000000E+00  0.93827000000E+00 0. -1.
     999902    2    1    2    0    0 -0.58045213713E-02 -0.20879229319E-02 -0.23311637249E-01  0.10198160140E+01  0.10195308814E+01 0.  0.
     999903    2    3    3    0    0 -0.10170527067E+00  0.14163170572E-01 -0.80147242902E-01  0.13263433145E+00  0.24974544029E-01 0.  0.
         14    1    1    2    0    0  0.58045213713E-02  0.20879229319E-02  0.23311637249E-01  0.24113986019E-01  0.00000000000E+00 0.  1.
     999901    1    3    3    0    0  0.95900749303E-01 -0.16251093504E-01  0.56835605653E-01  0.88718168254E+00  0.88000000000E+00 0.  1.
        -11    1    4    4    0    0 -0.92975009887E-02 -0.52246393089E-02 -0.12731935389E-01  0.16616367843E-01  0.51100000000E-03 0.  1.
         11    1    4    4    0    0 -0.92407769686E-01  0.19387809881E-01 -0.67415307513E-01  0.11601796360E+00  0.51100000000E-03 0. -1.
</event>
<event>
 7    1  0.1183092E+005  0.1043930E+01  0.7957747E-01            NaN
         13   -1    0    0    0    0  0.00000000000E+00  0.00000000000E+00  0.74505805969E-08  0.10566000000E+00  0.10566000000E+00 0. -1.
     999900   -1    0    0    0    0 -0.00000000000E+00 -0.00000000000E+00 -0.74505805969E-08  0.93827000000E+00  0.93827000000E+00 0. -1.
     999903    2    1    2    0    0  0.57900721414E-01 -0.84571378989E-01 -0.42110289674E-01  0.11245478612E+00  0.19183084726E-01 0.  0.
         14    1    1    2    0    0  0.66555411238E-02  0.22163191526E-02  0.44724900564E-01  0.45271680207E-01  0.00000000000E+00 0. -1.
     999901    1    1    2    0    0 -0.64556262537E-01  0.82355059836E-01 -0.26146108905E-02  0.88620353368E+00  0.88000000000E+00 0. -1.
        -11    1    3    3    0    0  0.48365021897E-01 -0.60455530871E-01 -0.37813395603E-01  0.86163568658E-01  0.51100000000E-03 0. -1.
         11    1    3    3    0    0  0.95356995170E-02 -0.24115848118E-01 -0.42968940709E-02  0.26291217457E-01  0.51100000000E-03 0.  1.
</event>
<event>
 8    1  0.1183092E+005  0.1043930E+01  0.7957747E-01            NaN
         13   -1    0    0    0    0  0.00000000000E+00  0.00000000000E+00  0.74505805969E-08  0.10566000000E+00  0.10566000000E+00 0.  1.
     999900   -1    0    0    0    0 -0.00000000000E+00 -0.00000000000E+00 -0.74505805969E-08  0.93827000000E+00  0.93827000000E+00 0.  1.
     999902    2    1    2    0    0  0.26718508811E-02  0.17893107505E-01 -0.15136271834E-01  0.10203416807E+01  0.10200689862E+01 0.  0.
     999903    2    3    3    0    0 -0.19198744107E-01 -0.39941509049E-02  0.12557821773E+00  0.12862539027E+00  0.19749866805E-01 0.  0.
         14    1    1    2    0    0 -0.26718508811E-02 -0.17893107505E-01  0.15136271834E-01  0.23588319320E-01  0.00000000000E+00 0.  1.
     999901    1    3    3    0    0  0.21870594988E-01  0.21887258410E-01 -0.14071448956E+00  0.89171629041E+00  0.88000000000E+00 0.  1.
        -11    1    4    4    0    0 -0.18134329212E-01 -0.75409478937E-02  0.64328460368E-01  0.67261666092E-01  0.51100000000E-03 0.  1.
         11    1    4    4    0    0 -0.10644148952E-02  0.35467969889E-02  0.61249757358E-01  0.61363724181E-01  0.51100000000E-03 0. -1.
</event>
<event>
 8    1  0.1183092E+005  0.1043930E+01  0.7957747E-01            NaN
         13   -1    0    0    0    0  0.00000000000E+00  0.00000000000E+00  0.74505805969E-08  0.10566000000E+00  0.10566000000E+00 0.  1.
     999900   -1    0    0    0    0 -0.00000000000E+00 -0.00000000000E+00 -0.74505805969E-08  0.93827000000E+00  0.93827000000E+00 0. -1.
     999902    2    1    2    0    0 -0.47416156213E-04  0.24122168361E-01  0.16699869945E-02  0.10197500473E+01  0.10194633338E+01 0.  0.
     999903    2    3    3    0    0 -0.77453716281E-01 -0.80702726045E-01  0.59179858322E-01  0.12829764866E+00  0.21119253397E-01 0.  0.
         14    1    1    2    0    0  0.47416156213E-04 -0.24122168361E-01 -0.16699869945E-02  0.24179952673E-01  0.00000000000E+00 0.  1.
     999901    1    3    3    0    0  0.77406300125E-01  0.10482489441E+00 -0.57509871328E-01  0.89145239867E+00  0.88000000000E+00 0.  1.
        -11    1    4    4    0    0 -0.47439347044E-01 -0.49495130393E-01  0.47632243836E-01  0.83482641037E-01  0.51100000000E-03 0. -1.
         11    1    4    4    0    0 -0.30014369237E-01 -0.31207595652E-01  0.11547614487E-01  0.44815007624E-01  0.51100000000E-03 0.  1.
</event>
<event>
 8    1  0.1183092E+005  0.1043930E+01  0.7957747E-01            NaN
         13   -1    0    0    0    0  0.00000000000E+00  0.00000000000E+00  0.74505805969E-08  0.10566000000E+00  0.10566000000E+00 0.  1.
     999900   -1    0    0    0    0 -0.00000000000E+00 -0.00000000000E+00 -0.74505805969E-08  0.93827000000E+00  0.93827000000E+00 0.  1.
     999902    2    1    2    0    0  0.12530471834E-01 -0.15605300344E-01  0.11154039730E-01  0.10210181968E+01  0.10207610923E+01 0.  0.
     999903    2    3    3    0    0 -0.12260466222E+00 -0.32463585699E-01  0.23636329541E-01  0.13045572634E+00  0.19345099322E-01 0.  0.
         14    1    1    2    0    0 -0.12530471834E-01  0.15605300344E-01 -0.11154039730E-01  0.22911803192E-01  0.00000000000E+00 0.  1.
     999901    1    3    3    0    0  0.13513513405E+00  0.16858285355E-01 -0.12482289811E-01  0.89056247046E+00  0.88000000000E+00 0.  1.
        -11    1    4    4    0    0 -0.62820331701E-01 -0.25864732272E-01  0.88238512119E-02  0.68509122909E-01  0.51100000000E-03 0. -1.
         11    1    4    4    0    0 -0.59784330517E-01 -0.65988534272E-02  0.14812478329E-01  0.61946603435E-01  0.51100000000E-03 0.  1.
</event>
<event>
 8    1  0.1183092E+005  0.1043930E+01  0.7957747E-01            NaN
         13   -1    0    0    0    0  0.00000000000E+00  0.00000000000E+00  0.74505805969E-08  0.10566000000E+00  0.10566000000E+00 0.  1.
     999900   -1    0    0    0    0 -0.00000000000E+00 -0.00000000000E+00 -0.74505805969E-08  0.93827000000E+00  0.93827000000E+00 0. -1.
     999902    2    1    2    0    0 -0.12655258479E-01 -0.19950952446E-01  0.37481497330E-02  0.10200083634E+01  0.10197278150E+01 0.  0.
     999903    2    3    3    0    0 -0.95069952696E-01 -0.45692674680E-01  0.78088264737E-01  0.13266329480E+00  0.19381854222E-01 0.  0.
         14    1    1    2    0    0  0.12655258479E-01  0.19950952446E-01 -0.37481497330E-02  0.23921636589E-01  0.00000000000E+00 0.  1.
     999901    1    3    3    0    0  0.82414694217E-01  0.25741722234E-01 -0.74340115004E-01  0.88734506861E+00  0.88000000000E+00 0. -1.
        -11    1    4    4    0    0 -0.76456164708E-01 -0.32934338470E-01  0.51955937821E-01  0.98132035382E-01  0.51100000000E-03 0.  1.
         11    1    4    4    0    0 -0.18613787988E-01 -0.12758336210E-01  0.26132326916E-01  0.34531259420E-01  0.51100000000E-03 0. -1.
</event>
<event>
 8    1  0.1183092E+005  0.1043930E+01  0.7957747E-01            NaN
         13   -1    0    0    0    0  0.00000000000E+00  0.00000000000E+00  0.74505805969E-08  0.10566000000E+00  0.10566000000E+00 0. -1.
     999900   -1    0    0    0    0 -0.00000000000E+00 -0.00000000000E+00 -0.74505805969E-08  0.93827000000E+00  0.93827000000E+00 0.  1.
     999902    2    1    2    0    0 -0.86828335700E-02  0.19191373640E-01  0.11443553255E-01  0.10199580303E+01  0.10196762860E+01 0.  0.
     999903    2    3    3    0    0 -0.93068827971E-02  0.12837776076E+00  0.27409324445E-01  0.13306628806E+00  0.19695137108E-01 0.  0.
         14    1    1    2    0    0  0.86828335700E-02 -0.19191373640E-01 -0.11443553255E-01  0.23971969716E-01  0.00000000000E+00 0.  1.
     999901    1    3    3    0    0  0.62404922711E-03 -0.10918638713E+00 -0.15965771190E-01  0.88689174222E+00  0.88000000000E+00 0.  1.
        -11    1    4    4    0    0  0.22002565676E-02  0.82767252048E-01  0.12623190902E-01  0.83754792162E-01  0.51100000000E-03 0. -1.
         11    1    4    4    0    0 -0.11507139365E-01  0.45610508717E-01  0.14786133543E-01  0.49311495900E-01  0.51100000000E-03 0.  1.
</event>
<event>
 8    1  0.1183092E+005  0.1043930E+01  0.7957747E-01            NaN
         13   -1    0    0    0    0  0.00000000000E+00  0.00000000000E+00  0.74505805969E-08  0.10566000000E+00  0.10566000000E+00 0. -1.
     999900   -1    0    0    0    0 -0.00000000000E+00 -0.00000000000E+00 -0.74505805969E-08  0.93827000000E+00  0.93827000000E+00 0.  1.
     999902    2    1    2    0    0 -0.10432000483E-01  0.18044697511E-01 -0.70239437993E-02  0.10219351477E+01  0.10216984254E+01 0.  0.
     999903    2    3    3    0    0 -0.65424354647E-01  0.18183431074E-01  0.11179229978E+00  0.13224897941E+00  0.19526671970E-01 0.  0.
         14    1    1    2    0    0  0.10432000483E-01 -0.18044697511E-01  0.70239437993E-02  0.21994852326E-01  0.00000000000E+00 0.  1.
     999901    1    3    3    0    0  0.54992354164E-01 -0.13873356288E-03 -0.11881624358E+00  0.88968616826E+00  0.88000000000E+00 0.  1.
        -11    1    4    4    0    0 -0.16027299972E-01 -0.18969380948E-02  0.16727470914E-01  0.23249561774E-01  0.51100000000E-03 0. -1.
         11    1    4    4    0    0 -0.49397054675E-01  0.20080369169E-01  0.95064828866E-01  0.10899941764E+00  0.51100000000E-03 0.  1.
</event>
<event>
 8    1  0.1183092E+005  0.1043930E+01  0.7957747E-01            NaN
         13   -1    0    0    0    0  0.00000000000E+00  0.00000000000E+00  0.74505805969E-08  0.10566000000E+00  0.10566000000E+00 0. -1.
     999900   -1    0    0    0    0 -0.00000000000E+00 -0.00000000000E+00 -0.74505805969E-08  0.93827000000E+00  0.93827000000E+00 0.  1.
     999902    2    1    2    0    0  0.21232107328E-01 -0.10742528460E-01  0.32710129569E-02  0.10199111777E+01  0.10196283178E+01 0.  0.
     999903    2    3    3    0    0  0.20505242499E-01 -0.10918845993E+00  0.68499444448E-01  0.13202217673E+00  0.19877034685E-01 0.  0.
         14    1    1    2    0    0 -0.21232107328E-01  0.10742528460E-01 -0.32710129569E-02  0.24018822308E-01  0.00000000000E+00 0. -1.
     999901    1    3    3    0    0  0.72686482856E-03  0.98445931466E-01 -0.65228431491E-01  0.88788900096E+00  0.88000000000E+00 0.  1.
        -11    1    4    4    0    0  0.14076790387E-01 -0.95492665678E-01  0.52042580297E-01  0.10966173677E+00  0.51100000000E-03 0.  1.
         11    1    4    4    0    0  0.64284521119E-02 -0.13695794249E-01  0.16456864151E-01  0.22360439963E-01  0.51100000000E-03 0. -1.
</event>
<event>
 8    1  0.1183092E+005  0.1043930E+01  0.7957747E-01            NaN
         13   -1    0    0    0    0  0.00000000000E+00  0.00000000000E+00  0.74505805969E-08  0.10566000000E+00  0.10566000000E+00 0. -1.
     999900   -1    0    0    0    0 -0.00000000000E+00 -0.00000000000E+00 -0.74505805969E-08  0.93827000000E+00  0.93827000000E+00 0. -1.
     999902    2    1    2    0    0 -0.29341819723E-02  0.21387962736E-01 -0.45145514198E-02  0.10218747161E+01  0.10216366770E+01 0.  0.
     999903    2    3    3    0    0 -0.80467604158E-01  0.10194014459E+00  0.27661436414E-01  0.13421747382E+00  0.19553690618E-01 0.  0.
         14    1    1    2    0    0  0.29341819723E-02 -0.21387962736E-01  0.45145514198E-02  0.22055283911E-01  0.00000000000E+00 0. -1.
     999901    1    3    3    0    0  0.77533422186E-01 -0.80552181853E-01 -0.32175987834E-01  0.88765724227E+00  0.88000000000E+00 0.  1.
        -11    1    4    4    0    0 -0.26211828219E-01  0.20202929074E-01  0.43839377457E-02  0.33387098001E-01  0.51100000000E-03 0. -1.
         11    1    4    4    0    0 -0.54255775939E-01  0.81737215515E-01  0.23277498668E-01  0.10083037582E+00  0.51100000000E-03 0.  1.
</event>
<event>
 8    1  0.1183092E+005  0.1043930E+01  0.7957747E-01            NaN
         13   -1    0    0    0    0  0.00000000000E+00  0.00000000000E+00  0.74505805969E-08  0.10566000000E+00  0.10566000000E+00 0. -1.
     999900   -1    0    0    0    0 -0.00000000000E+00 -0.00000000000E+00 -0.74505805969E-08  0.93827000000E+00  0.93827000000E+00 0. -1.
     999902    2    1    2    0    0  0.17782493801E-01  0.11817855693E-01  0.91377624079E-02  0.10207054978E+01  0.10204412456E+01 0.  0.
     999903    2    3    3    0    0  0.44415806076E-01 -0.37322038146E-01  0.11727036977E+00  0.13232679297E+00  0.19807628558E-01 0.  0.
         14    1    1    2    0    0 -0.17782493801E-01 -0.11817855693E-01 -0.91377624079E-02  0.23224502165E-01  0.00000000000E+00 0.  1.
     999901    1    3    3    0    0 -0.26633312275E-01  0.49139893839E-01 -0.10813260737E+00  0.88837870487E+00  0.88000000000E+00 0.  1.
        -11    1    4    4    0    0  0.84686657566E-02 -0.61529248822E-02  0.41925008805E-01  0.43215093065E-01  0.51100000000E-03 0.  1.
         11    1    4    4    0    0  0.35947140319E-01 -0.31169113264E-01  0.75345360968E-01  0.89111699901E-01  0.51100000000E-03 0. -1.
</event>
<event>
 8    1  0.1183092E+005  0.1043930E+01  0.7957747E-01            NaN
         13   -1    0    0    0    0  0.00000000000E+00  0.00000000000E+00  0.74505805969E-08  0.10566000000E+00  0.10566000000E+00 0.  1.
     999900   -1    0    0    0    0 -0.00000000000E+00 -0.00000000000E+00 -0.74505805969E-08  0.93827000000E+00  0.93827000000E+00 0. -1.
     999902    2    1    2    0    0 -0.25118017034E-01  0.25325614023E-02 -0.32760607943E-03  0.10186825056E+01  0.10183695848E+01 0.  0.
     999903    2    3    3    0    0  0.27245125307E-01  0.91199884167E-01 -0.85653717021E-01  0.12857895096E+00  0.11673545532E-01 0.  0.
         14    1    1    2    0    0  0.25118017034E-01 -0.25325614023E-02  0.32760607943E-03  0.25247494385E-01  0.00000000000E+00 0. -1.
     999901    1    3    3    0    0 -0.52363142341E-01 -0.88667322765E-01  0.85326110941E-01  0.89010355466E+00  0.88000000000E+00 0.  1.
        -11    1    4    4    0    0  0.21482496582E-01  0.52868750732E-01 -0.53256172166E-01  0.78058205579E-01  0.51100000000E-03 0.  1.
         11    1    4    4    0    0  0.57626287250E-02  0.38331133435E-01 -0.32397544855E-01  0.50520745381E-01  0.51100000000E-03 0. -1.
</event>
<event>
 8    1  0.1183092E+005  0.1043930E+01  0.7957747E-01            NaN
         13   -1    0    0    0    0  0.00000000000E+00  0.00000000000E+00  0.74505805969E-08  0.10566000000E+00  0.10566000000E+00 0.  1.
     999900   -1    0    0    0    0 -0.00000000000E+00 -0.00000000000E+00 -0.74505805969E-08  0.93827000000E+00  0.93827000000E+00 0. -1.
     999902    2    1    2    0    0 -0.18098484129E-01 -0.13988997451E-01  0.15354872456E-02  0.10210039254E+01  0.10207464968E+01 0.  0.
     999903    2    3    3    0    0 -0.13121916166E+00  0.21100748445E-02  0.15378653817E-01  0.13350907970E+00  0.19111529665E-01 0.  0.
         14    1    1    2    0    0  0.18098484129E-01  0.13988997451E-01 -0.15354872456E-02  0.22926074643E-01  0.00000000000E+00 0. -1.
     999901    1    3    3    0    0  0.11312067753E+00 -0.16099072295E-01 -0.13843166571E-01  0.88749484566E+00  0.88000000000E+00 0.  1.
        -11    1    4    4    0    0 -0.94050233999E-01  0.66541224180E-02  0.17917115930E-01  0.95973996607E-01  0.51100000000E-03 0. -1.
         11    1    4    4    0    0 -0.37168927659E-01 -0.45440475734E-02 -0.25384621126E-02  0.37535083090E-01  0.51100000000E-03 0.  1.
</event>
<event>
 8    1  0.1183092E+005  0.1043930E+01  0.7957747E-01            NaN
         13   -1    0    0    0    0  0.00000000000E+00  0.00000000000E+00  0.74505805969E-08  0.10566000000E+00  0.10566000000E+00 0. -1.
     999900   -1    0    0    0    0 -0.00000000000E+00 -0.00000000000E+00 -0.74505805969E-08  0.93827000000E+00  0.93827000000E+00 0. -1.
     999902    2    1    2    0    0  0.21634969431E-01  0.89756761853E-02 -0.36522752043E-02  0.10202240138E+01  0.10199485598E+01 0.  0.
     999903    2    3    3    0    0 -0.11706921766E+00  0.47565292202E-01  0.11866672444E-01  0.12838947330E+00  0.19374730779E-01 0.  0.
         14    1    1    2    0    0 -0.21634969431E-01 -0.89756761853E-02  0.36522752043E-02  0.23705986152E-01  0.00000000000E+00 0. -1.
     999901    1    3    3    0    0  0.13870418709E+00 -0.38589616017E-01 -0.15518947649E-01  0.89183454055E+00  0.88000000000E+00 0.  1.
        -11    1    4    4    0    0 -0.85390496891E-01  0.26000682671E-01  0.11986384080E-01  0.90063904995E-01  0.51100000000E-03 0.  1.
         11    1    4    4    0    0 -0.31678720771E-01  0.21564609531E-01 -0.11971163514E-03  0.38325568303E-01  0.51100000000E-03 0. -1.
</event>
<event>
 7    1  0.1183092E+005  0.1043930E+01  0.7957747E-01            NaN
         13   -1    0    0    0    0  0.00000000000E+00  0.00000000000E+00  0.74505805969E-08  0.10566000000E+00  0.10566000000E+00 0. -1.
     999900   -1    0    0    0    0 -0.00000000000E+00 -0.00000000000E+00 -0.74505805969E-08  0.93827000000E+00  0.93827000000E+00 0. -1.
     999903    2    1    2    0    0  0.63045951298E-02 -0.47266511644E-02  0.14439086870E+00  0.14602522834E+00  0.20311454768E-01 0.  0.
         14    1    1    2    0    0 -0.53413716107E-02  0.81624930552E-03 -0.41007572835E-02  0.67832679374E-02  0.00000000000E+00 0.  1.
     999901    1    1    2    0    0 -0.96322351906E-03  0.39104018589E-02 -0.14029011142E+00  0.89112150373E+00  0.88000000000E+00 0. -1.
        -11    1    3    3    0    0  0.87020663061E-02 -0.11483806832E-01  0.87099744178E-01  0.88284938320E-01  0.51100000000E-03 0. -1.
         11    1    3    3    0    0 -0.23974711763E-02  0.67571556674E-02  0.57291124525E-01  0.57740290015E-01  0.51100000000E-03 0.  1.
</event>
<event>
 8    1  0.1183092E+005  0.1043930E+01  0.7957747E-01            NaN
         13   -1    0    0    0    0  0.00000000000E+00  0.00000000000E+00  0.74505805969E-08  0.10566000000E+00  0.10566000000E+00 0. -1.
     999900   -1    0    0    0    0 -0.00000000000E+00 -0.00000000000E+00 -0.74505805969E-08  0.93827000000E+00  0.93827000000E+00 0.  1.
     999902    2    1    2    0    0  0.18532528942E-01  0.11120393792E-01  0.87757947829E-02  0.10206033551E+01  0.10203367464E+01 0.  0.
     999903    2    3    3    0    0 -0.31071353932E-02 -0.12758749467E+00  0.50045800710E-02  0.12946791342E+00  0.21181871935E-01 0.  0.
         14    1    1    2    0    0 -0.18532528942E-01 -0.11120393792E-01 -0.87757947829E-02  0.23326644875E-01  0.00000000000E+00 0.  1.
     999901    1    3    3    0    0  0.21639664335E-01  0.13870788846E+00  0.37712147119E-02  0.89113544170E+00  0.88000000000E+00 0.  1.
        -11    1    4    4    0    0 -0.10626636218E-01 -0.70618019102E-01  0.83691395951E-02  0.71903641339E-01  0.51100000000E-03 0. -1.
         11    1    4    4    0    0  0.75195008249E-02 -0.56969475567E-01 -0.33645595241E-02  0.57564272086E-01  0.51100000000E-03 0.  1.
</event>
<event>
 8    1  0.1183092E+005  0.1043930E+01  0.7957747E-01            NaN
         13   -1    0    0    0    0  0.00000000000E+00  0.00000000000E+00  0.74505805969E-08  0.10566000000E+00  0.10566000000E+00 0.  1.
     999900   -1    0    0    0    0 -0.00000000000E+00 -0.00000000000E+00 -0.74505805969E-08  0.93827000000E+00  0.93827000000E+00 0.  1.
     999902    2    1    2    0    0  0.63389442993E-02 -0.14371697654E-01 -0.18804026841E-01  0.10194285851E+01  0.10191341034E+01 0.  0.
     999903    2    3    3    0    0 -0.72478805394E-01  0.45686232183E-01  0.91540201027E-01  0.12701890267E+00  0.20341686021E-01 0.  0.
         14    1    1    2    0    0 -0.63389442993E-02  0.14371697654E-01  0.18804026841E-01  0.24501414933E-01  0.00000000000E+00 0.  1.
     999901    1    3    3    0    0  0.78817749693E-01 -0.60057929837E-01 -0.11034422787E+00  0.89240968239E+00  0.88000000000E+00 0.  1.
        -11    1    4    4    0    0 -0.62027390955E-01  0.38338524980E-01  0.65544204661E-01  0.98048679807E-01  0.51100000000E-03 0.  1.
         11    1    4    4    0    0 -0.10451414439E-01  0.73477072036E-02  0.25995996367E-01  0.28970222868E-01  0.51100000000E-03 0. -1.
</event>
<event>
 8    1  0.1183092E+005  0.1043930E+01  0.7957747E-01            NaN
         13   -1    0    0    0    0  0.00000000000E+00  0.00000000000E+00  0.74505805969E-08  0.10566000000E+00  0.10566000000E+00 0. -1.
     999900   -1    0    0    0    0 -0.00000000000E+00 -0.00000000000E+00 -0.74505805969E-08  0.93827000000E+00  0.93827000000E+00 0.  1.
     999902    2    1    2    0    0 -0.27131666440E-03 -0.17165362261E-02 -0.23011914464E-01  0.10208525583E+01  0.10205916801E+01 0.  0.
     999903    2    3    3    0    0  0.12773654751E+00  0.11735338418E-01  0.14507134777E-01  0.13069827655E+00  0.20426423970E-01 0.  0.
         14    1    1    2    0    0  0.27131666440E-03  0.17165362261E-02  0.23011914464E-01  0.23077441727E-01  0.00000000000E+00 0. -1.
     999901    1    3    3    0    0 -0.12800786417E+00 -0.13451874644E-01 -0.37519049241E-01  0.89015428173E+00  0.88000000000E+00 0. -1.
        -11    1    4    4    0    0  0.10247776295E+00  0.17129094522E-01  0.14172029547E-01  0.10486279283E+00  0.51100000000E-03 0. -1.
         11    1    4    4    0    0  0.25258784558E-01 -0.53937561041E-02  0.33510522979E-03  0.25835483715E-01  0.51100000000E-03 0.  1.
</event>
<event>
 8    1  0.1183092E+005  0.1043930E+01  0.7957747E-01            NaN
         13   -1    0    0    0    0  0.00000000000E+00  0.00000000000E+00  0.74505805969E-08  0.10566000000E+00  0.10566000000E+00 0. -1.
     999900   -1    0    0    0    0 -0.00000000000E+00 -0.00000000000E+00 -0.74505805969E-08  0.93827000000E+00  0.93827000000E+00 0.  1.
     999902    2    1    2    0    0  0.21191164965E-01  0.54674918271E-02  0.31208601770E-02  0.10218234691E+01  0.10215843104E+01 0.  0.
     999903    2    3    3    0    0  0.42952447936E-01 -0.87154176431E-01  0.87105767324E-01  0.13271954297E+00  0.24213614581E-01 0.  0.
         14    1    1    2    0    0 -0.21191164965E-01 -0.54674918271E-02 -0.31208601770E-02  0.22106530883E-01  0.00000000000E+00 0. -1.
     999901    1    3    3    0    0 -0.21761282971E-01  0.92621668258E-01 -0.83984907147E-01  0.88910392615E+00  0.88000000000E+00 0. -1.
        -11    1    4    4    0    0  0.22277731594E-01 -0.67069966118E-01  0.54876718283E-01  0.89478449978E-01  0.51100000000E-03 0.  1.
         11    1    4    4    0    0  0.20674716342E-01 -0.20084210313E-01  0.32229049041E-01  0.43241092988E-01  0.51100000000E-03 0. -1.
</event>
<event>
 8    1  0.1183092E+005  0.1043930E+01  0.7957747E-01            NaN
         13   -1    0    0    0    0  0.00000000000E+00  0.00000000000E+00  0.74505805969E-08  0.10566000000E+00  0.10566000000E+00 0.  1.
     999900   -1    0    0    0    0 -0.00000000000E+00 -0.00000000000E+00 -0.74505805969E-08  0.93827000000E+00  0.93827000000E+00 0.  1.
     999902    2    1    2    0    0 -0.11107565254E-01 -0.20237267813E-01  0.48864515413E-02  0.10203333387E+01  0.10200604490E+01 0.  0.
     999903    2    3    3    0    0 -0.11617645602E+00  0.47045124852E-01 -0.31644402584E-01  0.13078238714E+00  0.19810397926E-01 0.  0.
         14    1    1    2    0    0  0.11107565254E-01  0.20237267813E-01 -0.48864515413E-02  0.23596661270E-01  0.00000000000E+00 0. -1.
     999901    1    3    3    0    0  0.10506889077E+00 -0.67282392665E-01  0.36530854125E-01  0.88955095159E+00  0.88000000000E+00 0. -1.
        -11    1    4    4    0    0 -0.60435519234E-01  0.23861603058E-01 -0.62179963819E-02  0.65274441289E-01  0.51100000000E-03 0.  1.
         11    1    4    4    0    0 -0.55740936786E-01  0.23183521795E-01 -0.25426406202E-01  0.65507945853E-01  0.51100000000E-03 0. -1.
</event>
<event>
 8    1  0.1183092E+005  0.1043930E+01  0.7957747E-01            NaN
         13   -1    0    0    0    0  0.00000000000E+00  0.00000000000E+00  0.74505805969E-08  0.10566000000E+00  0.10566000000E+00 0. -1.
     999900   -1    0    0    0    0 -0.00000000000E+00 -0.00000000000E+00 -0.74505805969E-08  0.93827000000E+00  0.93827000000E+00 0. -1.
     999902    2    1    2    0    0 -0.85968742906E-02 -0.63117417852E-02 -0.22840255074E-01  0.10187224300E+01  0.10184105105E+01 0.  0.
     999903    2    3    3    0    0  0.60818031514E-02  0.11919291587E+00 -0.45926836009E-01  0.12939691432E+00  0.19757217591E-01 0.  0.
         14    1    1    2    0    0  0.85968742906E-02  0.63117417852E-02  0.22840255074E-01  0.25207569970E-01  0.00000000000E+00 0. -1.
     999901    1    3    3    0    0 -0.14678677442E-01 -0.12550465766E+00  0.23086580935E-01  0.88932551571E+00  0.88000000000E+00 0.  1.
        -11    1    4    4    0    0  0.75834397309E-02  0.74475507566E-01 -0.38000344237E-01  0.83954732258E-01  0.51100000000E-03 0. -1.
         11    1    4    4    0    0 -0.15016365795E-02  0.44717408308E-01 -0.79264917716E-02  0.45442182067E-01  0.51100000000E-03 0.  1.
</event>
<event>
 8    1  0.1183092E+005  0.1043930E+01  0.7957747E-01            NaN
         13   -1    0    0    0    0  0.00000000000E+00  0.00000000000E+00  0.74505805969E-08  0.10566000000E+00  0.10566000000E+00 0.  1.
     999900   -1    0    0    0    0 -0.00000000000E+00 -0.00000000000E+00 -0.74505805969E-08  0.93827000000E+00  0.93827000000E+00 0.  1.
     999902    2    1    2    0    0  0.13458017598E-01 -0.50495405128E-02  0.18444229690E-01  0.10205461229E+01  0.10202781892E+01 0.  0.
     999903    2    3    3    0    0 -0.34949671863E-01 -0.10341881225E+00  0.71493821302E-01  0.13215765094E+00  0.20912865135E-01 0.  0.
         14    1    1    2    0    0 -0.13458017598E-01  0.50495405128E-02 -0.18444229690E-01  0.23383877051E-01  0.00000000000E+00 0. -1.
     999901    1    3    3    0    0  0.48407689461E-01  0.98369271737E-01 -0.53049591612E-01  0.88838847200E+00  0.88000000000E+00 0.  1.
        -11    1    4    4    0    0 -0.44835386795E-02 -0.42177761996E-01  0.22477105983E-01  0.48005699041E-01  0.51100000000E-03 0.  1.
         11    1    4    4    0    0 -0.30466133183E-01 -0.61241050254E-01  0.49016715319E-01  0.84151951903E-01  0.51100000000E-03 0. -1.
</event>
<event>
 8    1  0.1183092E+005  0.1043930E+01  0.7957747E-01            NaN
         13   -1    0    0    0    0  0.00000000000E+00  0.00000000000E+00  0.74505805969E-08  0.10566000000E+00  0.10566000000E+00 0. -1.
     999900   -1    0    0    0    0 -0.00000000000E+00 -0.00000000000E+00 -0.74505805969E-08  0.93827000000E+00  0.93827000000E+00 0. -1.
     999902    2    1    2    0    0  0.21870682121E-01  0.92143214655E-02 -0.36905252277E-02  0.10199122892E+01  0.10196294558E+01 0.  0.
     999903    2    3    3    0    0 -0.62074881075E-01  0.59878492974E-01 -0.94998486710E-01  0.12977136793E+00  0.19420882473E-01 0.  0.
         14    1    1    2    0    0 -0.21870682121E-01 -0.92143214655E-02  0.36905252277E-02  0.24017710819E-01  0.00000000000E+00 0.  1.
     999901    1    3    3    0    0  0.83945563196E-01 -0.50664171508E-01  0.91307961483E-01  0.89014092125E+00  0.88000000000E+00 0.  1.
        -11    1    4    4    0    0 -0.49050775751E-02  0.11241425637E-01 -0.21261849491E-01  0.24551105905E-01  0.51100000000E-03 0. -1.
         11    1    4    4    0    0 -0.57169803500E-01  0.48637067337E-01 -0.73736637219E-01  0.10522026203E+00  0.51100000000E-03 0.  1.
</event>
<event>
 8    1  0.1183092E+005  0.1043930E+01  0.7957747E-01            NaN
         13   -1    0    0    0    0  0.00000000000E+00  0.00000000000E+00  0.74505805969E-08  0.10566000000E+00  0.10566000000E+00 0. -1.
     999900   -1    0    0    0    0 -0.00000000000E+00 -0.00000000000E+00 -0.74505805969E-08  0.93827000000E+00  0.93827000000E+00 0. -1.
     999902    2    1    2    0    0 -0.60755204733E-02  0.20621962494E-01 -0.19272449660E-02  0.10223454787E+01  0.10221175990E+01 0.  0.
     999903    2    3    3    0    0 -0.24096657153E-01  0.37523562215E-01 -0.12435736737E+00  0.13352628432E+00  0.19386778413E-01 0.  0.
         14    1    1    2    0    0  0.60755204733E-02 -0.20621962494E-01  0.19272449660E-02  0.21584521289E-01  0.00000000000E+00 0. -1.
     999901    1    3    3    0    0  0.18021136680E-01 -0.16901599721E-01  0.12243012241E+00  0.88881919439E+00  0.88000000000E+00 0.  1.
        -11    1    4    4    0    0 -0.73371292804E-03  0.10892057371E-01 -0.49711493812E-01  0.50898614780E-01  0.51100000000E-03 0.  1.
         11    1    4    4    0    0 -0.23362944225E-01  0.26631504844E-01 -0.74645873562E-01  0.82627669542E-01  0.51100000000E-03 0. -1.
</event>
<event>
 8    1  0.1183092E+005  0.1043930E+01  0.7957747E-01            NaN
         13   -1    0    0    0    0  0.00000000000E+00  0.00000000000E+00  0.74505805969E-08  0.10566000000E+00  0.10566000000E+00 0. -1.
     999900   -1    0    0    0    0 -0.00000000000E+00 -0.00000000000E+00 -0.74505805969E-08  0.93827000000E+00  0.93827000000E+00 0. -1.
     999902    2    1    2    0    0 -0.93192524822E-02  0.44195949039E-02 -0.21413602463E-01  0.10201618773E+01  0.10198849603E+01 0.  0.
     999903    2    3    3    0    0  0.88714847728E-01  0.80928114841E-01  0.42638680233E-01  0.12911365563E+00  0.20798919206E-01 0.  0.
         14    1    1    2    0    0  0.93192524822E-02 -0.44195949039E-02  0.21413602463E-01  0.23768122693E-01  0.00000000000E+00 0. -1.
     999901    1    3    3    0    0 -0.98034100210E-01 -0.76508519937E-01 -0.64052282695E-01  0.89104822167E+00  0.88000000000E+00 0. -1.
        -11    1    4    4    0    0  0.58330427721E-01  0.43549691760E-01  0.33268813834E-01  0.80038050610E-01  0.51100000000E-03 0. -1.
         11    1    4    4    0    0  0.30384420007E-01  0.37378423080E-01  0.93698663986E-02  0.49075605024E-01  0.51100000000E-03 0.  1.
</event>
<event>
 8    1  0.1183092E+005  0.1043930E+01  0.7957747E-01            NaN
         13   -1    0    0    0    0  0.00000000000E+00  0.00000000000E+00  0.74505805969E-08  0.10566000000E+00  0.10566000000E+00 0. -1.
     999900   -1    0    0    0    0 -0.00000000000E+00 -0.00000000000E+00 -0.74505805969E-08  0.93827000000E+00  0.93827000000E+00 0. -1.
     999902    2    1    2    0    0 -0.10224076418E-01 -0.95809811512E-03 -0.22119045101E-01  0.10195434905E+01  0.10192517977E+01 0.  0.
     999903    2    3    3    0    0  0.12317253322E+00 -0.31590923691E-01 -0.37714621578E-02  0.12877435132E+00  0.19978744494E-01 0.  0.
         14    1    1    2    0    0  0.10224076418E-01  0.95809811512E-03  0.22119045101E-01  0.24386509524E-01  0.00000000000E+00 0. -1.
     999901    1    3    3    0    0 -0.13339660964E+00  0.30632825576E-01 -0.18347582943E-01  0.89076913915E+00  0.88000000000E+00 0. -1.
        -11    1    4    4    0    0  0.72975682578E-01 -0.25251134436E-01  0.51562882676E-02  0.77394563554E-01  0.51100000000E-03 0. -1.
         11    1    4    4    0    0  0.50196850647E-01 -0.63397892544E-02 -0.89277504253E-02  0.51379787770E-01  0.51100000000E-03 0.  1.
</event>
<event>
 8    1  0.1183092E+005  0.1043930E+01  0.7957747E-01            NaN
         13   -1    0    0    0    0  0.00000000000E+00  0.00000000000E+00  0.74505805969E-08  0.10566000000E+00  0.10566000000E+00 0.  1.
     999900   -1    0    0    0    0 -0.00000000000E+00 -0.00000000000E+00 -0.74505805969E-08  0.93827000000E+00  0.93827000000E+00 0.  1.
     999902    2    1    2    0    0 -0.25937330181E-02  0.12641078960E-01 -0.20243693031E-01  0.10199230961E+01  0.10196405202E+01 0.  0.
     999903    2    3    3    0    0 -0.54152446808E-01 -0.11037624391E+00 -0.36483782672E-01  0.12972350992E+00  0.19537653690E-01 0.  0.
         14    1    1    2    0    0  0.25937330181E-02 -0.12641078960E-01  0.20243693031E-01  0.24006903919E-01  0.00000000000E+00 0.  1.
     999901    1    3    3    0    0  0.51558713790E-01  0.12301732287E+00  0.16240089641E-01  0.89019958616E+00  0.88000000000E+00 0. -1.
        -11    1    4    4    0    0 -0.29899930319E-01 -0.47860224827E-01 -0.24853736170E-01  0.61665032848E-01  0.51100000000E-03 0. -1.
         11    1    4    4    0    0 -0.24252516489E-01 -0.62516019085E-01 -0.11630046502E-01  0.68058477069E-01  0.51100000000E-03 0.  1.
</event>
<event>
 8    1  0.1183092E+005  0.1043930E+01  0.7957747E-01            NaN
         13   -1    0    0    0    0  0.00000000000E+00  0.00000000000E+00  0.74505805969E-08  0.10566000000E+00  0.10566000000E+00 0.  1.
     999900   -1    0    0    0    0 -0.00000000000E+00 -0.00000000000E+00 -0.74505805969E-08  0.93827000000E+00  0.93827000000E+00 0.  1.
     999902    2    1    2    0    0  0.12715205182E-01 -0.73289938366E-02  0.18937416287E-01  0.10199713621E+01  0.10196899348E+01 0.  0.
     999903    2    3    3    0    0 -0.43517368695E-01  0.76873246077E-01  0.94419872272E-01  0.13095520887E+00  0.20758061333E-01 0.  0.
         14    1    1    2    0    0 -0.12715205182E-01  0.73289938366E-02 -0.18937416287E-01  0.23958637881E-01  0.00000000000E+00 0. -1.
     999901    1    3    3    0    0  0.56232573878E-01 -0.84202239914E-01 -0.75482455985E-01  0.88901615325E+00  0.88000000000E+00 0.  1.
        -11    1    4    4    0    0 -0.38049914517E-01  0.69276640808E-01  0.73080551942E-01  0.10764793147E+00  0.51100000000E-03 0. -1.
         11    1    4    4    0    0 -0.54674541785E-02  0.75966052694E-02  0.21339320331E-01  0.23307277404E-01  0.51100000000E-03 0.  1.
</event>
<event>
 8    1  0.1183092E+005  0.1043930E+01  0.7957747E-01            NaN
         13   -1    0    0    0    0  0.00000000000E+00  0.00000000000E+00  0.74505805969E-08  0.10566000000E+00  0.10566000000E+00 0.  1.
     999900   -1    0    0    0    0 -0.00000000000E+00 -0.00000000000E+00 -0.74505805969E-08  0.93827000000E+00  0.93827000000E+00 0.  1.
     999902    2    1    2    0    0  0.13529871438E-01 -0.10759600167E-01  0.15386725312E-01  0.10207874476E+01  0.10205250783E+01 0.  0.
     999903    2    3    3    0    0  0.79488877353E-01  0.27407061045E-01 -0.97572357256E-01  0.13030048034E+00  0.19703341269E-01 0.  0.
         14    1    1    2    0    0 -0.13529871438E-01  0.10759600167E-01 -0.15386725312E-01  0.23142552425E-01  0.00000000000E+00 0.  1.
     999901    1    3    3    0    0 -0.65959005915E-01 -0.38166661212E-01  0.11295908257E+00  0.89048696724E+00  0.88000000000E+00 0. -1.
        -11    1    4    4    0    0  0.81893574930E-02  0.38026876927E-02 -0.21848017104E-01  0.23645781488E-01  0.51100000000E-03 0. -1.
         11    1    4    4    0    0  0.71299519860E-01  0.23604373352E-01 -0.75724340153E-01  0.10665469885E+00  0.51100000000E-03 0.  1.
</event>
<event>
 8    1  0.1183092E+005  0.1043930E+01  0.7957747E-01            NaN
         13   -1    0    0    0    0  0.00000000000E+00  0.00000000000E+00  0.74505805969E-08  0.10566000000E+00  0.10566000000E+00 0. -1.
     999900   -1    0    0    0    0 -0.00000000000E+00 -0.00000000000E+00 -0.74505805969E-08  0.93827000000E+00  0.93827000000E+00 0. -1.
     999902    2    1    2    0    0 -0.20656475365E-01  0.70220587111E-02 -0.10574701674E-01  0.10196849263E+01  0.10193966477E+01 0.  0.
     999903    2    3    3    0    0  0.12494228293E+00  0.16847637032E-01 -0.61072008021E-03  0.12761159897E+00  0.19746652264E-01 0.  0.
         14    1    1    2    0    0  0.20656475365E-01 -0.70220587111E-02  0.10574701674E-01  0.24245073696E-01  0.00000000000E+00 0. -1.
     999901    1    3    3    0    0 -0.14559875830E+00 -0.98255783209E-02 -0.99639815935E-02  0.89207332733E+00  0.88000000000E+00 0. -1.
        -11    1    4    4    0    0  0.55741915921E-01  0.17176501847E-01 -0.24809130710E-02  0.58383297757E-01  0.51100000000E-03 0.  1.
         11    1    4    4    0    0  0.69200367010E-01 -0.32886481523E-03  0.18701929908E-02  0.69228301216E-01  0.51100000000E-03 0. -1.
</event>
<event>
 8    1  0.1183092E+005  0.1043930E+01  0.7957747E-01            NaN
         13   -1    0    0    0    0  0.00000000000E+00  0.00000000000E+00  0.74505805969E-08  0.10566000000E+00  0.10566000000E+00 0.  1.
     999900   -1    0    0    0    0 -0.00000000000E+00 -0.00000000000E+00 -0.74505805969E-08  0.93827000000E+00  0.93827000000E+00 0.  1.
     999902    2    1    2    0    0 -0.16911963076E-01 -0.15295792963E-01 -0.14484964380E-01  0.10169153749E+01  0.10165564862E+01 0.  0.
     999903    2    3    3    0    0 -0.21851057503E-01 -0.12203440001E+00 -0.34159966382E-01  0.13023356578E+00  0.20591620937E-01 0.  0.
         14    1    1    2    0    0  0.16911963076E-01  0.15295792963E-01  0.14484964380E-01  0.27014625123E-01  0.00000000000E+00 0.  1.
     999901    1    3    3    0    0  0.49390944277E-02  0.10673860704E+00  0.19675002002E-01  0.88668180910E+00  0.88000000000E+00 0.  1.
        -11    1    4    4    0    0 -0.13638779827E-01 -0.10483985147E+00 -0.34368854985E-01  0.11117054504E+00  0.51100000000E-03 0.  1.
         11    1    4    4    0    0 -0.82122776767E-02 -0.17194548535E-01  0.20888860298E-03  0.19063020732E-01  0.51100000000E-03 0. -1.
</event>
<event>
 8    1  0.1183092E+005  0.1043930E+01  0.7957747E-01            NaN
         13   -1    0    0    0    0  0.00000000000E+00  0.00000000000E+00  0.74505805969E-08  0.10566000000E+00  0.10566000000E+00 0.  1.
     999900   -1    0    0    0    0 -0.00000000000E+00 -0.00000000000E+00 -0.74505805969E-08  0.93827000000E+00  0.93827000000E+00 0. -1.
     999902    2    1    2    0    0  0.14200381436E-02  0.15089292860E-01 -0.15573515064E-01  0.10221989706E+01  0.10219679534E+01 0.  0.
     999903    2    3    3    0    0 -0.88932054519E-01  0.66017211477E-01 -0.72404485884E-01  0.13428742501E+00  0.22880568350E-01 0.  0.
         14    1    1    2    0    0 -0.14200381436E-02 -0.15089292860E-01  0.15573515064E-01  0.21731029400E-01  0.00000000000E+00 0. -1.
     999901    1    3    3    0    0  0.90352092663E-01 -0.50927918618E-01  0.56830970820E-01  0.88791154559E+00  0.88000000000E+00 0. -1.
        -11    1    4    4    0    0 -0.33362978172E-01  0.15344940858E-01 -0.33048067441E-01  0.49406390326E-01  0.51100000000E-03 0. -1.
         11    1    4    4    0    0 -0.55569076347E-01  0.50672270619E-01 -0.39356418443E-01  0.84881034686E-01  0.51100000000E-03 0.  1.
</event>
<event>
 8    1  0.1183092E+005  0.1043930E+01  0.7957747E-01            NaN
         13   -1    0    0    0    0  0.00000000000E+00  0.00000000000E+00  0.74505805969E-08  0.10566000000E+00  0.10566000000E+00 0.  1.
     999900   -1    0    0    0    0 -0.00000000000E+00 -0.00000000000E+00 -0.74505805969E-08  0.93827000000E+00  0.93827000000E+00 0.  1.
     999902    2    1    2    0    0 -0.19644713561E-01  0.61313289995E-02  0.97834341804E-02  0.10211435226E+01  0.10208892547E+01 0.  0.
     999903    2    3    3    0    0  0.94735325719E-01 -0.50213323091E-01 -0.67896150432E-01  0.12856768212E+00  0.20581591000E-01 0.  0.
         14    1    1    2    0    0  0.19644713561E-01 -0.61313289995E-02 -0.97834341804E-02  0.22786477362E-01  0.00000000000E+00 0. -1.
     999901    1    3    3    0    0 -0.11438003928E+00  0.56344652091E-01  0.77679584613E-01  0.89257584051E+00  0.88000000000E+00 0. -1.
        -11    1    4    4    0    0  0.66944895438E-01 -0.30436936180E-01 -0.36056138348E-01  0.81904409789E-01  0.51100000000E-03 0. -1.
         11    1    4    4    0    0  0.27790430281E-01 -0.19776386911E-01 -0.31840012084E-01  0.46663272335E-01  0.51100000000E-03 0.  1.
</event>
<event>
 8    1  0.1183092E+005  0.1043930E+01  0.7957747E-01            NaN
         13   -1    0    0    0    0  0.00000000000E+00  0.00000000000E+00  0.74505805969E-08  0.10566000000E+00  0.10566000000E+00 0.  1.
     999900   -1    0    0    0    0 -0.00000000000E+00 -0.00000000000E+00 -0.74505805969E-08  0.93827000000E+00  0.93827000000E+00 0.  1.
     999902    2    1    2    0    0 -0.33893807209E-03  0.88363675438E-02 -0.21557529521E-01  0.10206292844E+01  0.10203632749E+01 0.  0.
     999903    2    3    3    0    0  0.13058520728E-01 -0.92152977249E-01 -0.91371332093E-01  0.13200545692E+00  0.20347583350E-01 0.  0.
         14    1    1    2    0    0  0.33893807209E-03 -0.88363675438E-02  0.21557529521E-01  0.23300715642E-01  0.00000000000E+00 0.  1.
     999901    1    3    3    0    0 -0.13397458800E-01  0.10098934479E+00  0.69813802572E-01  0.88862382744E+00  0.88000000000E+00 0.  1.
        -11    1    4    4    0    0  0.15109479451E-01 -0.84973175094E-01 -0.76387878337E-01  0.11525669583E+00  0.51100000000E-03 0. -1.
         11    1    4    4    0    0 -0.20509587224E-02 -0.71798021552E-02 -0.14983453756E-01  0.16748761093E-01  0.51100000000E-03 0.  1.
</event>
<event>
 8    1  0.1183092E+005  0.1043930E+01  0.7957747E-01            NaN
         13   -1    0    0    0    0  0.00000000000E+00  0.00000000000E+00  0.74505805969E-08  0.10566000000E+00  0.10566000000E+00 0.  1.
     999900   -1    0    0    0    0 -0.00000000000E+00 -0.00000000000E+00 -0.74505805969E-08  0.93827000000E+00  0.93827000000E+00 0.  1.
     999902    2    1    2    0    0 -0.11509308540E-02 -0.20186221694E-01 -0.12292519375E-01  0.10202674934E+01  0.10199930607E+01 0.  0.
     999903    2    3    3    0    0  0.12435051194E+00  0.22644852330E-01  0.21459388958E-01  0.12969222738E+00  0.19589009984E-01 0.  0.
         14    1    1    2    0    0  0.11509308540E-02  0.20186221694E-01  0.12292519375E-01  0.23662506644E-01  0.00000000000E+00 0.  1.
     999901    1    3    3    0    0 -0.12550144280E+00 -0.42831074024E-01 -0.33751908333E-01  0.89057526597E+00  0.88000000000E+00 0.  1.
        -11    1    4    4    0    0  0.46801494055E-01  0.88517209337E-02 -0.14644959940E-02  0.47656465236E-01  0.51100000000E-03 0.  1.
         11    1    4    4    0    0  0.77549017887E-01  0.13793131396E-01  0.22923884952E-01  0.82035762148E-01  0.51100000000E-03 0. -1.
</event>
<event>
 8    1  0.1183092E+005  0.1043930E+01  0.7957747E-01            NaN
         13   -1    0    0    0    0  0.00000000000E+00  0.00000000000E+00  0.74505805969E-08  0.10566000000E+00  0.10566000000E+00 0. -1.
     999900   -1    0    0    0    0 -0.00000000000E+00 -0.00000000000E+00 -0.74505805969E-08  0.93827000000E+00  0.93827000000E+00 0. -1.
     999902    2    1    2    0    0  0.12155894514E-01 -0.13053503938E-01  0.14895250081E-01  0.10206914929E+01  0.10204269183E+01 0.  0.
     999903    2    3    3    0    0 -0.87473271678E-01  0.70461496324E-01  0.61754477926E-01  0.12990728041E+00  0.21116113187E-01 0.  0.
         14    1    1    2    0    0 -0.12155894514E-01  0.13053503938E-01 -0.14895250081E-01  0.23238507084E-01  0.00000000000E+00 0.  1.
     999901    1    3    3    0    0  0.99629166192E-01 -0.83515000263E-01 -0.46859227845E-01  0.89078421251E+00  0.88000000000E+00 0.  1.
        -11    1    4    4    0    0 -0.39009778566E-01  0.44918814675E-01  0.31302220867E-01  0.67227619977E-01  0.51100000000E-03 0.  1.
         11    1    4    4    0    0 -0.48463493111E-01  0.25542681650E-01  0.30452257059E-01  0.62679660428E-01  0.51100000000E-03 0. -1.
</event>
<event>
 8    1  0.1183092E+005  0.1043930E+01  0.7957747E-01            NaN
         13   -1    0    0    0    0  0.00000000000E+00  0.00000000000E+00  0.74505805969E-08  0.10566000000E+00  0.10566000000E+00 0.  1.
     999900   -1    0    0    0    0 -0.00000000000E+00 -0.00000000000E+00 -0.74505805969E-08  0.93827000000E+00  0.93827000000E+00 0. -1.
     999902    2    1    2    0    0  0.17083715302E-01 -0.11662108670E-01  0.11489971773E-01  0.10202682681E+01  0.10199938535E+01 0.  0.
     999903    2    3    3    0    0  0.56156286275E-01 -0.99249219557E-01 -0.63267255093E-01  0.13190639879E+00  0.19814550331E-01 0.  0.
         14    1    1    2    0    0 -0.17083715302E-01  0.11662108670E-01 -0.11489971773E-01  0.23661731941E-01  0.00000000000E+00 0. -1.
     999901    1    3    3    0    0 -0.39072570973E-01  0.87587110887E-01  0.74757226865E-01  0.88836186927E+00  0.88000000000E+00 0.  1.
        -11    1    4    4    0    0  0.36716944903E-01 -0.48049567071E-01 -0.39308074973E-01  0.72126838401E-01  0.51100000000E-03 0.  1.
         11    1    4    4    0    0  0.19439341372E-01 -0.51199652486E-01 -0.23959180120E-01  0.59779560392E-01  0.51100000000E-03 0. -1.
</event>
<event>
 8    1  0.1183092E+005  0.1043930E+01  0.7957747E-01            NaN
         13   -1    0    0    0    0  0.00000000000E+00  0.00000000000E+00  0.74505805969E-08  0.10566000000E+00  0.10566000000E+00 0. -1.
     999900   -1    0    0    0    0 -0.00000000000E+00 -0.00000000000E+00 -0.74505805969E-08  0.93827000000E+00  0.93827000000E+00 0.  1.
     999902    2    1    2    0    0 -0.21294458234E-01  0.29352185371E-03 -0.10950925669E-01  0.10199829150E+01  0.10197017623E+01 0.  0.
     999903    2    3    3    0    0 -0.50108222332E-01 -0.66224103666E-01  0.98269006918E-01  0.13027295037E+00  0.20439619010E-01 0.  0.
         14    1    1    2    0    0  0.21294458234E-01 -0.29352185371E-03  0.10950925669E-01  0.23947084991E-01  0.00000000000E+00 0. -1.
     999901    1    3    3    0    0  0.28813764098E-01  0.66517625520E-01 -0.10921993259E+00  0.88970996464E+00  0.88000000000E+00 0.  1.
        -11    1    4    4    0    0 -0.45921323156E-01 -0.46810338701E-01  0.77758207309E-01  0.10171811862E+00  0.51100000000E-03 0. -1.
         11    1    4    4    0    0 -0.41868991760E-02 -0.19413764965E-01  0.20510799609E-01  0.28554831752E-01  0.51100000000E-03 0.  1.
</event>
<event>
 8    1  0.1183092E+005  0.1043930E+01  0.7957747E-01            NaN
         13   -1    0    0    0    0  0.00000000000E+00  0.00000000000E+00  0.74505805969E-08  0.10566000000E+00  0.10566000000E+00 0. -1.
     999900   -1    0    0    0    0 -0.00000000000E+00 -0.00000000000E+00 -0.74505805969E-08  0.93827000000E+00  0.93827000000E+00 0.  1.
     999902    2    1    2    0    0 -0.20867960378E-01  0.10027469657E-01  0.30610096106E-02  0.10205763772E+01  0.10203091443E+01 0.  0.
     999903    2    3    3    0    0 -0.23736876276E-01 -0.12633449091E+00  0.43442057679E-03  0.13006544861E+00  0.19823958026E-01 0.  0.
         14    1    1    2    0    0  0.20867960378E-01 -0.10027469657E-01 -0.30610096106E-02  0.23353622800E-01  0.00000000000E+00 0.  1.
     999901    1    3    3    0    0  0.28689158978E-02  0.13636196057E+00  0.26265890338E-02  0.89051092859E+00  0.88000000000E+00 0. -1.
        -11    1    4    4    0    0 -0.13769840411E-01 -0.29373503904E-01 -0.25641595356E-02  0.32546079206E-01  0.51100000000E-03 0.  1.
         11    1    4    4    0    0 -0.99670358645E-02 -0.96960987006E-01  0.29985801124E-02  0.97519369404E-01  0.51100000000E-03 0. -1.
</event>
<event>
 8    1  0.1183092E+005  0.1043930E+01  0.7957747E-01            NaN
         13   -1    0    0    0    0  0.00000000000E+00  0.00000000000E+00  0.74505805969E-08  0.10566000000E+00  0.10566000000E+00 0. -1.
     999900   -1    0    0    0    0 -0.00000000000E+00 -0.00000000000E+00 -0.74505805969E-08  0.93827000000E+00  0.93827000000E+00 0. -1.
     999902    2    1    2    0    0 -0.36955793275E-02 -0.15502822562E-01 -0.18148418191E-01  0.10197771555E+01  0.10194910922E+01 0.  0.
     999903    2    3    3    0    0  0.86474403177E-02  0.12633211345E+00 -0.10725775897E-01  0.12830388344E+00  0.17670968378E-01 0.  0.
         14    1    1    2    0    0  0.36955793275E-02  0.15502822562E-01  0.18148418191E-01  0.24152844487E-01  0.00000000000E+00 0. -1.
     999901    1    3    3    0    0 -0.12343019645E-01 -0.14183493601E+00 -0.74226422942E-02  0.89147327208E+00  0.88000000000E+00 0. -1.
        -11    1    4    4    0    0  0.37704071018E-02  0.10601526499E+00 -0.33369671868E-02  0.10613599225E+00  0.51100000000E-03 0. -1.
         11    1    4    4    0    0  0.48770332159E-02  0.20316848460E-01 -0.73888087102E-02  0.22167891183E-01  0.51100000000E-03 0.  1.
</event>
<event>
 8    1  0.1183092E+005  0.1043930E+01  0.7957747E-01            NaN
         13   -1    0    0    0    0  0.00000000000E+00  0.00000000000E+00  0.74505805969E-08  0.10566000000E+00  0.10566000000E+00 0. -1.
     999900   -1    0    0    0    0 -0.00000000000E+00 -0.00000000000E+00 -0.74505805969E-08  0.93827000000E+00  0.93827000000E+00 0.  1.
     999902    2    1    2    0    0  0.12063145661E-01 -0.52186942927E-02 -0.19468771083E-01  0.10204398467E+01  0.10201694435E+01 0.  0.
     999903    2    3    3    0    0  0.84754560222E-01 -0.19070287253E-01  0.94746264540E-01  0.12997873992E+00  0.19251151952E-01 0.  0.
         14    1    1    2    0    0 -0.12063145661E-01  0.52186942927E-02  0.19468771083E-01  0.23490153274E-01  0.00000000000E+00 0. -1.
     999901    1    3    3    0    0 -0.72691414561E-01  0.13851592960E-01 -0.11421503562E+00  0.89046110681E+00  0.88000000000E+00 0.  1.
        -11    1    4    4    0    0  0.53571907831E-01 -0.14590478228E-01  0.46856840042E-01  0.72654359424E-01  0.51100000000E-03 0.  1.
         11    1    4    4    0    0  0.31182652392E-01 -0.44798090245E-02  0.47889424498E-01  0.57324380492E-01  0.51100000000E-03 0. -1.
</event>
<event>
 8    1  0.1183092E+005  0.1043930E+01  0.7957747E-01            NaN
         13   -1    0    0    0    0  0.00000000000E+00  0.00000000000E+00  0.74505805969E-08  0.10566000000E+00  0.10566000000E+00 0. -1.
     999900   -1    0    0    0    0 -0.00000000000E+00 -0.00000000000E+00 -0.74505805969E-08  0.93827000000E+00  0.93827000000E+00 0.  1.
     999902    2    1    2    0    0  0.51635824609E-02 -0.11578221629E-01 -0.18312184967E-01  0.10216577321E+01  0.10214149341E+01 0.  0.
     999903    2    3    3    0    0 -0.21396617620E-01  0.64489614759E-01 -0.11250640226E+00  0.13297088593E+00  0.20170282536E-01 0.  0.
         14    1    1    2    0    0 -0.51635824609E-02  0.11578221629E-01  0.18312184967E-01  0.22272267918E-01  0.00000000000E+00 0. -1.
     999901    1    3    3    0    0  0.26560200081E-01 -0.76067836388E-01  0.94194217290E-01  0.88868684616E+00  0.88000000000E+00 0. -1.
        -11    1    4    4    0    0 -0.18031103977E-01  0.64040622651E-01 -0.10085010386E+00  0.12081939675E+00  0.51100000000E-03 0.  1.
         11    1    4    4    0    0 -0.33655136436E-02  0.44899210852E-03 -0.11656298395E-01  0.12151489180E-01  0.51100000000E-03 0. -1.
</event>
<event>
 8    1  0.1183092E+005  0.1043930E+01  0.7957747E-01            NaN
         13   -1    0    0    0    0  0.00000000000E+00  0.00000000000E+00  0.74505805969E-08  0.10566000000E+00  0.10566000000E+00 0. -1.
     999900   -1    0    0    0    0 -0.00000000000E+00 -0.00000000000E+00 -0.74505805969E-08  0.93827000000E+00  0.93827000000E+00 0.  1.
     999902    2    1    2    0    0 -0.85690454715E-02  0.74108719380E-02  0.21610575681E-01  0.10195298659E+01  0.10192378431E+01 0.  0.
     999903    2    3    3    0    0 -0.97334935989E-01 -0.37274501415E-01  0.78766515764E-01  0.13209368937E+00  0.19521796706E-01 0.  0.
         14    1    1    2    0    0  0.85690454715E-02 -0.74108719380E-02 -0.21610575681E-01  0.24400134107E-01  0.00000000000E+00 0.  1.
     999901    1    3    3    0    0  0.88765890517E-01  0.44685373353E-01 -0.57155940083E-01  0.88743617652E+00  0.88000000000E+00 0.  1.
        -11    1    4    4    0    0 -0.26736305601E-01 -0.61629454517E-02  0.30777348815E-01  0.41234915484E-01  0.51100000000E-03 0.  1.
         11    1    4    4    0    0 -0.70598630388E-01 -0.31111555964E-01  0.47989166949E-01  0.90858773889E-01  0.51100000000E-03 0. -1.
</event>
<event>
 8    1  0.1183092E+005  0.1043930E+01  0.7957747E-01            NaN
         13   -1    0    0    0    0  0.00000000000E+00  0.00000000000E+00  0.74505805969E-08  0.10566000000E+00  0.10566000000E+00 0. -1.
     999900   -1    0    0    0    0 -0.00000000000E+00 -0.00000000000E+00 -0.74505805969E-08  0.93827000000E+00  0.93827000000E+00 0.  1.
     999902    2    1    2    0    0  0.15693771159E-01  0.39600872238E-02 -0.17058665685E-01  0.10204145834E+01  0.10201435914E+01 0.  0.
     999903    2    3    3    0    0 -0.70136702236E-01 -0.81655076092E-01  0.66628519029E-01  0.12817001419E+00  0.20037079089E-01 0.  0.
         14    1    1    2    0    0 -0.15693771159E-01 -0.39600872238E-02  0.17058665685E-01  0.23515416623E-01  0.00000000000E+00 0. -1.
     999901    1    3    3    0    0  0.85830473394E-01  0.85615163315E-01 -0.83687184713E-01  0.89224456918E+00  0.88000000000E+00 0.  1.
        -11    1    4    4    0    0 -0.67297590236E-01 -0.74525611023E-01  0.55768948304E-01  0.11486282717E+00  0.51100000000E-03 0. -1.
         11    1    4    4    0    0 -0.28391119991E-02 -0.71294650686E-02  0.10859570724E-01  0.13307187022E-01  0.51100000000E-03 0.  1.
</event>
<event>
 8    1  0.1183092E+005  0.1043930E+01  0.7957747E-01            NaN
         13   -1    0    0    0    0  0.00000000000E+00  0.00000000000E+00  0.74505805969E-08  0.10566000000E+00  0.10566000000E+00 0. -1.
     999900   -1    0    0    0    0 -0.00000000000E+00 -0.00000000000E+00 -0.74505805969E-08  0.93827000000E+00  0.93827000000E+00 0.  1.
     999902    2    1    2    0    0 -0.84370730983E-02 -0.85479236068E-03 -0.21500509133E-01  0.10208175193E+01  0.10205558392E+01 0.  0.
     999903    2    3    3    0    0 -0.43739390359E-01  0.11965574011E+00  0.22066324391E-01  0.13083599642E+00  0.20012617944E-01 0.  0.
         14    1    1    2    0    0  0.84370730983E-02  0.85479236068E-03  0.21500509133E-01  0.23112480729E-01  0.00000000000E+00 0. -1.
     999901    1    3    3    0    0  0.35302317261E-01 -0.12051053247E+00 -0.43566833524E-01  0.88998152285E+00  0.88000000000E+00 0.  1.
        -11    1    4    4    0    0 -0.13156996781E-01  0.58994381534E-01  0.16579715086E-01  0.62678478685E-01  0.51100000000E-03 0.  1.
         11    1    4    4    0    0 -0.30582393578E-01  0.60661358572E-01  0.54866093047E-02  0.68157517732E-01  0.51100000000E-03 0. -1.
</event>
<event>
 8    1  0.1183092E+005  0.1043930E+01  0.7957747E-01            NaN
         13   -1    0    0    0    0  0.00000000000E+00  0.00000000000E+00  0.74505805969E-08  0.10566000000E+00  0.10566000000E+00 0. -1.
     999900   -1    0    0    0    0 -0.00000000000E+00 -0.00000000000E+00 -0.74505805969E-08  0.93827000000E+00  0.93827000000E+00 0.  1.
     999902    2    1    2    0    0  0.17457160352E-01 -0.88324378780E-02  0.13878615258E-01  0.10199429125E+01  0.10196608085E+01 0.  0.
     999903    2    3    3    0    0 -0.69420847789E-02 -0.66408791867E-01  0.11211025990E+00  0.13227190601E+00  0.21652403268E-01 0.  0.
         14    1    1    2    0    0 -0.17457160352E-01  0.88324378780E-02 -0.13878615258E-01  0.23987087525E-01  0.00000000000E+00 0.  1.
     999901    1    3    3    0    0  0.24399245131E-01  0.57576353989E-01 -0.98231644643E-01  0.88767100646E+00  0.88000000000E+00 0. -1.
        -11    1    4    4    0    0 -0.11875389391E-02 -0.63852744755E-01  0.10265790507E+00  0.12090281161E+00  0.51100000000E-03 0.  1.
         11    1    4    4    0    0 -0.57545458398E-02 -0.25560471116E-02  0.94523548341E-02  0.11369094404E-01  0.51100000000E-03 0. -1.
</event>
<event>
 8    1  0.1183092E+005  0.1043930E+01  0.7957747E-01            NaN
         13   -1    0    0    0    0  0.00000000000E+00  0.00000000000E+00  0.74505805969E-08  0.10566000000E+00  0.10566000000E+00 0. -1.
     999900   -1    0    0    0    0 -0.00000000000E+00 -0.00000000000E+00 -0.74505805969E-08  0.93827000000E+00  0.93827000000E+00 0.  1.
     999902    2    1    2    0    0  0.61224309511E-02  0.16699616815E-01 -0.15743386695E-01  0.10201767773E+01  0.10199002115E+01 0.  0.
     999903    2    3    3    0    0 -0.84485854404E-01 -0.52664482116E-01  0.77879159002E-01  0.12788398869E+00  0.19435634437E-01 0.  0.
         14    1    1    2    0    0 -0.61224309511E-02 -0.16699616815E-01  0.15743386695E-01  0.23753222669E-01  0.00000000000E+00 0. -1.
     999901    1    3    3    0    0  0.90608285355E-01  0.69364098931E-01 -0.93622545696E-01  0.89229278864E+00  0.88000000000E+00 0. -1.
        -11    1    4    4    0    0 -0.79810279159E-01 -0.43765831627E-01  0.66732605781E-01  0.11286554156E+00  0.51100000000E-03 0.  1.
         11    1    4    4    0    0 -0.46755752453E-02 -0.88986504891E-02  0.11146553221E-01  0.15018447127E-01  0.51100000000E-03 0. -1.
</event>
<event>
 8    1  0.1183092E+005  0.1043930E+01  0.7957747E-01            NaN
         13   -1    0    0    0    0  0.00000000000E+00  0.00000000000E+00  0.74505805969E-08  0.10566000000E+00  0.10566000000E+00 0.  1.
     999900   -1    0    0    0    0 -0.00000000000E+00 -0.00000000000E+00 -0.74505805969E-08  0.93827000000E+00  0.93827000000E+00 0.  1.
     999902    2    1    2    0    0 -0.12854674652E-01 -0.17253604829E-01  0.10180173571E-01  0.10201273641E+01  0.10198496328E+01 0.  0.
     999903    2    3    3    0    0 -0.11422454827E+00  0.17629396593E-01  0.61597981475E-01  0.13213160625E+00  0.17504485048E-01 0.  0.
         14    1    1    2    0    0  0.12854674652E-01  0.17253604829E-01 -0.10180173571E-01  0.23802635861E-01  0.00000000000E+00 0.  1.
     999901    1    3    3    0    0  0.10136987361E+00 -0.34883001423E-01 -0.51417807905E-01  0.88799575789E+00  0.88000000000E+00 0.  1.
        -11    1    4    4    0    0 -0.35544506834E-01  0.67357967159E-02  0.28593680378E-01  0.46115535366E-01  0.51100000000E-03 0.  1.
         11    1    4    4    0    0 -0.78680041431E-01  0.10893599877E-01  0.33004301097E-01  0.86016070881E-01  0.51100000000E-03 0. -1.
</event>
<event>
 8    1  0.1183092E+005  0.1043930E+01  0.7957747E-01            NaN
         13   -1    0    0    0    0  0.00000000000E+00  0.00000000000E+00  0.74505805969E-08  0.10566000000E+00  0.10566000000E+00 0. -1.
     999900   -1    0    0    0    0 -0.00000000000E+00 -0.00000000000E+00 -0.74505805969E-08  0.93827000000E+00  0.93827000000E+00 0.  1.
     999902    2    1    2    0    0  0.18209127255E-01  0.83428481397E-02 -0.50408162400E-02  0.10232760595E+01  0.10230675973E+01 0.  0.
     999903    2    3    3    0    0 -0.20056315224E-01  0.10596182332E+00 -0.77339092382E-01  0.13410748765E+00  0.19321471258E-01 0.  0.
         14    1    1    2    0    0 -0.18209127255E-01 -0.83428481397E-02  0.50408162400E-02  0.20653940516E-01  0.00000000000E+00 0.  1.
     999901    1    3    3    0    0  0.38265442479E-01 -0.97618975181E-01  0.72298276142E-01  0.88916857183E+00  0.88000000000E+00 0. -1.
        -11    1    4    4    0    0 -0.17888035120E-01  0.58893590745E-01 -0.52163293948E-01  0.80682756447E-01  0.51100000000E-03 0. -1.
         11    1    4    4    0    0 -0.21682801039E-02  0.47068232576E-01 -0.25175798434E-01  0.53424731204E-01  0.51100000000E-03 0.  1.
</event>
<event>
 8    1  0.1183092E+005  0.1043930E+01  0.7957747E-01            NaN
         13   -1    0    0    0    0  0.00000000000E+00  0.00000000000E+00  0.74505805969E-08  0.10566000000E+00  0.10566000000E+00 0.  1.
     999900   -1    0    0    0    0 -0.00000000000E+00 -0.00000000000E+00 -0.74505805969E-08  0.93827000000E+00  0.93827000000E+00 0.  1.
     999902    2    1    2    0    0 -0.21897022537E-01  0.56345243195E-02  0.90195066141E-02  0.10195870552E+01  0.10192964163E+01 0.  0.
     999903    2    3    3    0    0 -0.65166181303E-01  0.47298548036E-01  0.10329485864E+00  0.13251549500E+00  0.20167914173E-01 0.  0.
         14    1    1    2    0    0  0.21897022537E-01 -0.56345243195E-02 -0.90195066141E-02  0.24342944765E-01  0.00000000000E+00 0.  1.
     999901    1    3    3    0    0  0.43269158767E-01 -0.41664023716E-01 -0.94275352027E-01  0.88707156023E+00  0.88000000000E+00 0.  1.
        -11    1    4    4    0    0 -0.41592301208E-01  0.37627517171E-01  0.81759424653E-01  0.99149453901E-01  0.51100000000E-03 0.  1.
         11    1    4    4    0    0 -0.23573880095E-01  0.96710308647E-02  0.21535433988E-01  0.33366041102E-01  0.51100000000E-03 0. -1.
</event>
<event>
 8    1  0.1183092E+005  0.1043930E+01  0.7957747E-01            NaN
         13   -1    0    0    0    0  0.00000000000E+00  0.00000000000E+00  0.74505805969E-08  0.10566000000E+00  0.10566000000E+00 0.  1.
     999900   -1    0    0    0    0 -0.00000000000E+00 -0.00000000000E+00 -0.74505805969E-08  0.93827000000E+00  0.93827000000E+00 0.  1.
     999902    2    1    2    0    0  0.21503802047E-01 -0.95663165345E-02 -0.34068673810E-02  0.10201490274E+01  0.10198718073E+01 0.  0.
     999903    2    3    3    0    0  0.10730480521E+00  0.71584847089E-01 -0.23598274105E-01  0.13203021976E+00  0.15374941838E-01 0.  0.
         14    1    1    2    0    0 -0.21503802047E-01  0.95663165345E-02  0.34068673810E-02  0.23780972643E-01  0.00000000000E+00 0.  1.
     999901    1    3    3    0    0 -0.85801003158E-01 -0.81151163623E-01  0.20191406724E-01  0.88811880760E+00  0.88000000000E+00 0.  1.
        -11    1    4    4    0    0  0.59972665112E-01  0.42883682163E-01 -0.61330278930E-02  0.73983821939E-01  0.51100000000E-03 0. -1.
         11    1    4    4    0    0  0.47332140093E-01  0.28701164925E-01 -0.17465246212E-01  0.58046397822E-01  0.51100000000E-03 0.  1.
</event>
<event>
 8    1  0.1183092E+005  0.1043930E+01  0.7957747E-01            NaN
         13   -1    0    0    0    0  0.00000000000E+00  0.00000000000E+00  0.74505805969E-08  0.10566000000E+00  0.10566000000E+00 0.  1.
     999900   -1    0    0    0    0 -0.00000000000E+00 -0.00000000000E+00 -0.74505805969E-08  0.93827000000E+00  0.93827000000E+00 0.  1.
     999902    2    1    2    0    0  0.65387419781E-02 -0.15202576375E-01  0.16090877571E-01  0.10208477597E+01  0.10205867718E+01 0.  0.
     999903    2    3    3    0    0  0.41098154604E-01 -0.33520544317E-02 -0.12114694817E+00  0.12946175541E+00  0.19582351279E-01 0.  0.
         14    1    1    2    0    0 -0.65387419781E-02  0.15202576375E-01 -0.16090877571E-01  0.23082240275E-01  0.00000000000E+00 0. -1.
     999901    1    3    3    0    0 -0.34559412626E-01 -0.11850521944E-01  0.13723782574E+00  0.89138600431E+00  0.88000000000E+00 0. -1.
        -11    1    4    4    0    0  0.13115702553E-01 -0.10407829800E-01 -0.46927214037E-01  0.49827393198E-01  0.51100000000E-03 0.  1.
         11    1    4    4    0    0  0.27982452051E-01  0.70557753687E-02 -0.74219734137E-01  0.79634362213E-01  0.51100000000E-03 0. -1.
</event>
<event>
 8    1  0.1183092E+005  0.1043930E+01  0.7957747E-01            NaN
         13   -1    0    0    0    0  0.00000000000E+00  0.00000000000E+00  0.74505805969E-08  0.10566000000E+00  0.10566000000E+00 0. -1.
     999900   -1    0    0    0    0 -0.00000000000E+00 -0.00000000000E+00 -0.74505805969E-08  0.93827000000E+00  0.93827000000E+00 0.  1.
     999902    2    1    2    0    0  0.63280305575E-02  0.17274124043E-01 -0.15041201835E-01  0.10201670649E+01  0.10198902702E+01 0.  0.
     999903    2    3    3    0    0 -0.96864219733E-01  0.29782504598E-01  0.77900425321E-01  0.12918825136E+00  0.18747089919E-01 0.  0.
         14    1    1    2    0    0 -0.63280305575E-02 -0.17274124043E-01  0.15041201835E-01  0.23762935105E-01  0.00000000000E+00 0. -1.
     999901    1    3    3    0    0  0.10319225029E+00 -0.12508380555E-01 -0.92941627156E-01  0.89097881353E+00  0.88000000000E+00 0. -1.
        -11    1    4    4    0    0 -0.27874859820E-01  0.87236820419E-04  0.19017471415E-01  0.33748196400E-01  0.51100000000E-03 0.  1.
         11    1    4    4    0    0 -0.68989359913E-01  0.29695267778E-01  0.58882953906E-01  0.95440054962E-01  0.51100000000E-03 0. -1.
</event>
<event>
 8    1  0.1183092E+005  0.1043930E+01  0.7957747E-01            NaN
         13   -1    0    0    0    0  0.00000000000E+00  0.00000000000E+00  0.74505805969E-08  0.10566000000E+00  0.10566000000E+00 0.  1.
     999900   -1    0    0    0    0 -0.00000000000E+00 -0.00000000000E+00 -0.74505805969E-08  0.93827000000E+00  0.93827000000E+00 0. -1.
     999902    2    1    2    0    0 -0.16848670127E-01 -0.16070503736E-01  0.20777286119E-02  0.10205536074E+01  0.10202858471E+01 0.  0.
     999903    2    3    3    0    0  0.10422837694E+00 -0.16451878595E-01 -0.71916010642E-01  0.12918675237E+00  0.19572570921E-01 0.  0.
         14    1    1    2    0    0  0.16848670127E-01  0.16070503736E-01 -0.20777286119E-02  0.23376392612E-01  0.00000000000E+00 0. -1.
     999901    1    3    3    0    0 -0.12107704707E+00  0.38137485910E-03  0.73993739254E-01  0.89136685502E+00  0.88000000000E+00 0.  1.
        -11    1    4    4    0    0  0.27862347582E-01 -0.80912470792E-02 -0.29721287239E-01  0.41537871012E-01  0.51100000000E-03 0. -1.
         11    1    4    4    0    0  0.76366029359E-01 -0.83606315158E-02 -0.42194723403E-01  0.87648881359E-01  0.51100000000E-03 0.  1.
</event>
<event>
 8    1  0.1183092E+005  0.1043930E+01  0.7957747E-01            NaN
         13   -1    0    0    0    0  0.00000000000E+00  0.00000000000E+00  0.74505805969E-08  0.10566000000E+00  0.10566000000E+00 0.  1.
     999900   -1    0    0    0    0 -0.00000000000E+00 -0.00000000000E+00 -0.74505805969E-08  0.93827000000E+00  0.93827000000E+00 0. -1.
     999902    2    1    2    0    0  0.12001950398E-01 -0.55123871714E-02  0.20369010116E-01  0.10196538842E+01  0.10193648580E+01 0.  0.
     999903    2    3    3    0    0 -0.57298940985E-01  0.13176533116E-01  0.11599291394E+00  0.13156840392E+00  0.19977466342E-01 0.  0.
         14    1    1    2    0    0 -0.12001950398E-01  0.55123871714E-02 -0.20369010116E-01  0.24276115810E-01  0.00000000000E+00 0. -1.
     999901    1    3    3    0    0  0.69300891384E-01 -0.18688920288E-01 -0.95623903826E-01  0.88808548027E+00  0.88000000000E+00 0. -1.
        -11    1    4    4    0    0 -0.20515965663E-01  0.13861451518E-01  0.38383617421E-01  0.45679403374E-01  0.51100000000E-03 0. -1.
         11    1    4    4    0    0 -0.36782975322E-01 -0.68491840149E-03  0.77609296522E-01  0.85889000544E-01  0.51100000000E-03 0.  1.
</event>
<event>
 8    1  0.1183092E+005  0.1043930E+01  0.7957747E-01            NaN
         13   -1    0    0    0    0  0.00000000000E+00  0.00000000000E+00  0.74505805969E-08  0.10566000000E+00  0.10566000000E+00 0. -1.
     999900   -1    0    0    0    0 -0.00000000000E+00 -0.00000000000E+00 -0.74505805969E-08  0.93827000000E+00  0.93827000000E+00 0. -1.
     999902    2    1    2    0    0  0.17704048064E-01  0.28657425424E-02 -0.16066255019E-01  0.10198515792E+01  0.10195672971E+01 0.  0.
     999903    2    3    3    0    0  0.12858123236E+00 -0.24051748342E-01 -0.59287044684E-02  0.13242773951E+00  0.19756941571E-01 0.  0.
         14    1    1    2    0    0 -0.17704048064E-01 -0.28657425424E-02  0.16066255019E-01  0.24078420806E-01  0.00000000000E+00 0.  1.
     999901    1    3    3    0    0 -0.11087718430E+00  0.26917490884E-01 -0.10137550551E-01  0.88742383969E+00  0.88000000000E+00 0. -1.
        -11    1    4    4    0    0  0.48834391387E-01 -0.14705448482E-01  0.56019089047E-02  0.51309750550E-01  0.51100000000E-03 0.  1.
         11    1    4    4    0    0  0.79746840975E-01 -0.93462998600E-02 -0.11530613373E-01  0.81117988957E-01  0.51100000000E-03 0. -1.
</event>
<event>
 8    1  0.1183092E+005  0.1043930E+01  0.7957747E-01            NaN
         13   -1    0    0    0    0  0.00000000000E+00  0.00000000000E+00  0.74505805969E-08  0.10566000000E+00  0.10566000000E+00 0. -1.
     999900   -1    0    0    0    0 -0.00000000000E+00 -0.00000000000E+00 -0.74505805969E-08  0.93827000000E+00  0.93827000000E+00 0. -1.
     999902    2    1    2    0    0  0.10427716050E-01 -0.11014654396E-01 -0.19215363063E-01  0.10194495986E+01  0.10191556280E+01 0.  0.
     999903    2    3    3    0    0  0.27706186223E-01 -0.93278760088E-01  0.82945744535E-01  0.12956038051E+00  0.20912575742E-01 0.  0.
         14    1    1    2    0    0 -0.10427716050E-01  0.11014654396E-01  0.19215363063E-01  0.24480401367E-01  0.00000000000E+00 0. -1.
     999901    1    3    3    0    0 -0.17278470173E-01  0.82264105692E-01 -0.10216110760E+00  0.88988921812E+00  0.88000000000E+00 0. -1.
        -11    1    4    4    0    0  0.19375936304E-01 -0.71683029031E-01  0.73723540450E-01  0.10463892725E+00  0.51100000000E-03 0.  1.
         11    1    4    4    0    0  0.83302499194E-02 -0.21595731057E-01  0.92222040842E-02  0.24921453264E-01  0.51100000000E-03 0. -1.
</event>
<event>
 8    1  0.1183092E+005  0.1043930E+01  0.7957747E-01            NaN
         13   -1    0    0    0    0  0.00000000000E+00  0.00000000000E+00  0.74505805969E-08  0.10566000000E+00  0.10566000000E+00 0. -1.
     999900   -1    0    0    0    0 -0.00000000000E+00 -0.00000000000E+00 -0.74505805969E-08  0.93827000000E+00  0.93827000000E+00 0. -1.
     999902    2    1    2    0    0 -0.21462926198E-01 -0.11924017849E-01 -0.25831752530E-02  0.10192416992E+01  0.10189426525E+01 0.  0.
     999903    2    3    3    0    0  0.23388746008E-01 -0.10687873081E+00  0.68032945361E-01  0.13018899743E+00  0.18724231799E-01 0.  0.
         14    1    1    2    0    0  0.21462926198E-01  0.11924017849E-01  0.25831752530E-02  0.24688300813E-01  0.00000000000E+00 0. -1.
     999901    1    3    3    0    0 -0.44851672206E-01  0.94954712966E-01 -0.70616120614E-01  0.88905270176E+00  0.88000000000E+00 0. -1.
        -11    1    4    4    0    0  0.11336928345E-01 -0.40459675997E-01  0.16026452659E-01  0.44973543689E-01  0.51100000000E-03 0. -1.
         11    1    4    4    0    0  0.12051817663E-01 -0.66419054818E-01  0.52006492702E-01  0.85215453739E-01  0.51100000000E-03 0.  1.
</event>
<event>
 8    1  0.1183092E+005  0.1043930E+01  0.7957747E-01            NaN
         13   -1    0    0    0    0  0.00000000000E+00  0.00000000000E+00  0.74505805969E-08  0.10566000000E+00  0.10566000000E+00 0. -1.
     999900   -1    0    0    0    0 -0.00000000000E+00 -0.00000000000E+00 -0.74505805969E-08  0.93827000000E+00  0.93827000000E+00 0. -1.
     999902    2    1    2    0    0  0.16132127910E-01 -0.14976470567E-01 -0.32185211202E-02  0.10216836722E+01  0.10214414457E+01 0.  0.
     999903    2    3    3    0    0 -0.11055548313E+00 -0.41254443958E-01 -0.53038792253E-01  0.13082883439E+00  0.19458325380E-01 0.  0.
         14    1    1    2    0    0 -0.16132127910E-01  0.14976470567E-01  0.32185211202E-02  0.22246327781E-01  0.00000000000E+00 0. -1.
     999901    1    3    3    0    0  0.12668761104E+00  0.26277973391E-01  0.49820271133E-01  0.89085483783E+00  0.88000000000E+00 0. -1.
        -11    1    4    4    0    0 -0.37199531524E-01 -0.23852594631E-01 -0.18825207223E-01  0.48035413647E-01  0.51100000000E-03 0. -1.
         11    1    4    4    0    0 -0.73355951605E-01 -0.17401849327E-01 -0.34213585030E-01  0.82793420738E-01  0.51100000000E-03 0.  1.
</event>
<event>
 8    1  0.1183092E+005  0.1043930E+01  0.7957747E-01            NaN
         13   -1    0    0    0    0  0.00000000000E+00  0.00000000000E+00  0.74505805969E-08  0.10566000000E+00  0.10566000000E+00 0.  1.
     999900   -1    0    0    0    0 -0.00000000000E+00 -0.00000000000E+00 -0.74505805969E-08  0.93827000000E+00  0.93827000000E+00 0. -1.
     999902    2    1    2    0    0 -0.20665436315E-01 -0.12869430531E-02 -0.11185780110E-01  0.10203962337E+01  0.10201248137E+01 0.  0.
     999903    2    3    3    0    0  0.14335467602E-01  0.12763407896E+00 -0.87054866953E-02  0.13031093156E+00  0.20228436449E-01 0.  0.
         14    1    1    2    0    0  0.20665436315E-01  0.12869430531E-02  0.11185780110E-01  0.23533766320E-01  0.00000000000E+00 0.  1.
     999901    1    3    3    0    0 -0.35000903918E-01 -0.12892102202E+00 -0.24802934145E-02  0.89008530212E+00  0.88000000000E+00 0. -1.
        -11    1    4    4    0    0  0.56115388024E-02  0.35990433511E-01 -0.11524793944E-01  0.38208410966E-01  0.51100000000E-03 0.  1.
         11    1    4    4    0    0  0.87239288000E-02  0.91643645453E-01  0.28193072485E-02  0.92102520596E-01  0.51100000000E-03 0. -1.
</event>
<event>
 8    1  0.1183092E+005  0.1043930E+01  0.7957747E-01            NaN
         13   -1    0    0    0    0  0.00000000000E+00  0.00000000000E+00  0.74505805969E-08  0.10566000000E+00  0.10566000000E+00 0. -1.
     999900   -1    0    0    0    0 -0.00000000000E+00 -0.00000000000E+00 -0.74505805969E-08  0.93827000000E+00  0.93827000000E+00 0.  1.
     999902    2    1    2    0    0  0.95923796623E-02 -0.87252298465E-02  0.19616616535E-01  0.10204150042E+01  0.10201440221E+01 0.  0.
     999903    2    3    3    0    0  0.49688560686E-01  0.47393224257E-01 -0.10698756670E+00  0.12868320380E+00  0.19948853177E-01 0.  0.
         14    1    1    2    0    0 -0.95923796623E-02  0.87252298465E-02 -0.19616616535E-01  0.23514995806E-01  0.00000000000E+00 0.  1.
     999901    1    3    3    0    0 -0.40096181024E-01 -0.56118454103E-01  0.12660418323E+00  0.89173180040E+00  0.88000000000E+00 0. -1.
        -11    1    4    4    0    0  0.24441660177E-01  0.36091198804E-01 -0.70585073953E-01  0.82960732695E-01  0.51100000000E-03 0. -1.
         11    1    4    4    0    0  0.25246900510E-01  0.11302025452E-01 -0.36402492746E-01  0.45722471104E-01  0.51100000000E-03 0.  1.
</event>
<event>
 8    1  0.1183092E+005  0.1043930E+01  0.7957747E-01            NaN
         13   -1    0    0    0    0  0.00000000000E+00  0.00000000000E+00  0.74505805969E-08  0.10566000000E+00  0.10566000000E+00 0. -1.
     999900   -1    0    0    0    0 -0.00000000000E+00 -0.00000000000E+00 -0.74505805969E-08  0.93827000000E+00  0.93827000000E+00 0. -1.
     999902    2    1    2    0    0  0.15785847999E-01 -0.16002014257E-01  0.64197941406E-02  0.10205532762E+01  0.10202855083E+01 0.  0.
     999903    2    3    3    0    0  0.33587165460E-01 -0.12218802296E+00 -0.35245081568E-01  0.13301267591E+00  0.19802664957E-01 0.  0.
         14    1    1    2    0    0 -0.15785847999E-01  0.16002014257E-01 -0.64197941406E-02  0.23376723768E-01  0.00000000000E+00 0. -1.
     999901    1    3    3    0    0 -0.17801317460E-01  0.10618600871E+00  0.41664875709E-01  0.88754060032E+00  0.88000000000E+00 0.  1.
        -11    1    4    4    0    0  0.28789285624E-01 -0.75749103667E-01 -0.16491332699E-01  0.82698094587E-01  0.51100000000E-03 0.  1.
         11    1    4    4    0    0  0.47978798352E-02 -0.46438919296E-01 -0.18753748870E-01  0.50314581325E-01  0.51100000000E-03 0. -1.
</event>
<event>
 8    1  0.1183092E+005  0.1043930E+01  0.7957747E-01            NaN
         13   -1    0    0    0    0  0.00000000000E+00  0.00000000000E+00  0.74505805969E-08  0.10566000000E+00  0.10566000000E+00 0. -1.
     999900   -1    0    0    0    0 -0.00000000000E+00 -0.00000000000E+00 -0.74505805969E-08  0.93827000000E+00  0.93827000000E+00 0. -1.
     999902    2    1    2    0    0  0.41166912264E-02 -0.15518381877E-01  0.20646077894E-01  0.10177760738E+01  0.10174399779E+01 0.  0.
     999903    2    3    3    0    0  0.50453088385E-01  0.11440733616E+00  0.12232740614E-01  0.12699072472E+00  0.18505445869E-01 0.  0.
         14    1    1    2    0    0 -0.41166912264E-02  0.15518381877E-01 -0.20646077894E-01  0.26153926190E-01  0.00000000000E+00 0.  1.
     999901    1    3    3    0    0 -0.46336397159E-01 -0.12992571804E+00  0.84133372802E-02  0.89078534909E+00  0.88000000000E+00 0. -1.
        -11    1    4    4    0    0  0.41599697933E-01  0.95709754025E-01  0.31959595352E-02  0.10440961240E+00  0.51100000000E-03 0. -1.
         11    1    4    4    0    0  0.88533904515E-02  0.18697582137E-01  0.90367810784E-02  0.22581112318E-01  0.51100000000E-03 0.  1.
</event>
<event>
 8    1  0.1183092E+005  0.1043930E+01  0.7957747E-01            NaN
         13   -1    0    0    0    0  0.00000000000E+00  0.00000000000E+00  0.74505805969E-08  0.10566000000E+00  0.10566000000E+00 0.  1.
     999900   -1    0    0    0    0 -0.00000000000E+00 -0.00000000000E+00 -0.74505805969E-08  0.93827000000E+00  0.93827000000E+00 0.  1.
     999902    2    1    2    0    0  0.23769062049E-01 -0.12337314288E-02  0.40984924060E-02  0.10197786430E+01  0.10194926153E+01 0.  0.
     999903    2    3    3    0    0  0.75201866039E-01 -0.94361888392E-01 -0.49075052974E-01  0.13177773487E+00  0.19938002581E-01 0.  0.
         14    1    1    2    0    0 -0.23769062049E-01  0.12337314288E-02 -0.40984924060E-02  0.24151356979E-01  0.00000000000E+00 0. -1.
     999901    1    3    3    0    0 -0.51432803991E-01  0.93128156963E-01  0.53173545380E-01  0.88800090815E+00  0.88000000000E+00 0.  1.
        -11    1    4    4    0    0  0.31933056821E-01 -0.55276944410E-01 -0.22399597414E-01  0.67655478614E-01  0.51100000000E-03 0.  1.
         11    1    4    4    0    0  0.43268809218E-01 -0.39084943982E-01 -0.26675455560E-01  0.64122256258E-01  0.51100000000E-03 0. -1.
</event>
<event>
 8    1  0.1183092E+005  0.1043930E+01  0.7957747E-01            NaN
         13   -1    0    0    0    0  0.00000000000E+00  0.00000000000E+00  0.74505805969E-08  0.10566000000E+00  0.10566000000E+00 0. -1.
     999900   -1    0    0    0    0 -0.00000000000E+00 -0.00000000000E+00 -0.74505805969E-08  0.93827000000E+00  0.93827000000E+00 0. -1.
     999902    2    1    2    0    0  0.60465136074E-02 -0.16567706634E-01 -0.13654083953E-01  0.10216256677E+01  0.10213821624E+01 0.  0.
     999903    2    3    3    0    0  0.42754605030E-01  0.58927543562E-01 -0.10944936298E+00  0.13245540716E+00  0.16274525713E-01 0.  0.
         14    1    1    2    0    0 -0.60465136074E-02  0.16567706634E-01  0.13654083953E-01  0.22304332281E-01  0.00000000000E+00 0. -1.
     999901    1    3    3    0    0 -0.36708091422E-01 -0.75495250196E-01  0.95795279029E-01  0.88917026056E+00  0.88000000000E+00 0.  1.
        -11    1    4    4    0    0  0.24730362251E-01  0.39665609218E-01 -0.56782342975E-01  0.73548942660E-01  0.51100000000E-03 0.  1.
         11    1    4    4    0    0  0.18024242779E-01  0.19261934344E-01 -0.52667020008E-01  0.58906464500E-01  0.51100000000E-03 0. -1.
</event>
<event>
 8    1  0.1183092E+005  0.1043930E+01  0.7957747E-01            NaN
         13   -1    0    0    0    0  0.00000000000E+00  0.00000000000E+00  0.74505805969E-08  0.10566000000E+00  0.10566000000E+00 0. -1.
     999900   -1    0    0    0    0 -0.00000000000E+00 -0.00000000000E+00 -0.74505805969E-08  0.93827000000E+00  0.93827000000E+00 0. -1.
     999902    2    1    2    0    0 -0.15667737359E-01  0.54145474816E-02 -0.16711628386E-01  0.10203912268E+01  0.10201196900E+01 0.  0.
     999903    2    3    3    0    0 -0.53375852187E-02 -0.19896747023E-02  0.12695341577E+00  0.12865069313E+00  0.20034531322E-01 0.  0.
         14    1    1    2    0    0  0.15667737359E-01 -0.54145474816E-02  0.16711628386E-01  0.23538773156E-01  0.00000000000E+00 0. -1.
     999901    1    3    3    0    0 -0.10330152141E-01  0.74042221839E-02 -0.14366504416E+00  0.89174053371E+00  0.88000000000E+00 0. -1.
        -11    1    4    4    0    0  0.45819184792E-03  0.86627784975E-02  0.53544931424E-01  0.54245501872E-01  0.51100000000E-03 0.  1.
         11    1    4    4    0    0 -0.57957770666E-02 -0.10652453200E-01  0.73408484351E-01  0.74405191261E-01  0.51100000000E-03 0. -1.
</event>
<event>
 8    1  0.1183092E+005  0.1043930E+01  0.7957747E-01            NaN
         13   -1    0    0    0    0  0.00000000000E+00  0.00000000000E+00  0.74505805969E-08  0.10566000000E+00  0.10566000000E+00 0.  1.
     999900   -1    0    0    0    0 -0.00000000000E+00 -0.00000000000E+00 -0.74505805969E-08  0.93827000000E+00  0.93827000000E+00 0.  1.
     999902    2    1    2    0    0  0.12281205904E-01  0.15346396243E-02 -0.19859371431E-01  0.10205296203E+01  0.10202613038E+01 0.  0.
     999903    2    3    3    0    0  0.99315706199E-01  0.22634518597E-01  0.78610906570E-01  0.13052029180E+00  0.21907556011E-01 0.  0.
         14    1    1    2    0    0 -0.12281205904E-01 -0.15346396243E-02  0.19859371431E-01  0.23400379717E-01  0.00000000000E+00 0.  1.
     999901    1    3    3    0    0 -0.87034500295E-01 -0.21099878973E-01 -0.98470278001E-01  0.89000932848E+00  0.88000000000E+00 0.  1.
        -11    1    4    4    0    0  0.36441870559E-01 -0.15065025800E-02  0.22494538819E-01  0.42854928276E-01  0.51100000000E-03 0. -1.
         11    1    4    4    0    0  0.62873835640E-01  0.24141021177E-01  0.56116367751E-01  0.87665363526E-01  0.51100000000E-03 0.  1.
</event>
<event>
 8    1  0.1183092E+005  0.1043930E+01  0.7957747E-01            NaN
         13   -1    0    0    0    0  0.00000000000E+00  0.00000000000E+00  0.74505805969E-08  0.10566000000E+00  0.10566000000E+00 0. -1.
     999900   -1    0    0    0    0 -0.00000000000E+00 -0.00000000000E+00 -0.74505805969E-08  0.93827000000E+00  0.93827000000E+00 0.  1.
     999902    2    1    2    0    0 -0.20093209319E-01  0.40052242440E-02  0.12991607297E-01  0.10196697291E+01  0.10193810847E+01 0.  0.
     999903    2    3    3    0    0 -0.11805904301E+00 -0.15982535216E-01 -0.51966923097E-01  0.13162894980E+00  0.20790388669E-01 0.  0.
         14    1    1    2    0    0  0.20093209319E-01 -0.40052242440E-02 -0.12991607297E-01  0.24260270859E-01  0.00000000000E+00 0.  1.
     999901    1    3    3    0    0  0.97965833691E-01  0.19987759460E-01  0.64958530395E-01  0.88804077934E+00  0.88000000000E+00 0. -1.
        -11    1    4    4    0    0 -0.32405628494E-01  0.15291671595E-03 -0.55609234478E-02  0.32883630156E-01  0.51100000000E-03 0.  1.
         11    1    4    4    0    0 -0.85653414516E-01 -0.16135451932E-01 -0.46405999650E-01  0.98745319645E-01  0.51100000000E-03 0. -1.
</event>
<event>
 8    1  0.1183092E+005  0.1043930E+01  0.7957747E-01            NaN
         13   -1    0    0    0    0  0.00000000000E+00  0.00000000000E+00  0.74505805969E-08  0.10566000000E+00  0.10566000000E+00 0.  1.
     999900   -1    0    0    0    0 -0.00000000000E+00 -0.00000000000E+00 -0.74505805969E-08  0.93827000000E+00  0.93827000000E+00 0. -1.
     999902    2    1    2    0    0  0.84263706915E-02 -0.14399346716E-01 -0.16481547201E-01  0.10204782131E+01  0.10202087028E+01 0.  0.
     999903    2    3    3    0    0  0.12709866183E-03  0.38939105059E-01  0.11903146772E+00  0.12847056431E+00  0.28634341796E-01 0.  0.
         14    1    1    2    0    0 -0.84263706915E-02  0.14399346716E-01  0.16481547201E-01  0.23451786862E-01  0.00000000000E+00 0.  1.
     999901    1    3    3    0    0  0.82992720297E-02 -0.53338451775E-01 -0.13551301492E+00  0.89200764883E+00  0.88000000000E+00 0. -1.
        -11    1    4    4    0    0  0.60219357445E-02  0.19871532553E-01  0.25780779413E-01  0.33106664348E-01  0.51100000000E-03 0.  1.
         11    1    4    4    0    0 -0.58948370827E-02  0.19067572506E-01  0.93250688306E-01  0.95363899962E-01  0.51100000000E-03 0. -1.
</event>
<event>
 8    1  0.1183092E+005  0.1043930E+01  0.7957747E-01            NaN
         13   -1    0    0    0    0  0.00000000000E+00  0.00000000000E+00  0.74505805969E-08  0.10566000000E+00  0.10566000000E+00 0. -1.
     999900   -1    0    0    0    0 -0.00000000000E+00 -0.00000000000E+00 -0.74505805969E-08  0.93827000000E+00  0.93827000000E+00 0. -1.
     999902    2    1    2    0    0 -0.97794240433E-02  0.11413694468E-01  0.18447149826E-01  0.10201348977E+01  0.10198573443E+01 0.  0.
     999903    2    3    3    0    0  0.63717238287E-01 -0.72358857878E-01 -0.80982831774E-01  0.12755105227E+00  0.20380410346E-01 0.  0.
         14    1    1    2    0    0  0.97794240433E-02 -0.11413694468E-01 -0.18447149826E-01  0.23795102285E-01  0.00000000000E+00 0.  1.
     999901    1    3    3    0    0 -0.73496662331E-01  0.83772552346E-01  0.99429981601E-01  0.89258384544E+00  0.88000000000E+00 0.  1.
        -11    1    4    4    0    0  0.39213129181E-01 -0.54173288767E-01 -0.64275885457E-01  0.92758100931E-01  0.51100000000E-03 0.  1.
         11    1    4    4    0    0  0.24504109106E-01 -0.18185569111E-01 -0.16706946317E-01  0.34792951344E-01  0.51100000000E-03 0. -1.
</event>
<event>
 8    1  0.1183092E+005  0.1043930E+01  0.7957747E-01            NaN
         13   -1    0    0    0    0  0.00000000000E+00  0.00000000000E+00  0.74505805969E-08  0.10566000000E+00  0.10566000000E+00 0. -1.
     999900   -1    0    0    0    0 -0.00000000000E+00 -0.00000000000E+00 -0.74505805969E-08  0.93827000000E+00  0.93827000000E+00 0. -1.
     999902    2    1    2    0    0  0.87487738963E-02  0.19370110545E-01 -0.10320404209E-01  0.10203026224E+01  0.10200290135E+01 0.  0.
     999903    2    3    3    0    0  0.89949175704E-01  0.93247841059E-01  0.22002645089E-01  0.13289279388E+00  0.19757636533E-01 0.  0.
         14    1    1    2    0    0 -0.87487738963E-02 -0.19370110545E-01  0.10320404209E-01  0.23627377558E-01  0.00000000000E+00 0.  1.
     999901    1    3    3    0    0 -0.81200401808E-01 -0.73877730514E-01 -0.32323049298E-01  0.88740982857E+00  0.88000000000E+00 0. -1.
        -11    1    4    4    0    0  0.40746929567E-01  0.32246004249E-01  0.15611391072E-01  0.54259503420E-01  0.51100000000E-03 0. -1.
         11    1    4    4    0    0  0.49202246137E-01  0.61001836810E-01  0.63912540167E-02  0.78633290456E-01  0.51100000000E-03 0.  1.
</event>
<event>
 8    1  0.1183092E+005  0.1043930E+01  0.7957747E-01            NaN
         13   -1    0    0    0    0  0.00000000000E+00  0.00000000000E+00  0.74505805969E-08  0.10566000000E+00  0.10566000000E+00 0. -1.
     999900   -1    0    0    0    0 -0.00000000000E+00 -0.00000000000E+00 -0.74505805969E-08  0.93827000000E+00  0.93827000000E+00 0.  1.
     999902    2    1    2    0    0  0.52972842408E-02 -0.11457159639E-01  0.20076197850E-01  0.10202154170E+01  0.10199397608E+01 0.  0.
     999903    2    3    3    0    0 -0.80263280489E-01 -0.10114286341E+00 -0.87379835966E-02  0.13106166608E+00  0.20705915678E-01 0.  0.
         14    1    1    2    0    0 -0.52972842408E-02  0.11457159639E-01 -0.20076197850E-01  0.23714583013E-01  0.00000000000E+00 0.  1.
     999901    1    3    3    0    0  0.85560564729E-01  0.89685703775E-01  0.28814181447E-01  0.88915375091E+00  0.88000000000E+00 0. -1.
        -11    1    4    4    0    0 -0.47514303877E-01 -0.65909367228E-01 -0.14755432204E-01  0.82581097485E-01  0.51100000000E-03 0.  1.
         11    1    4    4    0    0 -0.32748976612E-01 -0.35233496186E-01  0.60174486072E-02  0.48480568596E-01  0.51100000000E-03 0. -1.
</event>
<event>
 8    1  0.1183092E+005  0.1043930E+01  0.7957747E-01            NaN
         13   -1    0    0    0    0  0.00000000000E+00  0.00000000000E+00  0.74505805969E-08  0.10566000000E+00  0.10566000000E+00 0. -1.
     999900   -1    0    0    0    0 -0.00000000000E+00 -0.00000000000E+00 -0.74505805969E-08  0.93827000000E+00  0.93827000000E+00 0. -1.
     999902    2    1    2    0    0  0.14015463154E-01  0.17802015747E-01 -0.59812554057E-02  0.10204966821E+01  0.10202276010E+01 0.  0.
     999903    2    3    3    0    0  0.83479699911E-01  0.26735364236E-01  0.96409729797E-01  0.13179594576E+00  0.19791294065E-01 0.  0.
         14    1    1    2    0    0 -0.14015463154E-01 -0.17802015747E-01  0.59812554057E-02  0.23433317911E-01  0.00000000000E+00 0. -1.
     999901    1    3    3    0    0 -0.69464236757E-01 -0.89333484888E-02 -0.10239098520E+00  0.88870073633E+00  0.88000000000E+00 0. -1.
        -11    1    4    4    0    0  0.42665966359E-01  0.23337385112E-01  0.47218573388E-01  0.67785492718E-01  0.51100000000E-03 0. -1.
         11    1    4    4    0    0  0.40813733552E-01  0.33979791237E-02  0.49191156410E-01  0.64010453041E-01  0.51100000000E-03 0.  1.
</event>
<event>
 8    1  0.1183092E+005  0.1043930E+01  0.7957747E-01            NaN
         13   -1    0    0    0    0  0.00000000000E+00  0.00000000000E+00  0.74505805969E-08  0.10566000000E+00  0.10566000000E+00 0.  1.
     999900   -1    0    0    0    0 -0.00000000000E+00 -0.00000000000E+00 -0.74505805969E-08  0.93827000000E+00  0.93827000000E+00 0.  1.
     999902    2    1    2    0    0  0.19252820625E-01 -0.10154483894E-01 -0.87580836745E-02  0.10204675049E+01  0.10201977455E+01 0.  0.
     999903    2    3    3    0    0  0.12388546310E+00  0.42363530943E-01  0.45012179567E-02  0.13261507303E+00  0.20596599513E-01 0.  0.
         14    1    1    2    0    0 -0.19252820625E-01  0.10154483894E-01  0.87580836745E-02  0.23462495069E-01  0.00000000000E+00 0.  1.
     999901    1    3    3    0    0 -0.10463264247E+00 -0.52518014838E-01 -0.13259301631E-01  0.88785243190E+00  0.88000000000E+00 0.  1.
        -11    1    4    4    0    0  0.50776262789E-01  0.74077256558E-02 -0.16622054038E-02  0.51343230421E-01  0.51100000000E-03 0. -1.
         11    1    4    4    0    0  0.73109200306E-01  0.34955805287E-01  0.61634233605E-02  0.81271842610E-01  0.51100000000E-03 0.  1.
</event>
<event>
 8    1  0.1183092E+005  0.1043930E+01  0.7957747E-01            NaN
         13   -1    0    0    0    0  0.00000000000E+00  0.00000000000E+00  0.74505805969E-08  0.10566000000E+00  0.10566000000E+00 0. -1.
     999900   -1    0    0    0    0 -0.00000000000E+00 -0.00000000000E+00 -0.74505805969E-08  0.93827000000E+00  0.93827000000E+00 0.  1.
     999902    2    1    2    0    0  0.15705389045E-01 -0.43785529734E-02  0.17562361431E-01  0.10199661207E+01  0.10196845688E+01 0.  0.
     999903    2    3    3    0    0  0.49717444300E-02  0.90895639361E-01  0.92778482221E-01  0.13156877286E+00  0.20390187142E-01 0.  0.
         14    1    1    2    0    0 -0.15705389045E-01  0.43785529734E-02 -0.17562361431E-01  0.23963879282E-01  0.00000000000E+00 0.  1.
     999901    1    3    3    0    0  0.10733644615E-01 -0.95274192334E-01 -0.75216120790E-01  0.88839734786E+00  0.88000000000E+00 0.  1.
        -11    1    4    4    0    0 -0.63008303435E-03  0.39495706728E-01  0.54139628519E-01  0.67019910115E-01  0.51100000000E-03 0. -1.
         11    1    4    4    0    0  0.56018274643E-02  0.51399932632E-01  0.38638853701E-01  0.64548862747E-01  0.51100000000E-03 0.  1.
</event>
<event>
 8    1  0.1183092E+005  0.1043930E+01  0.7957747E-01            NaN
         13   -1    0    0    0    0  0.00000000000E+00  0.00000000000E+00  0.74505805969E-08  0.10566000000E+00  0.10566000000E+00 0.  1.
     999900   -1    0    0    0    0 -0.00000000000E+00 -0.00000000000E+00 -0.74505805969E-08  0.93827000000E+00  0.93827000000E+00 0. -1.
     999902    2    1    2    0    0 -0.10916814374E-01 -0.10258028223E-01  0.20252145796E-01  0.10187396568E+01  0.10184281688E+01 0.  0.
     999903    2    3    3    0    0 -0.15754971649E-01  0.52860462360E-01 -0.11213753211E+00  0.12658811230E+00  0.20181091502E-01 0.  0.
         14    1    1    2    0    0  0.10916814374E-01  0.10258028223E-01 -0.20252145796E-01  0.25190343159E-01  0.00000000000E+00 0. -1.
     999901    1    3    3    0    0  0.48381572752E-02 -0.63118490583E-01  0.13238967791E+00  0.89215154455E+00  0.88000000000E+00 0.  1.
        -11    1    4    4    0    0 -0.20493172004E-01  0.45678505104E-01 -0.93800018998E-01  0.10632591694E+00  0.51100000000E-03 0.  1.
         11    1    4    4    0    0  0.47382003551E-02  0.71819572556E-02 -0.18337513112E-01  0.20262195359E-01  0.51100000000E-03 0. -1.
</event>
<event>
 8    1  0.1183092E+005  0.1043930E+01  0.7957747E-01            NaN
         13   -1    0    0    0    0  0.00000000000E+00  0.00000000000E+00  0.74505805969E-08  0.10566000000E+00  0.10566000000E+00 0. -1.
     999900   -1    0    0    0    0 -0.00000000000E+00 -0.00000000000E+00 -0.74505805969E-08  0.93827000000E+00  0.93827000000E+00 0.  1.
     999902    2    1    2    0    0 -0.18319468262E-02 -0.20700329396E-01 -0.12209173152E-01  0.10198276438E+01  0.10195427894E+01 0.  0.
     999903    2    3    3    0    0  0.47593371359E-02 -0.10171158722E+00  0.80330560637E-01  0.13125020132E+00  0.20142445471E-01 0.  0.
         14    1    1    2    0    0  0.18319468262E-02  0.20700329396E-01  0.12209173152E-01  0.24102356220E-01  0.00000000000E+00 0. -1.
     999901    1    3    3    0    0 -0.65912839620E-02  0.81011257824E-01 -0.92539733788E-01  0.88857744246E+00  0.88000000000E+00 0.  1.
        -11    1    4    4    0    0  0.80400923828E-02 -0.19362109633E-01  0.21168755834E-01  0.29797847565E-01  0.51100000000E-03 0.  1.
         11    1    4    4    0    0 -0.32807552469E-02 -0.82349477588E-01  0.59161804803E-01  0.10145235376E+00  0.51100000000E-03 0. -1.
</event>
<event>
 8    1  0.1183092E+005  0.1043930E+01  0.7957747E-01            NaN
         13   -1    0    0    0    0  0.00000000000E+00  0.00000000000E+00  0.74505805969E-08  0.10566000000E+00  0.10566000000E+00 0. -1.
     999900   -1    0    0    0    0 -0.00000000000E+00 -0.00000000000E+00 -0.74505805969E-08  0.93827000000E+00  0.93827000000E+00 0. -1.
     999902    2    1    2    0    0  0.13042040674E-01 -0.18902552615E-01 -0.13172188782E-02  0.10209270353E+01  0.10206678573E+01 0.  0.
     999903    2    3    3    0    0 -0.25331534502E-02  0.12632303426E+00  0.15421157520E-01  0.12873129947E+00  0.19235631316E-01 0.  0.
         14    1    1    2    0    0 -0.13042040674E-01  0.18902552615E-01  0.13172188782E-02  0.23002964719E-01  0.00000000000E+00 0. -1.
     999901    1    3    3    0    0  0.15575194124E-01 -0.14522558688E+00 -0.16738376399E-01  0.89219573581E+00  0.88000000000E+00 0.  1.
        -11    1    4    4    0    0 -0.60700951986E-02  0.31528131493E-01  0.10332640357E-01  0.33732680132E-01  0.51100000000E-03 0.  1.
         11    1    4    4    0    0  0.35369417483E-02  0.94794902769E-01  0.50885171629E-02  0.94998619337E-01  0.51100000000E-03 0. -1.
</event>
<event>
 8    1  0.1295678E+005  0.1043930E+01  0.7957747E-01            NaN
         13   -1    0    0    0    0  0.00000000000E+00  0.00000000000E+00  0.74505805969E-08  0.10566000000E+00  0.10566000000E+00 0.  1.
     999900   -1    0    0    0    0 -0.00000000000E+00 -0.00000000000E+00 -0.74505805969E-08  0.93827000000E+00  0.93827000000E+00 0.  1.
     999902    2    1    2    0    0  0.19212900760E-01 -0.12671836203E-01 -0.29669581316E-02  0.10207240993E+01  0.10204602751E+01 0.  0.
     999903    2    3    3    0    0  0.10713062340E+00  0.71103177812E-01 -0.22941869526E-01  0.13215965252E+00  0.20179494855E-01 0.  0.
         14    1    1    2    0    0 -0.19212900760E-01  0.12671836203E-01  0.29669581316E-02  0.23205900734E-01  0.00000000000E+00 0.  1.
     999901    1    3    3    0    0 -0.87917722642E-01 -0.83775014014E-01  0.19974911394E-01  0.88856444674E+00  0.88000000000E+00 0.  1.
        -11    1    4    4    0    0  0.64589752649E-01  0.54039346732E-01 -0.17308720663E-01  0.85976392541E-01  0.51100000000E-03 0. -1.
         11    1    4    4    0    0  0.42540870753E-01  0.17063831080E-01 -0.56331488634E-02  0.46183259983E-01  0.51100000000E-03 0.  1.
</event>
<event>
 8    1  0.1183092E+005  0.1043930E+01  0.7957747E-01            NaN
         13   -1    0    0    0    0  0.00000000000E+00  0.00000000000E+00  0.74505805969E-08  0.10566000000E+00  0.10566000000E+00 0.  1.
     999900   -1    0    0    0    0 -0.00000000000E+00 -0.00000000000E+00 -0.74505805969E-08  0.93827000000E+00  0.93827000000E+00 0.  1.
     999902    2    1    2    0    0 -0.22199210536E-01 -0.57389479772E-02 -0.16738289534E-03  0.10210003578E+01  0.10207428482E+01 0.  0.
     999903    2    3    3    0    0  0.30368198784E-02  0.72548647883E-01 -0.10676006056E+00  0.13076005106E+00  0.20686996848E-01 0.  0.
         14    1    1    2    0    0  0.22199210536E-01  0.57389479772E-02  0.16738289534E-03  0.22929642154E-01  0.00000000000E+00 0.  1.
     999901    1    3    3    0    0 -0.25236030414E-01 -0.78287595860E-01  0.10659267766E+00  0.89024030679E+00  0.88000000000E+00 0. -1.
        -11    1    4    4    0    0  0.11896368732E-01  0.40735271965E-01 -0.61968827149E-01  0.75108472427E-01  0.51100000000E-03 0. -1.
         11    1    4    4    0    0 -0.88595488539E-02  0.31813375918E-01 -0.44791233406E-01  0.55651578632E-01  0.51100000000E-03 0.  1.
</event>
<event>
 8    1  0.1242250E+005  0.1043930E+01  0.7957747E-01            NaN
         13   -1    0    0    0    0  0.00000000000E+00  0.00000000000E+00  0.74505805969E-08  0.10566000000E+00  0.10566000000E+00 0.  1.
     999900   -1    0    0    0    0 -0.00000000000E+00 -0.00000000000E+00 -0.74505805969E-08  0.93827000000E+00  0.93827000000E+00 0.  1.
     999902    2    1    2    0    0 -0.23867981488E-02  0.23203061418E-01 -0.82039339252E-02  0.10192038317E+01  0.10189038557E+01 0.  0.
     999903    2    3    3    0    0 -0.84005847024E-01  0.86161407975E-01  0.48967871007E-01  0.13134458737E+00  0.19307451495E-01 0.  0.
         14    1    1    2    0    0  0.23867981488E-02 -0.23203061418E-01  0.82039339252E-02  0.24726168251E-01  0.00000000000E+00 0.  1.
     999901    1    3    3    0    0  0.81619048875E-01 -0.62958346558E-01 -0.57171804932E-01  0.88785924437E+00  0.88000000000E+00 0.  1.
        -11    1    4    4    0    0 -0.44539039819E-01  0.34889123107E-01  0.29302802381E-01  0.63717284371E-01  0.51100000000E-03 0.  1.
         11    1    4    4    0    0 -0.39466807205E-01  0.51272284869E-01  0.19665068626E-01  0.67627303004E-01  0.51100000000E-03 0. -1.
</event>
<event>
 8    1  0.1183092E+005  0.1043930E+01  0.7957747E-01            NaN
         13   -1    0    0    0    0  0.00000000000E+00  0.00000000000E+00  0.74505805969E-08  0.10566000000E+00  0.10566000000E+00 0.  1.
     999900   -1    0    0    0    0 -0.00000000000E+00 -0.00000000000E+00 -0.74505805969E-08  0.93827000000E+00  0.93827000000E+00 0. -1.
     999902    2    1    2    0    0  0.16077090785E-02 -0.95668924341E-02  0.21488217906E-01  0.10203534509E+01  0.10200810316E+01 0.  0.
     999903    2    3    3    0    0  0.80630534402E-01 -0.38023627284E-01  0.96767931043E-01  0.13315481028E+00  0.20471729606E-01 0.  0.
         14    1    1    2    0    0 -0.16077090785E-02  0.95668924341E-02 -0.21488217906E-01  0.23576549114E-01  0.00000000000E+00 0. -1.
     999901    1    3    3    0    0 -0.79022825324E-01  0.28456734850E-01 -0.75279713136E-01  0.88719864060E+00  0.88000000000E+00 0. -1.
        -11    1    4    4    0    0  0.65952045594E-01 -0.30489748455E-01  0.65631855088E-01  0.97913730407E-01  0.51100000000E-03 0.  1.
         11    1    4    4    0    0  0.14678488808E-01 -0.75338788295E-02  0.31136075955E-01  0.35241079875E-01  0.51100000000E-03 0. -1.
</event>
<event>
 8    1  0.1183092E+005  0.1043930E+01  0.7957747E-01            NaN
         13   -1    0    0    0    0  0.00000000000E+00  0.00000000000E+00  0.74505805969E-08  0.10566000000E+00  0.10566000000E+00 0. -1.
     999900   -1    0    0    0    0 -0.00000000000E+00 -0.00000000000E+00 -0.74505805969E-08  0.93827000000E+00  0.93827000000E+00 0. -1.
     999902    2    1    2    0    0 -0.21238690060E-01 -0.87298928578E-02 -0.35073212818E-02  0.10207008311E+01  0.10204364715E+01 0.  0.
     999903    2    3    3    0    0  0.77773514421E-01 -0.10157436673E+00 -0.14569099587E-01  0.13022574673E+00  0.19504228433E-01 0.  0.
         14    1    1    2    0    0  0.21238690060E-01  0.87298928578E-02  0.35073212818E-02  0.23229168890E-01  0.00000000000E+00 0. -1.
     999901    1    3    3    0    0 -0.99012204480E-01  0.92844473870E-01  0.11061778305E-01  0.89047508438E+00  0.88000000000E+00 0.  1.
        -11    1    4    4    0    0  0.45213116429E-01 -0.46384480038E-01 -0.13229917308E-02  0.64790101973E-01  0.51100000000E-03 0.  1.
         11    1    4    4    0    0  0.32560397992E-01 -0.55189886689E-01 -0.13246107856E-01  0.65435644755E-01  0.51100000000E-03 0. -1.
</event>
<event>
 8    1  0.1183092E+005  0.1043930E+01  0.7957747E-01            NaN
         13   -1    0    0    0    0  0.00000000000E+00  0.00000000000E+00  0.74505805969E-08  0.10566000000E+00  0.10566000000E+00 0.  1.
     999900   -1    0    0    0    0 -0.00000000000E+00 -0.00000000000E+00 -0.74505805969E-08  0.93827000000E+00  0.93827000000E+00 0. -1.
     999902    2    1    2    0    0  0.18450121312E-01  0.14164244716E-01 -0.26795110147E-02  0.10205160600E+01  0.10202474289E+01 0.  0.
     999903    2    3    3    0    0  0.43856692772E-01  0.58759301839E-01 -0.10880393009E+00  0.13265536978E+00  0.19572605253E-01 0.  0.
         14    1    1    2    0    0 -0.18450121312E-01 -0.14164244716E-01  0.26795110147E-02  0.23413939953E-01  0.00000000000E+00 0.  1.
     999901    1    3    3    0    0 -0.25406571459E-01 -0.44595057122E-01  0.10612441907E+00  0.88786069026E+00  0.88000000000E+00 0.  1.
        -11    1    4    4    0    0  0.29753946928E-01  0.33631544971E-01 -0.80970611607E-01  0.92589844151E-01  0.51100000000E-03 0.  1.
         11    1    4    4    0    0  0.14102745844E-01  0.25127756867E-01 -0.27833318480E-01  0.40065525632E-01  0.51100000000E-03 0. -1.
</event>
<event>
 8    1  0.1183092E+005  0.1043930E+01  0.7957747E-01            NaN
         13   -1    0    0    0    0  0.00000000000E+00  0.00000000000E+00  0.74505805969E-08  0.10566000000E+00  0.10566000000E+00 0.  1.
     999900   -1    0    0    0    0 -0.00000000000E+00 -0.00000000000E+00 -0.74505805969E-08  0.93827000000E+00  0.93827000000E+00 0.  1.
     999902    2    1    2    0    0 -0.73955782745E-02 -0.60464101812E-03 -0.22423676821E-01  0.10203104858E+01  0.10200370611E+01 0.  0.
     999903    2    3    3    0    0  0.41299862549E-01  0.12340711014E-01  0.11864035166E+00  0.12765271923E+00  0.19018724697E-01 0.  0.
         14    1    1    2    0    0  0.73955782745E-02  0.60464101812E-03  0.22423676821E-01  0.23619514198E-01  0.00000000000E+00 0.  1.
     999901    1    3    3    0    0 -0.48695440823E-01 -0.12945352032E-01 -0.14106402848E+00  0.89265776658E+00  0.88000000000E+00 0.  1.
        -11    1    4    4    0    0  0.36440211738E-01  0.17117148265E-01  0.10260207379E+00  0.11021947406E+00  0.51100000000E-03 0. -1.
         11    1    4    4    0    0  0.48596508112E-02 -0.47764372514E-02  0.16038277871E-01  0.17433245162E-01  0.51100000000E-03 0.  1.
</event>
<event>
 8    1  0.1183092E+005  0.1043930E+01  0.7957747E-01            NaN
         13   -1    0    0    0    0  0.00000000000E+00  0.00000000000E+00  0.74505805969E-08  0.10566000000E+00  0.10566000000E+00 0. -1.
     999900   -1    0    0    0    0 -0.00000000000E+00 -0.00000000000E+00 -0.74505805969E-08  0.93827000000E+00  0.93827000000E+00 0. -1.
     999902    2    1    2    0    0 -0.14970855357E-01 -0.10255182694E-01  0.15551322540E-01  0.10200314872E+01  0.10197514873E+01 0.  0.
     999903    2    3    3    0    0  0.94905594772E-02  0.56638118721E-01  0.11640503786E+00  0.13141202617E+00  0.20519273166E-01 0.  0.
         14    1    1    2    0    0  0.14970855357E-01  0.10255182694E-01 -0.15551322540E-01  0.23898512819E-01  0.00000000000E+00 0.  1.
     999901    1    3    3    0    0 -0.24461414834E-01 -0.66893301414E-01 -0.10085371532E+00  0.88861946101E+00  0.88000000000E+00 0. -1.
        -11    1    4    4    0    0  0.93039341115E-02  0.26199315955E-01  0.75229843185E-01  0.80204474769E-01  0.51100000000E-03 0. -1.
         11    1    4    4    0    0  0.18662536571E-03  0.30438802765E-01  0.41175194679E-01  0.51207551403E-01  0.51100000000E-03 0.  1.
</event>
<event>
 8    1  0.1183092E+005  0.1043930E+01  0.7957747E-01            NaN
         13   -1    0    0    0    0  0.00000000000E+00  0.00000000000E+00  0.74505805969E-08  0.10566000000E+00  0.10566000000E+00 0. -1.
     999900   -1    0    0    0    0 -0.00000000000E+00 -0.00000000000E+00 -0.74505805969E-08  0.93827000000E+00  0.93827000000E+00 0.  1.
     999902    2    1    2    0    0 -0.15082984396E-01  0.17755989589E-01  0.13588081394E-02  0.10205929491E+01  0.10203260998E+01 0.  0.
     999903    2    3    3    0    0  0.81774870344E-01  0.86458030522E-01 -0.51003508073E-01  0.13107441270E+00  0.20421150033E-01 0.  0.
         14    1    1    2    0    0  0.15082984396E-01 -0.17755989589E-01 -0.13588081394E-02  0.23337050888E-01  0.00000000000E+00 0.  1.
     999901    1    3    3    0    0 -0.96857854740E-01 -0.68702040932E-01  0.52362316212E-01  0.88951853641E+00  0.88000000000E+00 0.  1.
        -11    1    4    4    0    0  0.44959645544E-01  0.43673317922E-01 -0.37474762747E-01  0.73029770571E-01  0.51100000000E-03 0.  1.
         11    1    4    4    0    0  0.36815224801E-01  0.42784712600E-01 -0.13528745326E-01  0.58044642134E-01  0.51100000000E-03 0. -1.
</event>
<event>
 8    1  0.1183092E+005  0.1043930E+01  0.7957747E-01            NaN
         13   -1    0    0    0    0  0.00000000000E+00  0.00000000000E+00  0.74505805969E-08  0.10566000000E+00  0.10566000000E+00 0. -1.
     999900   -1    0    0    0    0 -0.00000000000E+00 -0.00000000000E+00 -0.74505805969E-08  0.93827000000E+00  0.93827000000E+00 0.  1.
     999902    2    1    2    0    0 -0.39801664207E-02  0.63552718132E-02 -0.24595928936E-01  0.10182163669E+01  0.10178916342E+01 0.  0.
     999903    2    3    3    0    0 -0.11890130870E+00  0.29994195137E-01 -0.39559089266E-01  0.13030332852E+00  0.19412957719E-01 0.  0.
         14    1    1    2    0    0  0.39801664207E-02 -0.63552718132E-02  0.24595928936E-01  0.25713633053E-01  0.00000000000E+00 0. -1.
     999901    1    3    3    0    0  0.11492114228E+00 -0.23638923324E-01  0.14963160329E-01  0.88791303843E+00  0.88000000000E+00 0.  1.
        -11    1    4    4    0    0 -0.47081404805E-01  0.20777204692E-01 -0.20744172334E-01  0.55488131344E-01  0.51100000000E-03 0.  1.
         11    1    4    4    0    0 -0.71819903896E-01  0.92169904447E-02 -0.18814916932E-01  0.74815197177E-01  0.51100000000E-03 0. -1.
</event>
<event>
 8    1  0.1183092E+005  0.1043930E+01  0.7957747E-01            NaN
         13   -1    0    0    0    0  0.00000000000E+00  0.00000000000E+00  0.74505805969E-08  0.10566000000E+00  0.10566000000E+00 0.  1.
     999900   -1    0    0    0    0 -0.00000000000E+00 -0.00000000000E+00 -0.74505805969E-08  0.93827000000E+00  0.93827000000E+00 0.  1.
     999902    2    1    2    0    0  0.14795887291E-01 -0.14858309212E-02 -0.18465762845E-01  0.10202211331E+01  0.10199456113E+01 0.  0.
     999903    2    3    3    0    0 -0.10471125445E+00 -0.28771394178E-01  0.64979601470E-01  0.12781450617E+00  0.17943228468E-01 0.  0.
         14    1    1    2    0    0 -0.14795887291E-01  0.14858309212E-02  0.18465762845E-01  0.23708866942E-01  0.00000000000E+00 0.  1.
     999901    1    3    3    0    0  0.11950714174E+00  0.27285563257E-01 -0.83445364314E-01  0.89240662689E+00  0.88000000000E+00 0.  1.
        -11    1    4    4    0    0 -0.22818937698E-01 -0.14050587107E-01  0.14107817066E-01  0.30288851729E-01  0.51100000000E-03 0.  1.
         11    1    4    4    0    0 -0.81892316755E-01 -0.14720807071E-01  0.50871784404E-01  0.97525654439E-01  0.51100000000E-03 0. -1.
</event>
<event>
 8    1  0.1183092E+005  0.1043930E+01  0.7957747E-01            NaN
         13   -1    0    0    0    0  0.00000000000E+00  0.00000000000E+00  0.74505805969E-08  0.10566000000E+00  0.10566000000E+00 0. -1.
     999900   -1    0    0    0    0 -0.00000000000E+00 -0.00000000000E+00 -0.74505805969E-08  0.93827000000E+00  0.93827000000E+00 0.  1.
     999902    2    1    2    0    0 -0.12965009261E-01  0.19837395434E-01 -0.25563505251E-02  0.10200941310E+01  0.10198156144E+01 0.  0.
     999903    2    3    3    0    0 -0.72860685284E-01 -0.23654797453E-01 -0.10454798776E+00  0.13111642773E+00  0.19824403515E-01 0.  0.
         14    1    1    2    0    0  0.12965009261E-01 -0.19837395434E-01  0.25563505251E-02  0.23835868995E-01  0.00000000000E+00 0.  1.
     999901    1    3    3    0    0  0.59895676023E-01  0.43492192887E-01  0.10199163723E+00  0.88897770327E+00  0.88000000000E+00 0. -1.
        -11    1    4    4    0    0 -0.61858877955E-01 -0.26933039892E-01 -0.86168174822E-01  0.10944005159E+00  0.51100000000E-03 0. -1.
         11    1    4    4    0    0 -0.11001807328E-01  0.32782424387E-02 -0.18379812936E-01  0.21676376140E-01  0.51100000000E-03 0.  1.
</event>
<event>
 8    1  0.1183092E+005  0.1043930E+01  0.7957747E-01            NaN
         13   -1    0    0    0    0  0.00000000000E+00  0.00000000000E+00  0.74505805969E-08  0.10566000000E+00  0.10566000000E+00 0. -1.
     999900   -1    0    0    0    0 -0.00000000000E+00 -0.00000000000E+00 -0.74505805969E-08  0.93827000000E+00  0.93827000000E+00 0. -1.
     999902    2    1    2    0    0 -0.43723930692E-02  0.22737366140E-01  0.77487840169E-02  0.10195138313E+01  0.10192214200E+01 0.  0.
     999903    2    3    3    0    0  0.23733110539E-01  0.10790825145E+00  0.70761999755E-01  0.13271359202E+00  0.19954589188E-01 0.  0.
         14    1    1    2    0    0  0.43723930692E-02 -0.22737366140E-01 -0.77487840169E-02  0.24416168698E-01  0.00000000000E+00 0. -1.
     999901    1    3    3    0    0 -0.28105503608E-01 -0.85170885312E-01 -0.63013215738E-01  0.88680023928E+00  0.88000000000E+00 0. -1.
        -11    1    4    4    0    0  0.22240726314E-01  0.63454777710E-01  0.36083339251E-01  0.76311383251E-01  0.51100000000E-03 0.  1.
         11    1    4    4    0    0  0.14923842250E-02  0.44453473742E-01  0.34678660504E-01  0.56402208766E-01  0.51100000000E-03 0. -1.
</event>
<event>
 8    1  0.1183092E+005  0.1043930E+01  0.7957747E-01            NaN
         13   -1    0    0    0    0  0.00000000000E+00  0.00000000000E+00  0.74505805969E-08  0.10566000000E+00  0.10566000000E+00 0. -1.
     999900   -1    0    0    0    0 -0.00000000000E+00 -0.00000000000E+00 -0.74505805969E-08  0.93827000000E+00  0.93827000000E+00 0.  1.
     999902    2    1    2    0    0 -0.13258595879E-01  0.20146652052E-01  0.10327893557E-01  0.10176937019E+01  0.10173554578E+01 0.  0.
     999903    2    3    3    0    0 -0.16234832017E-01  0.90585553004E-01 -0.88529333768E-01  0.12935635147E+00  0.20647289014E-01 0.  0.
         14    1    1    2    0    0  0.13258595879E-01 -0.20146652052E-01 -0.10327893557E-01  0.26236298118E-01  0.00000000000E+00 0. -1.
     999901    1    3    3    0    0  0.29762361382E-02 -0.70438900952E-01  0.98857227325E-01  0.88833735042E+00  0.88000000000E+00 0. -1.
        -11    1    4    4    0    0 -0.17894161261E-01  0.45318779988E-01 -0.50934509916E-01  0.70488142607E-01  0.51100000000E-03 0. -1.
         11    1    4    4    0    0  0.16593292437E-02  0.45266773016E-01 -0.37594823852E-01  0.58868208860E-01  0.51100000000E-03 0.  1.
</event>
<event>
 8    1  0.1183092E+005  0.1043930E+01  0.7957747E-01            NaN
         13   -1    0    0    0    0  0.00000000000E+00  0.00000000000E+00  0.74505805969E-08  0.10566000000E+00  0.10566000000E+00 0. -1.
     999900   -1    0    0    0    0 -0.00000000000E+00 -0.00000000000E+00 -0.74505805969E-08  0.93827000000E+00  0.93827000000E+00 0. -1.
     999902    2    1    2    0    0 -0.19903132442E-01 -0.57892164267E-02 -0.11984150413E-01  0.10199869516E+01  0.10197058947E+01 0.  0.
     999903    2    3    3    0    0 -0.22913045926E-01 -0.12677802755E+00  0.13828620727E-01  0.13132860823E+00  0.21407864109E-01 0.  0.
         14    1    1    2    0    0  0.19903132442E-01  0.57892164267E-02  0.11984150413E-01  0.23943048448E-01  0.00000000000E+00 0. -1.
     999901    1    3    3    0    0  0.30099134837E-02  0.12098881113E+00 -0.25812771141E-01  0.88865834332E+00  0.88000000000E+00 0.  1.
        -11    1    4    4    0    0 -0.23696347056E-01 -0.94194079447E-01  0.16889616919E-01  0.98587837725E-01  0.51100000000E-03 0.  1.
         11    1    4    4    0    0  0.78330113049E-03 -0.32583948105E-01 -0.30609961918E-02  0.32740770508E-01  0.51100000000E-03 0. -1.
</event>
<event>
 8    1  0.1183092E+005  0.1043930E+01  0.7957747E-01            NaN
         13   -1    0    0    0    0  0.00000000000E+00  0.00000000000E+00  0.74505805969E-08  0.10566000000E+00  0.10566000000E+00 0. -1.
     999900   -1    0    0    0    0 -0.00000000000E+00 -0.00000000000E+00 -0.74505805969E-08  0.93827000000E+00  0.93827000000E+00 0.  1.
     999902    2    1    2    0    0 -0.68078441435E-03 -0.72425802492E-02  0.22468083851E-01  0.10203136237E+01  0.10200402725E+01 0.  0.
     999903    2    3    3    0    0  0.55475067774E-01  0.11507703290E+00  0.13448110725E-01  0.13003449480E+00  0.20196819329E-01 0.  0.
         14    1    1    2    0    0  0.68078441435E-03  0.72425802492E-02 -0.22468083851E-01  0.23616376268E-01  0.00000000000E+00 0.  1.
     999901    1    3    3    0    0 -0.56155852188E-01 -0.12231961315E+00  0.90199731256E-02  0.89027912893E+00  0.88000000000E+00 0. -1.
        -11    1    4    4    0    0  0.31404336493E-01  0.84091995809E-01  0.50607108990E-02  0.89908664907E-01  0.51100000000E-03 0. -1.
         11    1    4    4    0    0  0.24070731280E-01  0.30985037089E-01  0.83873998264E-02  0.40125829894E-01  0.51100000000E-03 0.  1.
</event>
<event>
 8    1  0.1183092E+005  0.1043930E+01  0.7957747E-01            NaN
         13   -1    0    0    0    0  0.00000000000E+00  0.00000000000E+00  0.74505805969E-08  0.10566000000E+00  0.10566000000E+00 0. -1.
     999900   -1    0    0    0    0 -0.00000000000E+00 -0.00000000000E+00 -0.74505805969E-08  0.93827000000E+00  0.93827000000E+00 0. -1.
     999902    2    1    2    0    0  0.19347279890E-01  0.14493280928E-01 -0.14965363175E-02  0.10197099246E+01  0.10194222473E+01 0.  0.
     999903    2    3    3    0    0 -0.51943099010E-01  0.11021178036E+00  0.41919704194E-01  0.13059276742E+00  0.21271747401E-01 0.  0.
         14    1    1    2    0    0 -0.19347279890E-01 -0.14493280928E-01  0.14965363175E-02  0.24220075395E-01  0.00000000000E+00 0. -1.
     999901    1    3    3    0    0  0.71290378900E-01 -0.95718499435E-01 -0.43416240511E-01  0.88911715718E+00  0.88000000000E+00 0. -1.
        -11    1    4    4    0    0 -0.25850099213E-01  0.59147297555E-01  0.11133545463E-01  0.65504560093E-01  0.51100000000E-03 0.  1.
         11    1    4    4    0    0 -0.26092999797E-01  0.51064482808E-01  0.30786158730E-01  0.65088207328E-01  0.51100000000E-03 0. -1.
</event>
<event>
 8    1  0.1183092E+005  0.1043930E+01  0.7957747E-01            NaN
         13   -1    0    0    0    0  0.00000000000E+00  0.00000000000E+00  0.74505805969E-08  0.10566000000E+00  0.10566000000E+00 0. -1.
     999900   -1    0    0    0    0 -0.00000000000E+00 -0.00000000000E+00 -0.74505805969E-08  0.93827000000E+00  0.93827000000E+00 0. -1.
     999902    2    1    2    0    0 -0.14657882933E-01 -0.17900914275E-01  0.46392663249E-02  0.10203329863E+01  0.10200600884E+01 0.  0.
     999903    2    3    3    0    0  0.47996211861E-01  0.76591223145E-01  0.89445494181E-01  0.12901576111E+00  0.21788032699E-01 0.  0.
         14    1    1    2    0    0  0.14657882933E-01  0.17900914275E-01 -0.46392663249E-02  0.23597013709E-01  0.00000000000E+00 0. -1.
     999901    1    3    3    0    0 -0.62654094793E-01 -0.94492137419E-01 -0.84806227856E-01  0.89131722519E+00  0.88000000000E+00 0. -1.
        -11    1    4    4    0    0  0.17350568163E-01  0.47167724388E-01  0.43946386030E-01  0.66763630860E-01  0.51100000000E-03 0.  1.
         11    1    4    4    0    0  0.30645643697E-01  0.29423498757E-01  0.45499108150E-01  0.62252130246E-01  0.51100000000E-03 0. -1.
</event>
<event>
 8    1  0.1183092E+005  0.1043930E+01  0.7957747E-01            NaN
         13   -1    0    0    0    0  0.00000000000E+00  0.00000000000E+00  0.74505805969E-08  0.10566000000E+00  0.10566000000E+00 0.  1.
     999900   -1    0    0    0    0 -0.00000000000E+00 -0.00000000000E+00 -0.74505805969E-08  0.93827000000E+00  0.93827000000E+00 0.  1.
     999902    2    1    2    0    0 -0.14357054044E-01  0.10969735227E-01 -0.15186575530E-01  0.10203272000E+01  0.10200541666E+01 0.  0.
     999903    2    3    3    0    0  0.10401878754E+00  0.36485867714E-01 -0.67175596154E-01  0.13051442690E+00  0.19243913502E-01 0.  0.
         14    1    1    2    0    0  0.14357054044E-01 -0.10969735227E-01  0.15186575530E-01  0.23602800005E-01  0.00000000000E+00 0.  1.
     999901    1    3    3    0    0 -0.11837584159E+00 -0.25516132487E-01  0.51989020625E-01  0.88981277309E+00  0.88000000000E+00 0. -1.
        -11    1    4    4    0    0  0.29252962688E-01  0.13033265015E-01 -0.10141205819E-01  0.33596234900E-01  0.51100000000E-03 0.  1.
         11    1    4    4    0    0  0.74765824854E-01  0.23452602699E-01 -0.57034390335E-01  0.96918192005E-01  0.51100000000E-03 0. -1.
</event>
<event>
 8    1  0.1183092E+005  0.1043930E+01  0.7957747E-01            NaN
         13   -1    0    0    0    0  0.00000000000E+00  0.00000000000E+00  0.74505805969E-08  0.10566000000E+00  0.10566000000E+00 0.  1.
     999900   -1    0    0    0    0 -0.00000000000E+00 -0.00000000000E+00 -0.74505805969E-08  0.93827000000E+00  0.93827000000E+00 0.  1.
     999902    2    1    2    0    0  0.96855066753E-02 -0.52523490699E-02 -0.20931816985E-01  0.10202754619E+01  0.10200012162E+01 0.  0.
     999903    2    3    3    0    0 -0.65947139945E-01 -0.83182069462E-01  0.70270920034E-01  0.12892184083E+00  0.20360670285E-01 0.  0.
         14    1    1    2    0    0 -0.96855066753E-02  0.52523490699E-02  0.20931816985E-01  0.23654538097E-01  0.00000000000E+00 0.  1.
     999901    1    3    3    0    0  0.75632646620E-01  0.77929720392E-01 -0.91202737019E-01  0.89135362107E+00  0.88000000000E+00 0. -1.
        -11    1    4    4    0    0 -0.76549830422E-02 -0.17807559587E-01  0.20331658441E-01  0.28095291416E-01  0.51100000000E-03 0. -1.
         11    1    4    4    0    0 -0.58292156903E-01 -0.65374509875E-01  0.49939261593E-01  0.10082654942E+00  0.51100000000E-03 0.  1.
</event>
<event>
 8    1  0.1183092E+005  0.1043930E+01  0.7957747E-01            NaN
         13   -1    0    0    0    0  0.00000000000E+00  0.00000000000E+00  0.74505805969E-08  0.10566000000E+00  0.10566000000E+00 0.  1.
     999900   -1    0    0    0    0 -0.00000000000E+00 -0.00000000000E+00 -0.74505805969E-08  0.93827000000E+00  0.93827000000E+00 0. -1.
     999902    2    1    2    0    0  0.14610583962E-01 -0.61683551592E-02 -0.11744762897E-01  0.10241953294E+01  0.10240051833E+01 0.  0.
     999903    2    3    3    0    0  0.44580308952E-01  0.11257403156E+00 -0.55624246214E-01  0.13463175780E+00  0.19270104108E-01 0.  0.
         14    1    1    2    0    0 -0.14610583962E-01  0.61683551592E-02  0.11744762897E-01  0.19734670623E-01  0.00000000000E+00 0.  1.
     999901    1    3    3    0    0 -0.29969724990E-01 -0.11874238672E+00  0.43879483317E-01  0.88956357158E+00  0.88000000000E+00 0.  1.
        -11    1    4    4    0    0  0.11148153901E-01  0.45597382884E-01 -0.29004377908E-01  0.55180773102E-01  0.51100000000E-03 0.  1.
         11    1    4    4    0    0  0.33432155051E-01  0.66976648680E-01 -0.26619868307E-01  0.79450984698E-01  0.51100000000E-03 0. -1.
</event>
<event>
 8    1  0.1183092E+005  0.1043930E+01  0.7957747E-01            NaN
         13   -1    0    0    0    0  0.00000000000E+00  0.00000000000E+00  0.74505805969E-08  0.10566000000E+00  0.10566000000E+00 0.  1.
     999900   -1    0    0    0    0 -0.00000000000E+00 -0.00000000000E+00 -0.74505805969E-08  0.93827000000E+00  0.93827000000E+00 0.  1.
     999902    2    1    2    0    0  0.11017779192E-01  0.13839659527E-01 -0.15477183948E-01  0.10204253014E+01  0.10201545593E+01 0.  0.
     999903    2    3    3    0    0  0.31873000488E-01 -0.61496421090E-01  0.10638286545E+00  0.12859553235E+00  0.20537743588E-01 0.  0.
         14    1    1    2    0    0 -0.11017779192E-01 -0.13839659527E-01  0.15477183948E-01  0.23504698617E-01  0.00000000000E+00 0.  1.
     999901    1    3    3    0    0 -0.20855221297E-01  0.75336080617E-01 -0.12186004940E+00  0.89182976903E+00  0.88000000000E+00 0.  1.
        -11    1    4    4    0    0  0.15509368319E-01 -0.10638018262E-01  0.28263211295E-01  0.33952587116E-01  0.51100000000E-03 0. -1.
         11    1    4    4    0    0  0.16363632170E-01 -0.50858402828E-01  0.78119654154E-01  0.94642945231E-01  0.51100000000E-03 0.  1.
</event>
<event>
 8    1  0.1183092E+005  0.1043930E+01  0.7957747E-01            NaN
         13   -1    0    0    0    0  0.00000000000E+00  0.00000000000E+00  0.74505805969E-08  0.10566000000E+00  0.10566000000E+00 0. -1.
     999900   -1    0    0    0    0 -0.00000000000E+00 -0.00000000000E+00 -0.74505805969E-08  0.93827000000E+00  0.93827000000E+00 0.  1.
     999902    2    1    2    0    0  0.28275755936E-01  0.43673674706E-04 -0.14095800782E-02  0.10156190976E+01  0.10152244304E+01 0.  0.
     999903    2    3    3    0    0 -0.63989850352E-01 -0.81100533877E-01 -0.66674095511E-01  0.12468880764E+00  0.20733214764E-01 0.  0.
         14    1    1    2    0    0 -0.28275755936E-01 -0.43673674706E-04  0.14095800782E-02  0.28310902443E-01  0.00000000000E+00 0.  1.
     999901    1    3    3    0    0  0.92265606288E-01  0.81144207551E-01  0.65264515433E-01  0.89093028992E+00  0.88000000000E+00 0. -1.
        -11    1    4    4    0    0 -0.29128831164E-01 -0.23279099902E-01 -0.17705195786E-01  0.41281235157E-01  0.51100000000E-03 0. -1.
         11    1    4    4    0    0 -0.34861019188E-01 -0.57821433974E-01 -0.48968899725E-01  0.83407572479E-01  0.51100000000E-03 0.  1.
</event>
<event>
 8    1  0.1183092E+005  0.1043930E+01  0.7957747E-01            NaN
         13   -1    0    0    0    0  0.00000000000E+00  0.00000000000E+00  0.74505805969E-08  0.10566000000E+00  0.10566000000E+00 0. -1.
     999900   -1    0    0    0    0 -0.00000000000E+00 -0.00000000000E+00 -0.74505805969E-08  0.93827000000E+00  0.93827000000E+00 0.  1.
     999902    2    1    2    0    0  0.22585281389E-01  0.67909354029E-02 -0.66251806009E-02  0.10194329643E+01  0.10191385892E+01 0.  0.
     999903    2    3    3    0    0 -0.51528217702E-01  0.11063197312E+00  0.37214837670E-01  0.12915339078E+00  0.20026570165E-01 0.  0.
         14    1    1    2    0    0 -0.22585281389E-01 -0.67909354029E-02  0.66251806009E-02  0.24497035679E-01  0.00000000000E+00 0. -1.
     999901    1    3    3    0    0  0.74113499091E-01 -0.10384103771E+00 -0.43840018271E-01  0.89027957354E+00  0.88000000000E+00 0. -1.
        -11    1    4    4    0    0 -0.91523011240E-02  0.40511657529E-01  0.90022369671E-02  0.42500122388E-01  0.51100000000E-03 0. -1.
         11    1    4    4    0    0 -0.42375916578E-01  0.70120315586E-01  0.28212600703E-01  0.86653268393E-01  0.51100000000E-03 0.  1.
</event>
<event>
 8    1  0.1183092E+005  0.1043930E+01  0.7957747E-01            NaN
         13   -1    0    0    0    0  0.00000000000E+00  0.00000000000E+00  0.74505805969E-08  0.10566000000E+00  0.10566000000E+00 0. -1.
     999900   -1    0    0    0    0 -0.00000000000E+00 -0.00000000000E+00 -0.74505805969E-08  0.93827000000E+00  0.93827000000E+00 0.  1.
     999902    2    1    2    0    0 -0.16318628867E-01  0.15816291141E-01  0.39679638428E-02  0.10208605949E+01  0.10205999005E+01 0.  0.
     999903    2    3    3    0    0  0.56226402256E-02  0.69241803993E-01 -0.10996429775E+00  0.13163831397E+00  0.20259748777E-01 0.  0.
         14    1    1    2    0    0  0.16318628867E-01 -0.15816291141E-01 -0.39679638428E-02  0.23069405077E-01  0.00000000000E+00 0.  1.
     999901    1    3    3    0    0 -0.21941269093E-01 -0.53425512852E-01  0.11393226160E+00  0.88922228095E+00  0.88000000000E+00 0. -1.
        -11    1    4    4    0    0  0.94223305484E-02  0.50771421959E-01 -0.92460728407E-01  0.10590450897E+00  0.51100000000E-03 0.  1.
         11    1    4    4    0    0 -0.37996903228E-02  0.18470382033E-01 -0.17503569348E-01  0.25733805003E-01  0.51100000000E-03 0. -1.
</event>
<event>
 8    1  0.1183092E+005  0.1043930E+01  0.7957747E-01            NaN
         13   -1    0    0    0    0  0.00000000000E+00  0.00000000000E+00  0.74505805969E-08  0.10566000000E+00  0.10566000000E+00 0.  1.
     999900   -1    0    0    0    0 -0.00000000000E+00 -0.00000000000E+00 -0.74505805969E-08  0.93827000000E+00  0.93827000000E+00 0. -1.
     999902    2    1    2    0    0 -0.21616983482E-01 -0.97022684023E-02  0.31449929613E-02  0.10200277204E+01  0.10197476313E+01 0.  0.
     999903    2    3    3    0    0 -0.19531910884E-01  0.86801533833E-02  0.12778918879E+00  0.13105165974E+00  0.19688071097E-01 0.  0.
         14    1    1    2    0    0  0.21616983482E-01  0.97022684023E-02 -0.31449929613E-02  0.23902279551E-01  0.00000000000E+00 0.  1.
     999901    1    3    3    0    0 -0.20850725982E-02 -0.18382421786E-01 -0.12464419583E+00  0.88897606071E+00  0.88000000000E+00 0. -1.
        -11    1    4    4    0    0  0.26158084856E-02  0.58671766089E-02  0.21652621317E-01  0.22591222771E-01  0.51100000000E-03 0.  1.
         11    1    4    4    0    0 -0.22147719370E-01  0.28129767744E-02  0.10613656747E+00  0.10846043697E+00  0.51100000000E-03 0. -1.
</event>
<event>
 8    1  0.1183092E+005  0.1043930E+01  0.7957747E-01            NaN
         13   -1    0    0    0    0  0.00000000000E+00  0.00000000000E+00  0.74505805969E-08  0.10566000000E+00  0.10566000000E+00 0.  1.
     999900   -1    0    0    0    0 -0.00000000000E+00 -0.00000000000E+00 -0.74505805969E-08  0.93827000000E+00  0.93827000000E+00 0. -1.
     999902    2    1    2    0    0  0.61948926750E-02 -0.11834894917E-01 -0.19361873744E-01  0.10204071688E+01  0.10201360039E+01 0.  0.
     999903    2    3    3    0    0 -0.12201236130E+00 -0.28187871014E-01  0.25763025073E-01  0.12982265496E+00  0.22552514201E-01 0.  0.
         14    1    1    2    0    0 -0.61948926750E-02  0.11834894917E-01  0.19361873744E-01  0.23522831203E-01  0.00000000000E+00 0. -1.
     999901    1    3    3    0    0  0.12820725398E+00  0.16352976097E-01 -0.45124898816E-01  0.89058451384E+00  0.88000000000E+00 0.  1.
        -11    1    4    4    0    0 -0.10046071546E+00 -0.30797699020E-01  0.25406600196E-01  0.10810462557E+00  0.51100000000E-03 0. -1.
         11    1    4    4    0    0 -0.21551645840E-01  0.26098280058E-02  0.35642487654E-03  0.21718029384E-01  0.51100000000E-03 0.  1.
</event>
<event>
 8    1  0.1183092E+005  0.1043930E+01  0.7957747E-01            NaN
         13   -1    0    0    0    0  0.00000000000E+00  0.00000000000E+00  0.74505805969E-08  0.10566000000E+00  0.10566000000E+00 0. -1.
     999900   -1    0    0    0    0 -0.00000000000E+00 -0.00000000000E+00 -0.74505805969E-08  0.93827000000E+00  0.93827000000E+00 0.  1.
     999902    2    1    2    0    0 -0.20453900622E-01  0.13339768286E-01 -0.12199319381E-02  0.10194800572E+01  0.10191868265E+01 0.  0.
     999903    2    3    3    0    0  0.11131427670E+00 -0.24616878429E-01 -0.53383409829E-01  0.12733399965E+00  0.19165075590E-01 0.  0.
         14    1    1    2    0    0  0.20453900622E-01 -0.13339768286E-01  0.12199319381E-02  0.24449942792E-01  0.00000000000E+00 0. -1.
     999901    1    3    3    0    0 -0.13176817732E+00  0.37956646715E-01  0.52163477891E-01  0.89214605755E+00  0.88000000000E+00 0.  1.
        -11    1    4    4    0    0  0.25365323202E-01  0.23654911998E-02 -0.13109871247E-01  0.28655279005E-01  0.51100000000E-03 0. -1.
         11    1    4    4    0    0  0.85948953496E-01 -0.26982369628E-01 -0.40273538582E-01  0.98678720648E-01  0.51100000000E-03 0.  1.
</event>
<event>
 8    1  0.1183092E+005  0.1043930E+01  0.7957747E-01            NaN
         13   -1    0    0    0    0  0.00000000000E+00  0.00000000000E+00  0.74505805969E-08  0.10566000000E+00  0.10566000000E+00 0. -1.
     999900   -1    0    0    0    0 -0.00000000000E+00 -0.00000000000E+00 -0.74505805969E-08  0.93827000000E+00  0.93827000000E+00 0.  1.
     999902    2    1    2    0    0 -0.67892054569E-03  0.19428927152E-01  0.13327400297E-01  0.10203596003E+01  0.10200873248E+01 0.  0.
     999903    2    3    3    0    0 -0.54710682766E-02 -0.12635835234E+00  0.87815917820E-02  0.12834078888E+00  0.19946827883E-01 0.  0.
         14    1    1    2    0    0  0.67892054569E-03 -0.19428927152E-01 -0.13327400297E-01  0.23570399701E-01  0.00000000000E+00 0.  1.
     999901    1    3    3    0    0  0.47921477309E-02  0.14578727949E+00  0.45458085154E-02  0.89201881141E+00  0.88000000000E+00 0.  1.
        -11    1    4    4    0    0 -0.67673602797E-02 -0.11483683494E+00  0.13471929270E-01  0.11582335613E+00  0.51100000000E-03 0. -1.
         11    1    4    4    0    0  0.12962920032E-02 -0.11521517399E-01 -0.46903374878E-02  0.12517432760E-01  0.51100000000E-03 0.  1.
</event>
<event>
 8    1  0.1183092E+005  0.1043930E+01  0.7957747E-01            NaN
         13   -1    0    0    0    0  0.00000000000E+00  0.00000000000E+00  0.74505805969E-08  0.10566000000E+00  0.10566000000E+00 0.  1.
     999900   -1    0    0    0    0 -0.00000000000E+00 -0.00000000000E+00 -0.74505805969E-08  0.93827000000E+00  0.93827000000E+00 0.  1.
     999902    2    1    2    0    0  0.10681885215E-01 -0.20585665991E-01 -0.10795070997E-01  0.10183486421E+01  0.10180272840E+01 0.  0.
     999903    2    3    3    0    0 -0.89728755352E-01  0.47435155131E-01 -0.74858101284E-01  0.12772346799E+00  0.20204095333E-01 0.  0.
         14    1    1    2    0    0 -0.10681885215E-01  0.20585665991E-01  0.10795070997E-01  0.25581357936E-01  0.00000000000E+00 0.  1.
     999901    1    3    3    0    0  0.10041064057E+00 -0.68020821122E-01  0.64063030287E-01  0.89062517407E+00  0.88000000000E+00 0. -1.
        -11    1    4    4    0    0 -0.50943154336E-01  0.37027338768E-01 -0.40566248864E-01  0.74914020435E-01  0.51100000000E-03 0. -1.
         11    1    4    4    0    0 -0.38785601016E-01  0.10407816364E-01 -0.34291852420E-01  0.52809447555E-01  0.51100000000E-03 0.  1.
</event>
<event>
 8    1  0.1183092E+005  0.1043930E+01  0.7957747E-01            NaN
         13   -1    0    0    0    0  0.00000000000E+00  0.00000000000E+00  0.74505805969E-08  0.10566000000E+00  0.10566000000E+00 0. -1.
     999900   -1    0    0    0    0 -0.00000000000E+00 -0.00000000000E+00 -0.74505805969E-08  0.93827000000E+00  0.93827000000E+00 0.  1.
     999902    2    1    2    0    0  0.55483407805E-02 -0.21370718574E-01 -0.42616616678E-02  0.10214432604E+01  0.10211957113E+01 0.  0.
     999903    2    3    3    0    0  0.68996905002E-01  0.10309758861E+00 -0.32909916049E-01  0.12996201983E+00  0.20429839631E-01 0.  0.
         14    1    1    2    0    0 -0.55483407805E-02  0.21370718574E-01  0.42616616678E-02  0.22486739603E-01  0.00000000000E+00 0. -1.
     999901    1    3    3    0    0 -0.63448564221E-01 -0.12446830719E+00  0.28648254382E-01  0.89148124056E+00  0.88000000000E+00 0. -1.
        -11    1    4    4    0    0  0.39350924141E-01  0.45806252279E-01 -0.84835464435E-02  0.60983109628E-01  0.51100000000E-03 0. -1.
         11    1    4    4    0    0  0.29645980861E-01  0.57291336335E-01 -0.24426369606E-01  0.68978910207E-01  0.51100000000E-03 0.  1.
</event>
<event>
 8    1  0.1183092E+005  0.1043930E+01  0.7957747E-01            NaN
         13   -1    0    0    0    0  0.00000000000E+00  0.00000000000E+00  0.74505805969E-08  0.10566000000E+00  0.10566000000E+00 0.  1.
     999900   -1    0    0    0    0 -0.00000000000E+00 -0.00000000000E+00 -0.74505805969E-08  0.93827000000E+00  0.93827000000E+00 0.  1.
     999902    2    1    2    0    0 -0.56510496253E-02  0.15609249148E-01 -0.16303946862E-01  0.10206619596E+01  0.10203967043E+01 0.  0.
     999903    2    3    3    0    0 -0.71996086202E-01  0.88856396410E-01 -0.66300752154E-01  0.13371974671E+00  0.20156520365E-01 0.  0.
         14    1    1    2    0    0  0.56510496253E-02 -0.15609249148E-01  0.16303946862E-01  0.23268040401E-01  0.00000000000E+00 0.  1.
     999901    1    3    3    0    0  0.66345036577E-01 -0.73247147263E-01  0.49996805291E-01  0.88694221289E+00  0.88000000000E+00 0.  1.
        -11    1    4    4    0    0 -0.12036156678E-01  0.20386899118E-01 -0.22692565746E-01  0.32797993602E-01  0.51100000000E-03 0. -1.
         11    1    4    4    0    0 -0.59959929524E-01  0.68469497293E-01 -0.43608186408E-01  0.10092175311E+00  0.51100000000E-03 0.  1.
</event>
<event>
 8    1  0.1183092E+005  0.1043930E+01  0.7957747E-01            NaN
         13   -1    0    0    0    0  0.00000000000E+00  0.00000000000E+00  0.74505805969E-08  0.10566000000E+00  0.10566000000E+00 0. -1.
     999900   -1    0    0    0    0 -0.00000000000E+00 -0.00000000000E+00 -0.74505805969E-08  0.93827000000E+00  0.93827000000E+00 0. -1.
     999902    2    1    2    0    0  0.82726843661E-02 -0.21793181504E-01  0.10612106293E-02  0.10205953426E+01  0.10203285486E+01 0.  0.
     999903    2    3    3    0    0 -0.35806142096E-01  0.88578947744E-01  0.82313153583E-01  0.12889649880E+00  0.26656000337E-01 0.  0.
         14    1    1    2    0    0 -0.82726843661E-02  0.21793181504E-01 -0.10612106293E-02  0.23334657372E-01  0.00000000000E+00 0.  1.
     999901    1    3    3    0    0  0.44078826462E-01 -0.11037212925E+00 -0.81251942953E-01  0.89169884383E+00  0.88000000000E+00 0.  1.
        -11    1    4    4    0    0 -0.32389375256E-01  0.67554552355E-01  0.49578518039E-01  0.89838631698E-01  0.51100000000E-03 0. -1.
         11    1    4    4    0    0 -0.34167668406E-02  0.21024395389E-01  0.32734635544E-01  0.39057867099E-01  0.51100000000E-03 0.  1.
</event>
<event>
 8    1  0.1183092E+005  0.1043930E+01  0.7957747E-01            NaN
         13   -1    0    0    0    0  0.00000000000E+00  0.00000000000E+00  0.74505805969E-08  0.10566000000E+00  0.10566000000E+00 0. -1.
     999900   -1    0    0    0    0 -0.00000000000E+00 -0.00000000000E+00 -0.74505805969E-08  0.93827000000E+00  0.93827000000E+00 0.  1.
     999902    2    1    2    0    0  0.23347971558E-01  0.82056256064E-02  0.37280675731E-02  0.10189028436E+01  0.10185954281E+01 0.  0.
     999903    2    3    3    0    0  0.14200927670E-02  0.11692797535E+00 -0.53506940437E-01  0.13009621262E+00  0.19694257577E-01 0.  0.
         14    1    1    2    0    0 -0.23347971558E-01 -0.82056256064E-02 -0.37280675731E-02  0.25027156357E-01  0.00000000000E+00 0.  1.
     999901    1    3    3    0    0  0.21927878792E-01 -0.10872234974E+00  0.57235008011E-01  0.88880663102E+00  0.88000000000E+00 0. -1.
        -11    1    4    4    0    0  0.85453793563E-02  0.83525525508E-01 -0.43155247629E-01  0.94404308369E-01  0.51100000000E-03 0.  1.
         11    1    4    4    0    0 -0.71252865893E-02  0.33402449840E-01 -0.10351692809E-01  0.35691904255E-01  0.51100000000E-03 0. -1.
</event>
<event>
 8    1  0.1183092E+005  0.1043930E+01  0.7957747E-01            NaN
         13   -1    0    0    0    0  0.00000000000E+00  0.00000000000E+00  0.74505805969E-08  0.10566000000E+00  0.10566000000E+00 0. -1.
     999900   -1    0    0    0    0 -0.00000000000E+00 -0.00000000000E+00 -0.74505805969E-08  0.93827000000E+00  0.93827000000E+00 0. -1.
     999902    2    1    2    0    0 -0.59358429232E-02 -0.18826644224E-01 -0.12995571219E-01  0.10202960914E+01  0.10200223294E+01 0.  0.
     999903    2    3    3    0    0  0.48173592967E-01  0.80514979752E-01 -0.87573838298E-01  0.12992622039E+00  0.20206151679E-01 0.  0.
         14    1    1    2    0    0  0.59358429232E-02  0.18826644224E-01  0.12995571219E-01  0.23633908590E-01  0.00000000000E+00 0. -1.
     999901    1    3    3    0    0 -0.54109435891E-01 -0.99341623976E-01  0.74578267079E-01  0.89036987102E+00  0.88000000000E+00 0. -1.
        -11    1    4    4    0    0  0.34124595738E-01  0.37419710007E-01 -0.46553411635E-01  0.68791016762E-01  0.51100000000E-03 0. -1.
         11    1    4    4    0    0  0.14048997230E-01  0.43095269745E-01 -0.41020426663E-01  0.61135203624E-01  0.51100000000E-03 0.  1.
</event>
<event>
 8    1  0.1183092E+005  0.1043930E+01  0.7957747E-01            NaN
         13   -1    0    0    0    0  0.00000000000E+00  0.00000000000E+00  0.74505805969E-08  0.10566000000E+00  0.10566000000E+00 0. -1.
     999900   -1    0    0    0    0 -0.00000000000E+00 -0.00000000000E+00 -0.74505805969E-08  0.93827000000E+00  0.93827000000E+00 0. -1.
     999902    2    1    2    0    0 -0.98875751839E-02 -0.93382307441E-02  0.21087405522E-01  0.10188372646E+01  0.10185282158E+01 0.  0.
     999903    2    3    3    0    0  0.10542437887E+00  0.25854709352E-02 -0.67760998847E-01  0.12679855451E+00  0.19113768335E-01 0.  0.
         14    1    1    2    0    0  0.98875751839E-02  0.93382307441E-02 -0.21087405522E-01  0.25092735365E-01  0.00000000000E+00 0.  1.
     999901    1    3    3    0    0 -0.11531195405E+00 -0.11923701679E-01  0.88848404369E-01  0.89203871013E+00  0.88000000000E+00 0.  1.
        -11    1    4    4    0    0  0.18796255909E-01 -0.30598969474E-02 -0.50635854476E-02  0.19712007105E-01  0.51100000000E-03 0.  1.
         11    1    4    4    0    0  0.86628122962E-01  0.56453678827E-02 -0.62697413400E-01  0.10708654740E+00  0.51100000000E-03 0. -1.
</event>
<event>
 8    1  0.1183092E+005  0.1043930E+01  0.7957747E-01            NaN
         13   -1    0    0    0    0  0.00000000000E+00  0.00000000000E+00  0.74505805969E-08  0.10566000000E+00  0.10566000000E+00 0. -1.
     999900   -1    0    0    0    0 -0.00000000000E+00 -0.00000000000E+00 -0.74505805969E-08  0.93827000000E+00  0.93827000000E+00 0.  1.
     999902    2    1    2    0    0  0.10181574343E-01 -0.98118729851E-02  0.18921330747E-01  0.10203089487E+01  0.10200354880E+01 0.  0.
     999903    2    3    3    0    0 -0.78903255569E-01 -0.10003924893E+00 -0.18746935635E-01  0.13042357148E+00  0.20622447366E-01 0.  0.
         14    1    1    2    0    0 -0.10181574343E-01  0.98118729851E-02 -0.18921330747E-01  0.23621051307E-01  0.00000000000E+00 0.  1.
     999901    1    3    3    0    0  0.89084829912E-01  0.90227375945E-01  0.37668266382E-01  0.88988537722E+00  0.88000000000E+00 0. -1.
        -11    1    4    4    0    0 -0.35260043906E-01 -0.28968986959E-01 -0.52926460705E-02  0.45942857172E-01  0.51100000000E-03 0. -1.
         11    1    4    4    0    0 -0.43643211662E-01 -0.71070261971E-01 -0.13454289564E-01  0.84480714305E-01  0.51100000000E-03 0.  1.
</event>
<event>
 8    1  0.1183092E+005  0.1043930E+01  0.7957747E-01            NaN
         13   -1    0    0    0    0  0.00000000000E+00  0.00000000000E+00  0.74505805969E-08  0.10566000000E+00  0.10566000000E+00 0.  1.
     999900   -1    0    0    0    0 -0.00000000000E+00 -0.00000000000E+00 -0.74505805969E-08  0.93827000000E+00  0.93827000000E+00 0.  1.
     999902    2    1    2    0    0  0.10733573781E-02  0.22334627249E-01  0.84718827324E-02  0.10200184867E+01  0.10197381785E+01 0.  0.
     999903    2    3    3    0    0 -0.12688450666E+00 -0.14048745111E-01  0.14899763289E-01  0.12999698001E+00  0.19497861340E-01 0.  0.
         14    1    1    2    0    0 -0.10733573781E-02 -0.22334627249E-01 -0.84718827324E-02  0.23911513283E-01  0.00000000000E+00 0. -1.
     999901    1    3    3    0    0  0.12795786404E+00  0.36383372360E-01 -0.64278805562E-02  0.89002150671E+00  0.88000000000E+00 0. -1.
        -11    1    4    4    0    0 -0.89732788598E-01 -0.11732507755E-01  0.19230278215E-01  0.92518591694E-01  0.51100000000E-03 0. -1.
         11    1    4    4    0    0 -0.37151718059E-01 -0.23162373563E-02 -0.43305149269E-02  0.37478388316E-01  0.51100000000E-03 0.  1.
</event>
<event>
 8    1  0.1183092E+005  0.1043930E+01  0.7957747E-01            NaN
         13   -1    0    0    0    0  0.00000000000E+00  0.00000000000E+00  0.74505805969E-08  0.10566000000E+00  0.10566000000E+00 0. -1.
     999900   -1    0    0    0    0 -0.00000000000E+00 -0.00000000000E+00 -0.74505805969E-08  0.93827000000E+00  0.93827000000E+00 0.  1.
     999902    2    1    2    0    0 -0.18212718902E-01 -0.14350085091E-01  0.25115459952E-01  0.10097479228E+01  0.10091691896E+01 0.  0.
     999903    2    3    3    0    0  0.18625036163E-01 -0.29175041543E-02 -0.11465250069E+00  0.11788313098E+00  0.19895548518E-01 0.  0.
         14    1    1    2    0    0  0.18212718902E-01  0.14350085091E-01 -0.25115459952E-01  0.34182077182E-01  0.00000000000E+00 0.  1.
     999901    1    3    3    0    0 -0.36837755064E-01 -0.11432580937E-01  0.13976796064E+00  0.89186479184E+00  0.88000000000E+00 0. -1.
        -11    1    4    4    0    0  0.11250289249E-01 -0.80166808818E-02 -0.97938334622E-01  0.98909123392E-01  0.51100000000E-03 0. -1.
         11    1    4    4    0    0  0.73747469139E-02  0.50991767275E-02 -0.16714166071E-01  0.18974007583E-01  0.51100000000E-03 0.  1.
</event>
<event>
 8    1  0.1183092E+005  0.1043930E+01  0.7957747E-01            NaN
         13   -1    0    0    0    0  0.00000000000E+00  0.00000000000E+00  0.74505805969E-08  0.10566000000E+00  0.10566000000E+00 0.  1.
     999900   -1    0    0    0    0 -0.00000000000E+00 -0.00000000000E+00 -0.74505805969E-08  0.93827000000E+00  0.93827000000E+00 0. -1.
     999902    2    1    2    0    0 -0.19404765682E-02  0.19113383776E-01  0.13941238222E-01  0.10201930033E+01  0.10199168196E+01 0.  0.
     999903    2    3    3    0    0  0.66734994418E-01  0.81937869468E-01 -0.74630141521E-01  0.13086284773E+00  0.19699059860E-01 0.  0.
         14    1    1    2    0    0  0.19404765682E-02 -0.19113383776E-01 -0.13941238222E-01  0.23736996690E-01  0.00000000000E+00 0. -1.
     999901    1    3    3    0    0 -0.68675470986E-01 -0.62824485692E-01  0.88571379744E-01  0.88933015558E+00  0.88000000000E+00 0.  1.
        -11    1    4    4    0    0  0.25304927589E-01  0.33402649246E-01 -0.18251883953E-01  0.45710706905E-01  0.51100000000E-03 0. -1.
         11    1    4    4    0    0  0.41430066829E-01  0.48535220221E-01 -0.56378257568E-01  0.85152140823E-01  0.51100000000E-03 0.  1.
</event>
<event>
 8    1  0.1183092E+005  0.1043930E+01  0.7957747E-01            NaN
         13   -1    0    0    0    0  0.00000000000E+00  0.00000000000E+00  0.74505805969E-08  0.10566000000E+00  0.10566000000E+00 0. -1.
     999900   -1    0    0    0    0 -0.00000000000E+00 -0.00000000000E+00 -0.74505805969E-08  0.93827000000E+00  0.93827000000E+00 0. -1.
     999902    2    1    2    0    0 -0.82481055652E-02  0.21806344356E-01 -0.51136881514E-02  0.10200616589E+01  0.10197823740E+01 0.  0.
     999903    2    3    3    0    0 -0.50629065892E-01 -0.11586363620E+00 -0.83848490033E-02  0.12834428786E+00  0.20353526200E-01 0.  0.
         14    1    1    2    0    0  0.82481055652E-02 -0.21806344356E-01  0.51136881514E-02  0.23868341083E-01  0.00000000000E+00 0. -1.
     999901    1    3    3    0    0  0.42380960326E-01  0.13766998055E+00  0.32711608519E-02  0.89171737105E+00  0.88000000000E+00 0. -1.
        -11    1    4    4    0    0  0.22965568555E-03 -0.14840165409E-01  0.76450107526E-03  0.14870401272E-01  0.51100000000E-03 0. -1.
         11    1    4    4    0    0 -0.50858721577E-01 -0.10102347079E+00 -0.91493500786E-02  0.11347388659E+00  0.51100000000E-03 0.  1.
</event>
<event>
 8    1  0.1183092E+005  0.1043930E+01  0.7957747E-01            NaN
         13   -1    0    0    0    0  0.00000000000E+00  0.00000000000E+00  0.74505805969E-08  0.10566000000E+00  0.10566000000E+00 0. -1.
     999900   -1    0    0    0    0 -0.00000000000E+00 -0.00000000000E+00 -0.74505805969E-08  0.93827000000E+00  0.93827000000E+00 0. -1.
     999902    2    1    2    0    0 -0.17296540800E-01  0.13011151640E-01  0.41546199899E-02  0.10218909152E+01  0.10216532295E+01 0.  0.
     999903    2    3    3    0    0  0.12312531179E+00 -0.34502074087E-01  0.35196367207E-02  0.12949178562E+00  0.20137010222E-01 0.  0.
         14    1    1    2    0    0  0.17296540800E-01 -0.13011151640E-01 -0.41546199899E-02  0.22039084779E-01  0.00000000000E+00 0. -1.
     999901    1    3    3    0    0 -0.14042185259E+00  0.47513225727E-01  0.63498326922E-03  0.89239912960E+00  0.88000000000E+00 0. -1.
        -11    1    4    4    0    0  0.98910783052E-01 -0.33297975609E-01  0.85836177058E-02  0.10471885120E+00  0.51100000000E-03 0.  1.
         11    1    4    4    0    0  0.24214528741E-01 -0.12040984785E-02 -0.50639809851E-02  0.24772934418E-01  0.51100000000E-03 0. -1.
</event>
<event>
 8    1  0.1183092E+005  0.1043930E+01  0.7957747E-01            NaN
         13   -1    0    0    0    0  0.00000000000E+00  0.00000000000E+00  0.74505805969E-08  0.10566000000E+00  0.10566000000E+00 0. -1.
     999900   -1    0    0    0    0 -0.00000000000E+00 -0.00000000000E+00 -0.74505805969E-08  0.93827000000E+00  0.93827000000E+00 0.  1.
     999902    2    1    2    0    0 -0.45326654466E-02  0.21768938575E-01  0.87017361764E-02  0.10200521451E+01  0.10197726348E+01 0.  0.
     999903    2    3    3    0    0 -0.55660888538E-01 -0.89361120437E-01 -0.70142257520E-01  0.12809902942E+00  0.20146480807E-01 0.  0.
         14    1    1    2    0    0  0.45326654466E-02 -0.21768938575E-01 -0.87017361764E-02  0.23877854913E-01  0.00000000000E+00 0.  1.
     999901    1    3    3    0    0  0.51128223092E-01  0.11113005901E+00  0.78843993697E-01  0.89195311567E+00  0.88000000000E+00 0. -1.
        -11    1    4    4    0    0 -0.11234594465E-01 -0.12103598311E-01 -0.36876852438E-02  0.16928477437E-01  0.51100000000E-03 0. -1.
         11    1    4    4    0    0 -0.44426294073E-01 -0.77257522126E-01 -0.66454572277E-01  0.11117055198E+00  0.51100000000E-03 0.  1.
</event>
<event>
 8    1  0.1183092E+005  0.1043930E+01  0.7957747E-01            NaN
         13   -1    0    0    0    0  0.00000000000E+00  0.00000000000E+00  0.74505805969E-08  0.10566000000E+00  0.10566000000E+00 0.  1.
     999900   -1    0    0    0    0 -0.00000000000E+00 -0.00000000000E+00 -0.74505805969E-08  0.93827000000E+00  0.93827000000E+00 0.  1.
     999902    2    1    2    0    0  0.37010065039E-02 -0.19437564074E-01 -0.10493292620E-01  0.10215330016E+01  0.10212874463E+01 0.  0.
     999903    2    3    3    0    0  0.59275360297E-01  0.91275164348E-01  0.67343459493E-01  0.12945431843E+00  0.19456491407E-01 0.  0.
         14    1    1    2    0    0 -0.37010065039E-02  0.19437564074E-01  0.10493292620E-01  0.22396998377E-01  0.00000000000E+00 0.  1.
     999901    1    3    3    0    0 -0.55574353793E-01 -0.11071272842E+00 -0.77836752113E-01  0.89207868320E+00  0.88000000000E+00 0. -1.
        -11    1    4    4    0    0  0.27908238378E-02  0.59660959964E-02  0.10510270238E-01  0.12414100878E-01  0.51100000000E-03 0. -1.
         11    1    4    4    0    0  0.56484536459E-01  0.85309068351E-01  0.56833189255E-01  0.11704021755E+00  0.51100000000E-03 0.  1.
</event>
<event>
 8    1  0.1183092E+005  0.1043930E+01  0.7957747E-01            NaN
         13   -1    0    0    0    0  0.00000000000E+00  0.00000000000E+00  0.74505805969E-08  0.10566000000E+00  0.10566000000E+00 0. -1.
     999900   -1    0    0    0    0 -0.00000000000E+00 -0.00000000000E+00 -0.74505805969E-08  0.93827000000E+00  0.93827000000E+00 0. -1.
     999902    2    1    2    0    0  0.19524107440E-01  0.53010403581E-02 -0.12232517383E-01  0.10202883782E+01  0.10200144354E+01 0.  0.
     999903    2    3    3    0    0  0.83172078407E-01  0.74035077199E-01  0.67511623783E-01  0.13173080545E+00  0.19909758309E-01 0.  0.
         14    1    1    2    0    0 -0.19524107440E-01 -0.53010403581E-02  0.12232517383E-01  0.23641621809E-01  0.00000000000E+00 0. -1.
     999901    1    3    3    0    0 -0.63647970967E-01 -0.68734036841E-01 -0.79744141166E-01  0.88855757274E+00  0.88000000000E+00 0. -1.
        -11    1    4    4    0    0  0.49132641437E-01  0.34657131724E-01  0.27719705243E-01  0.66210092990E-01  0.51100000000E-03 0.  1.
         11    1    4    4    0    0  0.34039436970E-01  0.39377945474E-01  0.39791918540E-01  0.65520712459E-01  0.51100000000E-03 0. -1.
</event>
<event>
 8    1  0.1183092E+005  0.1043930E+01  0.7957747E-01            NaN
         13   -1    0    0    0    0  0.00000000000E+00  0.00000000000E+00  0.74505805969E-08  0.10566000000E+00  0.10566000000E+00 0.  1.
     999900   -1    0    0    0    0 -0.00000000000E+00 -0.00000000000E+00 -0.74505805969E-08  0.93827000000E+00  0.93827000000E+00 0. -1.
     999902    2    1    2    0    0  0.19219403866E-01  0.14208266929E-01 -0.10558491335E-02  0.10200056369E+01  0.10197250238E+01 0.  0.
     999903    2    3    3    0    0  0.62614189432E-01 -0.73139638221E-01  0.85355972007E-01  0.13041035429E+00  0.21243237770E-01 0.  0.
         14    1    1    2    0    0 -0.19219403866E-01 -0.14208266929E-01  0.10558491335E-02  0.23924363136E-01  0.00000000000E+00 0. -1.
     999901    1    3    3    0    0 -0.43394785567E-01  0.87347905150E-01 -0.86411821141E-01  0.88959528258E+00  0.88000000000E+00 0. -1.
        -11    1    4    4    0    0  0.43498958105E-01 -0.61614852738E-01  0.72644391169E-01  0.10471875727E+00  0.51100000000E-03 0.  1.
         11    1    4    4    0    0  0.19115231327E-01 -0.11524785482E-01  0.12711580839E-01  0.25691597022E-01  0.51100000000E-03 0. -1.
</event>
<event>
 8    1  0.1183092E+005  0.1043930E+01  0.7957747E-01            NaN
         13   -1    0    0    0    0  0.00000000000E+00  0.00000000000E+00  0.74505805969E-08  0.10566000000E+00  0.10566000000E+00 0. -1.
     999900   -1    0    0    0    0 -0.00000000000E+00 -0.00000000000E+00 -0.74505805969E-08  0.93827000000E+00  0.93827000000E+00 0. -1.
     999902    2    1    2    0    0  0.21625308169E-01  0.19965789936E-02  0.63658145420E-02  0.10212989621E+01  0.10210481899E+01 0.  0.
     999903    2    3    3    0    0  0.60239456691E-01  0.94524248664E-01  0.69409103119E-01  0.13336491143E+00  0.20123376407E-01 0.  0.
         14    1    1    2    0    0 -0.21625308169E-01 -0.19965789936E-02 -0.63658145420E-02  0.22631037887E-01  0.00000000000E+00 0. -1.
     999901    1    3    3    0    0 -0.38614148522E-01 -0.92527669671E-01 -0.63043288577E-01  0.88793405068E+00  0.88000000000E+00 0. -1.
        -11    1    4    4    0    0  0.30393743641E-01  0.30903242335E-01  0.22174668776E-01  0.48690523674E-01  0.51100000000E-03 0.  1.
         11    1    4    4    0    0  0.29845713050E-01  0.63621006329E-01  0.47234434343E-01  0.84674387760E-01  0.51100000000E-03 0. -1.
</event>
<event>
 8    1  0.1183092E+005  0.1043930E+01  0.7957747E-01            NaN
         13   -1    0    0    0    0  0.00000000000E+00  0.00000000000E+00  0.74505805969E-08  0.10566000000E+00  0.10566000000E+00 0.  1.
     999900   -1    0    0    0    0 -0.00000000000E+00 -0.00000000000E+00 -0.74505805969E-08  0.93827000000E+00  0.93827000000E+00 0.  1.
     999902    2    1    2    0    0  0.96822323372E-02 -0.14679414584E-01  0.15089159134E-01  0.10207586047E+01  0.10204955735E+01 0.  0.
     999903    2    3    3    0    0  0.18461861004E-01 -0.12179922668E+00 -0.43024452959E-01  0.13231675073E+00  0.21925488353E-01 0.  0.
         14    1    1    2    0    0 -0.96822323372E-02  0.14679414584E-01 -0.15089159134E-01  0.23171395274E-01  0.00000000000E+00 0. -1.
     999901    1    3    3    0    0 -0.87796286669E-02  0.10711981210E+00  0.58113612092E-01  0.88844185400E+00  0.88000000000E+00 0.  1.
        -11    1    4    4    0    0 -0.13906712069E-03 -0.50809657531E-01 -0.97569793317E-02  0.51740703559E-01  0.51100000000E-03 0. -1.
         11    1    4    4    0    0  0.18600928125E-01 -0.70989569149E-01 -0.33267473627E-01  0.80576047170E-01  0.51100000000E-03 0.  1.
</event>
<event>
 8    1  0.1183092E+005  0.1043930E+01  0.7957747E-01            NaN
         13   -1    0    0    0    0  0.00000000000E+00  0.00000000000E+00  0.74505805969E-08  0.10566000000E+00  0.10566000000E+00 0.  1.
     999900   -1    0    0    0    0 -0.00000000000E+00 -0.00000000000E+00 -0.74505805969E-08  0.93827000000E+00  0.93827000000E+00 0.  1.
     999902    2    1    2    0    0 -0.11602594897E-01 -0.12645189857E-01 -0.14604230279E-01  0.10213954803E+01  0.10211468663E+01 0.  0.
     999903    2    3    3    0    0  0.12482990802E+00 -0.30862806697E-01 -0.70430776301E-02  0.13066382576E+00  0.22100037253E-01 0.  0.
         14    1    1    2    0    0  0.11602594897E-01  0.12645189857E-01  0.14604230279E-01  0.22534519673E-01  0.00000000000E+00 0.  1.
     999901    1    3    3    0    0 -0.13643250292E+00  0.18217616839E-01 -0.75611526488E-02  0.89073165457E+00  0.88000000000E+00 0. -1.
        -11    1    4    4    0    0  0.96687387750E-01 -0.30800274113E-01 -0.11648440626E-01  0.10214232779E+00  0.51100000000E-03 0. -1.
         11    1    4    4    0    0  0.28142520270E-01 -0.62532583320E-04  0.46053629958E-02  0.28521497976E-01  0.51100000000E-03 0.  1.
</event>
<event>
 8    1  0.1183092E+005  0.1043930E+01  0.7957747E-01            NaN
         13   -1    0    0    0    0  0.00000000000E+00  0.00000000000E+00  0.74505805969E-08  0.10566000000E+00  0.10566000000E+00 0. -1.
     999900   -1    0    0    0    0 -0.00000000000E+00 -0.00000000000E+00 -0.74505805969E-08  0.93827000000E+00  0.93827000000E+00 0.  1.
     999902    2    1    2    0    0  0.21325199224E-02  0.62125772275E-03 -0.23281835270E-01  0.10205424508E+01  0.10202744320E+01 0.  0.
     999903    2    3    3    0    0 -0.98166472091E-01  0.82536138964E-01  0.10704884762E-01  0.13041603694E+00  0.21092123097E-01 0.  0.
         14    1    1    2    0    0 -0.21325199224E-02 -0.62125772275E-03  0.23281835270E-01  0.23387549164E-01  0.00000000000E+00 0. -1.
     999901    1    3    3    0    0  0.10029899201E+00 -0.81914881241E-01 -0.33986720032E-01  0.89012641389E+00  0.88000000000E+00 0. -1.
        -11    1    4    4    0    0 -0.26819241866E-01  0.24867018299E-01 -0.62897943050E-02  0.37114188214E-01  0.51100000000E-03 0.  1.
         11    1    4    4    0    0 -0.71347230225E-01  0.57669120664E-01  0.16994679067E-01  0.93301848731E-01  0.51100000000E-03 0. -1.
</event>
<event>
 8    1  0.1183092E+005  0.1043930E+01  0.7957747E-01            NaN
         13   -1    0    0    0    0  0.00000000000E+00  0.00000000000E+00  0.74505805969E-08  0.10566000000E+00  0.10566000000E+00 0.  1.
     999900   -1    0    0    0    0 -0.00000000000E+00 -0.00000000000E+00 -0.74505805969E-08  0.93827000000E+00  0.93827000000E+00 0.  1.
     999902    2    1    2    0    0 -0.62907248192E-02 -0.87944309150E-04  0.21340747121E-01  0.10216812149E+01  0.10214389342E+01 0.  0.
     999903    2    3    3    0    0  0.54264083009E-01  0.10807045536E+00  0.51954326895E-01  0.13246677759E+00  0.14979354245E-01 0.  0.
         14    1    1    2    0    0  0.62907248192E-02  0.87944309150E-04 -0.21340747121E-01  0.22248785150E-01  0.00000000000E+00 0. -1.
     999901    1    3    3    0    0 -0.60554807829E-01 -0.10815839967E+00 -0.30613579774E-01  0.88921443726E+00  0.88000000000E+00 0.  1.
        -11    1    4    4    0    0  0.44297809202E-01  0.85431335344E-01  0.47534613532E-01  0.10733410252E+00  0.51100000000E-03 0. -1.
         11    1    4    4    0    0  0.99662738075E-02  0.22639120020E-01  0.44197133638E-02  0.25132675069E-01  0.51100000000E-03 0.  1.
</event>
<event>
 8    1  0.1183092E+005  0.1043930E+01  0.7957747E-01            NaN
         13   -1    0    0    0    0  0.00000000000E+00  0.00000000000E+00  0.74505805969E-08  0.10566000000E+00  0.10566000000E+00 0.  1.
     999900   -1    0    0    0    0 -0.00000000000E+00 -0.00000000000E+00 -0.74505805969E-08  0.93827000000E+00  0.93827000000E+00 0. -1.
     999902    2    1    2    0    0  0.13525737349E-01  0.17530400940E-01  0.72472280035E-02  0.10206322996E+01  0.10203663598E+01 0.  0.
     999903    2    3    3    0    0 -0.12453277425E-01  0.91288701415E-01  0.93956261538E-01  0.13291970393E+00  0.18739196528E-01 0.  0.
         14    1    1    2    0    0 -0.13525737349E-01 -0.17530400940E-01 -0.72472280035E-02  0.23297700352E-01  0.00000000000E+00 0. -1.
     999901    1    3    3    0    0  0.25979014774E-01 -0.73758300475E-01 -0.86709033535E-01  0.88771259572E+00  0.88000000000E+00 0. -1.
        -11    1    4    4    0    0 -0.15930487235E-01  0.86780290045E-01  0.86927162243E-01  0.12385956491E+00  0.51100000000E-03 0.  1.
         11    1    4    4    0    0  0.34772098100E-02  0.45084113700E-02  0.70290992946E-02  0.90601390187E-02  0.51100000000E-03 0. -1.
</event>
<event>
 8    1  0.1183092E+005  0.1043930E+01  0.7957747E-01            NaN
         13   -1    0    0    0    0  0.00000000000E+00  0.00000000000E+00  0.74505805969E-08  0.10566000000E+00  0.10566000000E+00 0.  1.
     999900   -1    0    0    0    0 -0.00000000000E+00 -0.00000000000E+00 -0.74505805969E-08  0.93827000000E+00  0.93827000000E+00 0.  1.
     999902    2    1    2    0    0  0.87542441226E-03  0.12750039284E-01  0.20069039962E-01  0.10201372231E+01  0.10198597245E+01 0.  0.
     999903    2    3    3    0    0 -0.48869119075E-01  0.94258437419E-01  0.78203310735E-01  0.13306466007E+00  0.17821395143E-01 0.  0.
         14    1    1    2    0    0 -0.87542441226E-03 -0.12750039284E-01 -0.20069039962E-01  0.23792776942E-01  0.00000000000E+00 0. -1.
     999901    1    3    3    0    0  0.49744543487E-01 -0.81508398136E-01 -0.58134270773E-01  0.88707256299E+00  0.88000000000E+00 0.  1.
        -11    1    4    4    0    0 -0.23581207091E-01  0.36482756185E-01  0.41568927795E-01  0.60127379003E-01  0.51100000000E-03 0. -1.
         11    1    4    4    0    0 -0.25287911984E-01  0.57775681234E-01  0.36634382940E-01  0.72937281063E-01  0.51100000000E-03 0.  1.
</event>
<event>
 8    1  0.1183092E+005  0.1043930E+01  0.7957747E-01            NaN
         13   -1    0    0    0    0  0.00000000000E+00  0.00000000000E+00  0.74505805969E-08  0.10566000000E+00  0.10566000000E+00 0. -1.
     999900   -1    0    0    0    0 -0.00000000000E+00 -0.00000000000E+00 -0.74505805969E-08  0.93827000000E+00  0.93827000000E+00 0.  1.
     999902    2    1    2    0    0 -0.23140105058E-01 -0.24079416374E-02 -0.54926360839E-02  0.10200253625E+01  0.10197452174E+01 0.  0.
     999903    2    3    3    0    0 -0.11211989598E+00 -0.66691616577E-01 -0.17075659966E-01  0.13312967496E+00  0.20329520285E-01 0.  0.
         14    1    1    2    0    0  0.23140105058E-01  0.24079416374E-02  0.54926360839E-02  0.23904637545E-01  0.00000000000E+00 0. -1.
     999901    1    3    3    0    0  0.88979790923E-01  0.64283674940E-01  0.11583023882E-01  0.88689568750E+00  0.88000000000E+00 0.  1.
        -11    1    4    4    0    0 -0.75378733546E-01 -0.55218700182E-01 -0.98009233716E-02  0.93954124661E-01  0.51100000000E-03 0.  1.
         11    1    4    4    0    0 -0.36741162434E-01 -0.11472916395E-01 -0.72747365946E-02  0.39175550298E-01  0.51100000000E-03 0. -1.
</event>
<event>
 8    1  0.1183092E+005  0.1043930E+01  0.7957747E-01            NaN
         13   -1    0    0    0    0  0.00000000000E+00  0.00000000000E+00  0.74505805969E-08  0.10566000000E+00  0.10566000000E+00 0.  1.
     999900   -1    0    0    0    0 -0.00000000000E+00 -0.00000000000E+00 -0.74505805969E-08  0.93827000000E+00  0.93827000000E+00 0.  1.
     999902    2    1    2    0    0 -0.22667502903E-01  0.25213686894E-02 -0.21218698672E-02  0.10210242077E+01  0.10207672396E+01 0.  0.
     999903    2    3    3    0    0 -0.12813616891E-02 -0.12714079086E+00 -0.26116111110E-01  0.13094254503E+00  0.17247499832E-01 0.  0.
         14    1    1    2    0    0  0.22667502903E-01 -0.25213686894E-02  0.21218698672E-02  0.22905792274E-01  0.00000000000E+00 0.  1.
     999901    1    3    3    0    0 -0.21386141214E-01  0.12966215955E+00  0.23994241243E-01  0.89008166270E+00  0.88000000000E+00 0. -1.
        -11    1    4    4    0    0  0.67217851020E-03 -0.43674891895E-01 -0.77051160045E-03  0.43689847964E-01  0.51100000000E-03 0.  1.
         11    1    4    4    0    0 -0.19535401993E-02 -0.83465898967E-01 -0.25345599510E-01  0.87252697066E-01  0.51100000000E-03 0. -1.
</event>
<event>
 8    1  0.1183092E+005  0.1043930E+01  0.7957747E-01            NaN
         13   -1    0    0    0    0  0.00000000000E+00  0.00000000000E+00  0.74505805969E-08  0.10566000000E+00  0.10566000000E+00 0.  1.
     999900   -1    0    0    0    0 -0.00000000000E+00 -0.00000000000E+00 -0.74505805969E-08  0.93827000000E+00  0.93827000000E+00 0. -1.
     999902    2    1    2    0    0 -0.21131073495E-01  0.10390377229E-02 -0.11169476806E-01  0.10200059728E+01  0.10197253676E+01 0.  0.
     999903    2    3    3    0    0  0.12167130031E+00  0.16629868476E-01 -0.27698657724E-01  0.12820509490E+00  0.24266702979E-01 0.  0.
         14    1    1    2    0    0  0.21131073495E-01 -0.10390377229E-02  0.11169476806E-01  0.23924027223E-01  0.00000000000E+00 0.  1.
     999901    1    3    3    0    0 -0.14280237380E+00 -0.15590830753E-01  0.16529180918E-01  0.89180087788E+00  0.88000000000E+00 0.  1.
        -11    1    4    4    0    0  0.91153696045E-01  0.22945463428E-01 -0.20096862396E-01  0.96123023224E-01  0.51100000000E-03 0.  1.
         11    1    4    4    0    0  0.30517604263E-01 -0.63155949524E-02 -0.76017953277E-02  0.32082071672E-01  0.51100000000E-03 0. -1.
</event>
<event>
 8    1  0.1183092E+005  0.1043930E+01  0.7957747E-01            NaN
         13   -1    0    0    0    0  0.00000000000E+00  0.00000000000E+00  0.74505805969E-08  0.10566000000E+00  0.10566000000E+00 0.  1.
     999900   -1    0    0    0    0 -0.00000000000E+00 -0.00000000000E+00 -0.74505805969E-08  0.93827000000E+00  0.93827000000E+00 0.  1.
     999902    2    1    2    0    0 -0.20131619748E-01  0.58504951229E-03 -0.11439948051E-01  0.10207675993E+01  0.10205047746E+01 0.  0.
     999903    2    3    3    0    0 -0.76953987304E-01 -0.10163806674E+00  0.27802215370E-01  0.13216290968E+00  0.21020436356E-01 0.  0.
         14    1    1    2    0    0  0.20131619748E-01 -0.58504951229E-03  0.11439948051E-01  0.23162400739E-01  0.00000000000E+00 0. -1.
     999901    1    3    3    0    0  0.56822367556E-01  0.10222311625E+00 -0.39242163421E-01  0.88860468958E+00  0.88000000000E+00 0. -1.
        -11    1    4    4    0    0 -0.33114222395E-01 -0.41479012508E-01  0.11350954192E-02  0.53090580766E-01  0.51100000000E-03 0.  1.
         11    1    4    4    0    0 -0.43839764909E-01 -0.60159054227E-01  0.26667119951E-01  0.79072328916E-01  0.51100000000E-03 0. -1.
</event>
<event>
 8    1  0.1183092E+005  0.1043930E+01  0.7957747E-01            NaN
         13   -1    0    0    0    0  0.00000000000E+00  0.00000000000E+00  0.74505805969E-08  0.10566000000E+00  0.10566000000E+00 0.  1.
     999900   -1    0    0    0    0 -0.00000000000E+00 -0.00000000000E+00 -0.74505805969E-08  0.93827000000E+00  0.93827000000E+00 0. -1.
     999902    2    1    2    0    0 -0.28053880055E-02  0.18145332910E-01  0.14366550611E-01  0.10206164613E+01  0.10203501556E+01 0.  0.
     999903    2    3    3    0    0 -0.52868443515E-01  0.90620493273E-01  0.80546255247E-01  0.13374628386E+00  0.19829853557E-01 0.  0.
         14    1    1    2    0    0  0.28053880055E-02 -0.18145332910E-01 -0.14366550611E-01  0.23313538658E-01  0.00000000000E+00 0. -1.
     999901    1    3    3    0    0  0.50063055509E-01 -0.72475160363E-01 -0.66179704636E-01  0.88687017748E+00  0.88000000000E+00 0. -1.
        -11    1    4    4    0    0 -0.13484415986E-01  0.27312581642E-01  0.34887869497E-01  0.46316640093E-01  0.51100000000E-03 0. -1.
         11    1    4    4    0    0 -0.39384027529E-01  0.63307911631E-01  0.45658385750E-01  0.87429643770E-01  0.51100000000E-03 0.  1.
</event>
<event>
 8    1  0.1183092E+005  0.1043930E+01  0.7957747E-01            NaN
         13   -1    0    0    0    0  0.00000000000E+00  0.00000000000E+00  0.74505805969E-08  0.10566000000E+00  0.10566000000E+00 0.  1.
     999900   -1    0    0    0    0 -0.00000000000E+00 -0.00000000000E+00 -0.74505805969E-08  0.93827000000E+00  0.93827000000E+00 0.  1.
     999902    2    1    2    0    0  0.58143702843E-02  0.12068547314E-01 -0.19355496141E-01  0.10203908418E+01  0.10201192960E+01 0.  0.
     999903    2    3    3    0    0  0.91609337245E-01 -0.76242069429E-01 -0.51089368961E-01  0.13125273104E+00  0.20298570492E-01 0.  0.
         14    1    1    2    0    0 -0.58143702843E-02 -0.12068547314E-01  0.19355496141E-01  0.23539158161E-01  0.00000000000E+00 0.  1.
     999901    1    3    3    0    0 -0.85794966961E-01  0.88310616743E-01  0.31733872820E-01  0.88913811080E+00  0.88000000000E+00 0.  1.
        -11    1    4    4    0    0  0.33605434393E-03 -0.33265660352E-02 -0.41451230422E-02  0.53499663685E-02  0.51100000000E-03 0.  1.
         11    1    4    4    0    0  0.91273282901E-01 -0.72915503394E-01 -0.46944245919E-01  0.12590276467E+00  0.51100000000E-03 0. -1.
</event>
<event>
 7    1  0.1183092E+005  0.1043930E+01  0.7957747E-01            NaN
         13   -1    0    0    0    0  0.00000000000E+00  0.00000000000E+00  0.74505805969E-08  0.10566000000E+00  0.10566000000E+00 0.  1.
     999900   -1    0    0    0    0 -0.00000000000E+00 -0.00000000000E+00 -0.74505805969E-08  0.93827000000E+00  0.93827000000E+00 0.  1.
     999903    2    1    2    0    0  0.46681011500E-01  0.93050791700E-01 -0.21956488729E-01  0.10830986486E+00  0.20282326272E-01 0.  0.
         14    1    1    2    0    0  0.34561978937E-01  0.17310820642E-02 -0.29285270673E-01  0.45333807600E-01  0.00000000000E+00 0.  1.
     999901    1    1    2    0    0 -0.81242990437E-01 -0.94781873764E-01  0.51241759403E-01  0.89028632754E+00  0.88000000000E+00 0.  1.
        -11    1    3    3    0    0  0.26160213863E-01  0.33486065009E-01 -0.34034963943E-02  0.42632361509E-01  0.51100000000E-03 0.  1.
         11    1    3    3    0    0  0.20520797638E-01  0.59564726690E-01 -0.18552992335E-01  0.65677503355E-01  0.51100000000E-03 0. -1.
</event>
<event>
 8    1  0.1183092E+005  0.1043930E+01  0.7957747E-01            NaN
         13   -1    0    0    0    0  0.00000000000E+00  0.00000000000E+00  0.74505805969E-08  0.10566000000E+00  0.10566000000E+00 0. -1.
     999900   -1    0    0    0    0 -0.00000000000E+00 -0.00000000000E+00 -0.74505805969E-08  0.93827000000E+00  0.93827000000E+00 0.  1.
     999902    2    1    2    0    0 -0.68645025684E-02 -0.23465748340E-01 -0.11489472501E-02  0.10194538316E+01  0.10191599638E+01 0.  0.
     999903    2    3    3    0    0 -0.85112454866E-01  0.34944440102E-01  0.88013268598E-01  0.12957496742E+00  0.24043561803E-01 0.  0.
         14    1    1    2    0    0  0.68645025684E-02  0.23465748340E-01  0.11489472501E-02  0.24476168419E-01  0.00000000000E+00 0.  1.
     999901    1    3    3    0    0  0.78247952298E-01 -0.58410188442E-01 -0.89162215848E-01  0.88987886417E+00  0.88000000000E+00 0.  1.
        -11    1    4    4    0    0 -0.75243771621E-01  0.36667249410E-01  0.70704421735E-01  0.10956956111E+00  0.51100000000E-03 0.  1.
         11    1    4    4    0    0 -0.98686832454E-02 -0.17228093080E-02  0.17308846863E-01  0.20005406311E-01  0.51100000000E-03 0. -1.
</event>
<event>
 8    1  0.1183092E+005  0.1043930E+01  0.7957747E-01            NaN
         13   -1    0    0    0    0  0.00000000000E+00  0.00000000000E+00  0.74505805969E-08  0.10566000000E+00  0.10566000000E+00 0. -1.
     999900   -1    0    0    0    0 -0.00000000000E+00 -0.00000000000E+00 -0.74505805969E-08  0.93827000000E+00  0.93827000000E+00 0. -1.
     999902    2    1    2    0    0 -0.46643401622E-02 -0.15293177515E-01 -0.17566097331E-01  0.10201769976E+01  0.10199004370E+01 0.  0.
     999903    2    3    3    0    0 -0.52771470032E-01 -0.11048290227E+00 -0.48153389874E-01  0.13320971404E+00  0.20851360025E-01 0.  0.
         14    1    1    2    0    0  0.46643401622E-02  0.15293177515E-01  0.17566097331E-01  0.23753002402E-01  0.00000000000E+00 0. -1.
     999901    1    3    3    0    0  0.48107129869E-01  0.95189724751E-01  0.30587292543E-01  0.88696728356E+00  0.88000000000E+00 0.  1.
        -11    1    4    4    0    0 -0.27140536938E-01 -0.51942715652E-01 -0.33991229566E-01  0.67751894903E-01  0.51100000000E-03 0. -1.
         11    1    4    4    0    0 -0.25630933094E-01 -0.58540186614E-01 -0.14162160308E-01  0.65457819134E-01  0.51100000000E-03 0.  1.
</event>
<event>
 8    1  0.1183092E+005  0.1043930E+01  0.7957747E-01            NaN
         13   -1    0    0    0    0  0.00000000000E+00  0.00000000000E+00  0.74505805969E-08  0.10566000000E+00  0.10566000000E+00 0.  1.
     999900   -1    0    0    0    0 -0.00000000000E+00 -0.00000000000E+00 -0.74505805969E-08  0.93827000000E+00  0.93827000000E+00 0.  1.
     999902    2    1    2    0    0  0.17836783957E-01 -0.15978297258E-01 -0.12769291004E-02  0.10199490202E+01  0.10196670615E+01 0.  0.
     999903    2    3    3    0    0  0.33615166302E-01 -0.12455350057E+00  0.26150751430E-01  0.13271184232E+00  0.16882457801E-01 0.  0.
         14    1    1    2    0    0 -0.17836783957E-01  0.15978297258E-01  0.12769291004E-02  0.23980979820E-01  0.00000000000E+00 0.  1.
     999901    1    3    3    0    0 -0.15778382345E-01  0.10857520331E+00 -0.27427680531E-01  0.88723717786E+00  0.88000000000E+00 0.  1.
        -11    1    4    4    0    0  0.21508003434E-01 -0.99489510119E-01  0.25170007046E-01  0.10485488644E+00  0.51100000000E-03 0.  1.
         11    1    4    4    0    0  0.12107162868E-01 -0.25063990449E-01  0.98074438408E-03  0.27856955873E-01  0.51100000000E-03 0. -1.
</event>
<event>
 8    1  0.1183092E+005  0.1043930E+01  0.7957747E-01            NaN
         13   -1    0    0    0    0  0.00000000000E+00  0.00000000000E+00  0.74505805969E-08  0.10566000000E+00  0.10566000000E+00 0.  1.
     999900   -1    0    0    0    0 -0.00000000000E+00 -0.00000000000E+00 -0.74505805969E-08  0.93827000000E+00  0.93827000000E+00 0.  1.
     999902    2    1    2    0    0  0.12201865086E-02 -0.14923100665E-01  0.17981477935E-01  0.10205308261E+01  0.10202625377E+01 0.  0.
     999903    2    3    3    0    0  0.29317758455E-01 -0.10714911015E+00 -0.66795972597E-01  0.13121517549E+00  0.20377869299E-01 0.  0.
         14    1    1    2    0    0 -0.12201865086E-02  0.14923100665E-01 -0.17981477935E-01  0.23399173859E-01  0.00000000000E+00 0. -1.
     999901    1    3    3    0    0 -0.28097571947E-01  0.92226009483E-01  0.84777450532E-01  0.88931565065E+00  0.88000000000E+00 0. -1.
        -11    1    4    4    0    0 -0.12640406342E-02 -0.25850796320E-01 -0.18624819105E-01  0.31890538985E-01  0.51100000000E-03 0.  1.
         11    1    4    4    0    0  0.30581799089E-01 -0.81298313829E-01 -0.48171153492E-01  0.99324636504E-01  0.51100000000E-03 0. -1.
</event>
<event>
 8    1  0.1183092E+005  0.1043930E+01  0.7957747E-01            NaN
         13   -1    0    0    0    0  0.00000000000E+00  0.00000000000E+00  0.74505805969E-08  0.10566000000E+00  0.10566000000E+00 0.  1.
     999900   -1    0    0    0    0 -0.00000000000E+00 -0.00000000000E+00 -0.74505805969E-08  0.93827000000E+00  0.93827000000E+00 0.  1.
     999902    2    1    2    0    0 -0.60913009757E-02  0.26001721255E-01 -0.17247919103E-02  0.10171686779E+01  0.10168165768E+01 0.  0.
     999903    2    3    3    0    0  0.82749263332E-01  0.35145789986E-01 -0.89279030453E-01  0.12832560703E+00  0.20348194182E-01 0.  0.
         14    1    1    2    0    0  0.60913009757E-02 -0.26001721255E-01  0.17247919103E-02  0.26761322145E-01  0.00000000000E+00 0.  1.
     999901    1    3    3    0    0 -0.88840564307E-01 -0.91440687307E-02  0.87554238543E-01  0.88884307082E+00  0.88000000000E+00 0. -1.
        -11    1    4    4    0    0  0.57324263047E-01  0.26647081026E-01 -0.49207595414E-01  0.80111089298E-01  0.51100000000E-03 0.  1.
         11    1    4    4    0    0  0.25425000285E-01  0.84987089595E-02 -0.40071435040E-01  0.48214517737E-01  0.51100000000E-03 0. -1.
</event>
<event>
 8    1  0.1183092E+005  0.1043930E+01  0.7957747E-01            NaN
         13   -1    0    0    0    0  0.00000000000E+00  0.00000000000E+00  0.74505805969E-08  0.10566000000E+00  0.10566000000E+00 0. -1.
     999900   -1    0    0    0    0 -0.00000000000E+00 -0.00000000000E+00 -0.74505805969E-08  0.93827000000E+00  0.93827000000E+00 0. -1.
     999902    2    1    2    0    0 -0.20418008826E-01 -0.11498047470E-01  0.21694811676E-02  0.10203968993E+01  0.10201254949E+01 0.  0.
     999903    2    3    3    0    0  0.12392636354E+00  0.14654143555E-01 -0.25746174918E-01  0.12781720046E+00  0.10093745861E-01 0.  0.
         14    1    1    2    0    0  0.20418008826E-01  0.11498047470E-01 -0.21694811676E-02  0.23533100700E-01  0.00000000000E+00 0.  1.
     999901    1    3    3    0    0 -0.14434437237E+00 -0.26152191025E-01  0.27915656086E-01  0.89257969884E+00  0.88000000000E+00 0. -1.
        -11    1    4    4    0    0  0.80318934468E-01  0.14181146890E-01 -0.15645926362E-01  0.83049938555E-01  0.51100000000E-03 0. -1.
         11    1    4    4    0    0  0.43607429075E-01  0.47299666510E-03 -0.10100248556E-01  0.44767261903E-01  0.51100000000E-03 0.  1.
</event>
<event>
 8    1  0.1183092E+005  0.1043930E+01  0.7957747E-01            NaN
         13   -1    0    0    0    0  0.00000000000E+00  0.00000000000E+00  0.74505805969E-08  0.10566000000E+00  0.10566000000E+00 0.  1.
     999900   -1    0    0    0    0 -0.00000000000E+00 -0.00000000000E+00 -0.74505805969E-08  0.93827000000E+00  0.93827000000E+00 0.  1.
     999902    2    1    2    0    0  0.13139295615E-01  0.78249575543E-02 -0.17923610541E-01  0.10203688696E+01  0.10200968107E+01 0.  0.
     999903    2    3    3    0    0 -0.60330396237E-01  0.11409930561E+00  0.19598440342E-02  0.13071310223E+00  0.20583144980E-01 0.  0.
         14    1    1    2    0    0 -0.13139295615E-01 -0.78249575543E-02  0.17923610541E-01  0.23561130381E-01  0.00000000000E+00 0.  1.
     999901    1    3    3    0    0  0.73469691853E-01 -0.10627434805E+00 -0.19883454575E-01  0.88965576738E+00  0.88000000000E+00 0.  1.
        -11    1    4    4    0    0 -0.17358475102E-01  0.54438680829E-01  0.22420833642E-02  0.57185441216E-01  0.51100000000E-03 0. -1.
         11    1    4    4    0    0 -0.42971921135E-01  0.59660624777E-01 -0.28223932999E-03  0.73527661018E-01  0.51100000000E-03 0.  1.
</event>
<event>
 8    1  0.1183092E+005  0.1043930E+01  0.7957747E-01            NaN
         13   -1    0    0    0    0  0.00000000000E+00  0.00000000000E+00  0.74505805969E-08  0.10566000000E+00  0.10566000000E+00 0.  1.
     999900   -1    0    0    0    0 -0.00000000000E+00 -0.00000000000E+00 -0.74505805969E-08  0.93827000000E+00  0.93827000000E+00 0.  1.
     999902    2    1    2    0    0  0.61595783669E-04 -0.16885083661E-01 -0.16808102279E-01  0.10201051779E+01  0.10198269225E+01 0.  0.
     999903    2    3    3    0    0 -0.41363472043E-01  0.14374498148E-01  0.11888531482E+00  0.12819380277E+00  0.19554282700E-01 0.  0.
         14    1    1    2    0    0 -0.61595783669E-04  0.16885083661E-01  0.16808102279E-01  0.23824822067E-01  0.00000000000E+00 0.  1.
     999901    1    3    3    0    0  0.41425067827E-01 -0.31259581809E-01 -0.13569341710E+00  0.89191137516E+00  0.88000000000E+00 0.  1.
        -11    1    4    4    0    0 -0.84203151831E-02 -0.30330249950E-02  0.39406597438E-01  0.40413388759E-01  0.51100000000E-03 0. -1.
         11    1    4    4    0    0 -0.32943156860E-01  0.17407523143E-01  0.79478717385E-01  0.87780414011E-01  0.51100000000E-03 0.  1.
</event>
<event>
 8    1  0.1183092E+005  0.1043930E+01  0.7957747E-01            NaN
         13   -1    0    0    0    0  0.00000000000E+00  0.00000000000E+00  0.74505805969E-08  0.10566000000E+00  0.10566000000E+00 0. -1.
     999900   -1    0    0    0    0 -0.00000000000E+00 -0.00000000000E+00 -0.74505805969E-08  0.93827000000E+00  0.93827000000E+00 0. -1.
     999902    2    1    2    0    0  0.36126954551E-02  0.18629692505E-01 -0.13932284549E-01  0.10203880042E+01  0.10201163922E+01 0.  0.
     999903    2    3    3    0    0 -0.73861354990E-01 -0.59829107706E-01  0.83611144288E-01  0.12815892361E+00  0.19971588873E-01 0.  0.
         14    1    1    2    0    0 -0.36126954551E-02 -0.18629692505E-01  0.13932284549E-01  0.23541995753E-01  0.00000000000E+00 0.  1.
     999901    1    3    3    0    0  0.77474050445E-01  0.78458800210E-01 -0.97543428838E-01  0.89222908064E+00  0.88000000000E+00 0. -1.
        -11    1    4    4    0    0 -0.81078729566E-02 -0.14446368404E-01  0.90882783071E-02  0.18902197955E-01  0.51100000000E-03 0.  1.
         11    1    4    4    0    0 -0.65753482034E-01 -0.45382739302E-01  0.74522865981E-01  0.10925672566E+00  0.51100000000E-03 0. -1.
</event>
<event>
 8    1  0.1183092E+005  0.1043930E+01  0.7957747E-01            NaN
         13   -1    0    0    0    0  0.00000000000E+00  0.00000000000E+00  0.74505805969E-08  0.10566000000E+00  0.10566000000E+00 0. -1.
     999900   -1    0    0    0    0 -0.00000000000E+00 -0.00000000000E+00 -0.74505805969E-08  0.93827000000E+00  0.93827000000E+00 0. -1.
     999902    2    1    2    0    0  0.19935548068E-01 -0.45014021508E-02  0.11491789793E-01  0.10204832533E+01  0.10202138601E+01 0.  0.
     999903    2    3    3    0    0  0.10910159056E+00  0.57604175986E-01 -0.42367283070E-01  0.13216546912E+00  0.21244443958E-01 0.  0.
         14    1    1    2    0    0 -0.19935548068E-01  0.45014021508E-02 -0.11491789793E-01  0.23446746699E-01  0.00000000000E+00 0.  1.
     999901    1    3    3    0    0 -0.89166042489E-01 -0.62105578136E-01  0.53859072863E-01  0.88831778418E+00  0.88000000000E+00 0. -1.
        -11    1    4    4    0    0  0.99181131805E-01  0.46161471458E-01 -0.41439737933E-01  0.11698415001E+00  0.51100000000E-03 0.  1.
         11    1    4    4    0    0  0.99204587522E-02  0.11442704528E-01 -0.92754513735E-03  0.15181319104E-01  0.51100000000E-03 0. -1.
</event>
<event>
 8    1  0.1183092E+005  0.1043930E+01  0.7957747E-01            NaN
         13   -1    0    0    0    0  0.00000000000E+00  0.00000000000E+00  0.74505805969E-08  0.10566000000E+00  0.10566000000E+00 0. -1.
     999900   -1    0    0    0    0 -0.00000000000E+00 -0.00000000000E+00 -0.74505805969E-08  0.93827000000E+00  0.93827000000E+00 0. -1.
     999902    2    1    2    0    0 -0.50529595124E-02  0.22769105855E-01  0.25694436698E-02  0.10204658439E+01  0.10201960458E+01 0.  0.
     999903    2    3    3    0    0  0.87741017751E-02  0.13045179404E+00 -0.18330170395E-01  0.13354784157E+00  0.20109087786E-01 0.  0.
         14    1    1    2    0    0  0.50529595124E-02 -0.22769105855E-01 -0.25694436698E-02  0.23464156112E-01  0.00000000000E+00 0. -1.
     999901    1    3    3    0    0 -0.13827061288E-01 -0.10768268819E+00  0.20899614065E-01  0.88691800231E+00  0.88000000000E+00 0. -1.
        -11    1    4    4    0    0  0.14173163439E-01  0.10779147612E+00 -0.11856886519E-01  0.10936511219E+00  0.51100000000E-03 0.  1.
         11    1    4    4    0    0 -0.53990616640E-02  0.22660317922E-01 -0.64732838760E-02  0.24182729381E-01  0.51100000000E-03 0. -1.
</event>
<event>
 8    1  0.1183092E+005  0.1043930E+01  0.7957747E-01            NaN
         13   -1    0    0    0    0  0.00000000000E+00  0.00000000000E+00  0.74505805969E-08  0.10566000000E+00  0.10566000000E+00 0. -1.
     999900   -1    0    0    0    0 -0.00000000000E+00 -0.00000000000E+00 -0.74505805969E-08  0.93827000000E+00  0.93827000000E+00 0. -1.
     999902    2    1    2    0    0 -0.14096389562E-01  0.49365220435E-02 -0.17690761667E-01  0.10207774516E+01  0.10205148530E+01 0.  0.
     999903    2    3    3    0    0 -0.42460183814E-01  0.12105257091E+00 -0.27338390784E-01  0.13264428683E+00  0.19761758145E-01 0.  0.
         14    1    1    2    0    0  0.14096389562E-01 -0.49365220435E-02  0.17690761667E-01  0.23152548390E-01  0.00000000000E+00 0. -1.
     999901    1    3    3    0    0  0.28363794251E-01 -0.11611604887E+00  0.96476291174E-02  0.88813316478E+00  0.88000000000E+00 0. -1.
        -11    1    4    4    0    0 -0.31408162006E-01  0.59756973426E-01 -0.14313754214E-01  0.69010964306E-01  0.51100000000E-03 0. -1.
         11    1    4    4    0    0 -0.11052021808E-01  0.61295597485E-01 -0.13024636570E-01  0.63633322528E-01  0.51100000000E-03 0.  1.
</event>
<event>
 8    1  0.1183092E+005  0.1043930E+01  0.7957747E-01            NaN
         13   -1    0    0    0    0  0.00000000000E+00  0.00000000000E+00  0.74505805969E-08  0.10566000000E+00  0.10566000000E+00 0.  1.
     999900   -1    0    0    0    0 -0.00000000000E+00 -0.00000000000E+00 -0.74505805969E-08  0.93827000000E+00  0.93827000000E+00 0.  1.
     999902    2    1    2    0    0 -0.14731275915E-02 -0.18658473868E-01  0.13479455076E-01  0.10208647781E+01  0.10206041793E+01 0.  0.
     999903    2    3    3    0    0 -0.20182312453E-01  0.12493584718E+00  0.12172118297E-01  0.12902899066E+00  0.22000643634E-01 0.  0.
         14    1    1    2    0    0  0.14731275915E-02  0.18658473868E-01 -0.13479455076E-01  0.23065221897E-01  0.00000000000E+00 0. -1.
     999901    1    3    3    0    0  0.18709184861E-01 -0.14359432105E+00  0.13073367788E-02  0.89183578744E+00  0.88000000000E+00 0. -1.
        -11    1    4    4    0    0 -0.88753235556E-02  0.35343334550E-01  0.13078216766E-01  0.38719808111E-01  0.51100000000E-03 0.  1.
         11    1    4    4    0    0 -0.11306988897E-01  0.89592512630E-01 -0.90609846908E-03  0.90309182549E-01  0.51100000000E-03 0. -1.
</event>
<event>
 8    1  0.1183092E+005  0.1043930E+01  0.7957747E-01            NaN
         13   -1    0    0    0    0  0.00000000000E+00  0.00000000000E+00  0.74505805969E-08  0.10566000000E+00  0.10566000000E+00 0. -1.
     999900   -1    0    0    0    0 -0.00000000000E+00 -0.00000000000E+00 -0.74505805969E-08  0.93827000000E+00  0.93827000000E+00 0.  1.
     999902    2    1    2    0    0  0.15116274610E-01  0.63438678733E-02 -0.23812575170E-01  0.10150200510E+01  0.10146082587E+01 0.  0.
     999903    2    3    3    0    0 -0.92396701675E-01 -0.36364186248E-02  0.78192039547E-01  0.12257196416E+00  0.18960942220E-01 0.  0.
         14    1    1    2    0    0 -0.15116274610E-01 -0.63438678733E-02  0.23812575170E-01  0.28909949047E-01  0.00000000000E+00 0. -1.
     999901    1    3    3    0    0  0.10751297628E+00  0.99802864981E-02 -0.10200461472E+00  0.89244808679E+00  0.88000000000E+00 0. -1.
        -11    1    4    4    0    0 -0.48713652218E-01 -0.11373401401E-01  0.41436725712E-01  0.64958737138E-01  0.51100000000E-03 0.  1.
         11    1    4    4    0    0 -0.43683049457E-01  0.77369827758E-02  0.36755313836E-01  0.57613227027E-01  0.51100000000E-03 0. -1.
</event>
<event>
 8    1  0.1183092E+005  0.1043930E+01  0.7957747E-01            NaN
         13   -1    0    0    0    0  0.00000000000E+00  0.00000000000E+00  0.74505805969E-08  0.10566000000E+00  0.10566000000E+00 0. -1.
     999900   -1    0    0    0    0 -0.00000000000E+00 -0.00000000000E+00 -0.74505805969E-08  0.93827000000E+00  0.93827000000E+00 0. -1.
     999902    2    1    2    0    0  0.94068965015E-03 -0.92812164356E-02 -0.14398253814E-01  0.10267737886E+01  0.10266304483E+01 0.  0.
     999903    2    3    3    0    0 -0.12258652630E+00 -0.11317739454E-02  0.53876910969E-01  0.13548994798E+00  0.20641393496E-01 0.  0.
         14    1    1    2    0    0 -0.94068965015E-03  0.92812164356E-02  0.14398253814E-01  0.17156211366E-01  0.00000000000E+00 0. -1.
     999901    1    3    3    0    0  0.12352721595E+00 -0.81494424902E-02 -0.68275164783E-01  0.89128384066E+00  0.88000000000E+00 0.  1.
        -11    1    4    4    0    0 -0.40055280309E-01 -0.96904483520E-02  0.15003940228E-01  0.43860114150E-01  0.51100000000E-03 0.  1.
         11    1    4    4    0    0 -0.82531245987E-01  0.85586744066E-02  0.38872970741E-01  0.91629833826E-01  0.51100000000E-03 0. -1.
</event>
<event>
 8    1  0.1183092E+005  0.1043930E+01  0.7957747E-01            NaN
         13   -1    0    0    0    0  0.00000000000E+00  0.00000000000E+00  0.74505805969E-08  0.10566000000E+00  0.10566000000E+00 0.  1.
     999900   -1    0    0    0    0 -0.00000000000E+00 -0.00000000000E+00 -0.74505805969E-08  0.93827000000E+00  0.93827000000E+00 0.  1.
     999902    2    1    2    0    0 -0.68674660082E-02  0.28905951355E-01  0.18842973830E-01  0.10087479907E+01  0.10081342842E+01 0.  0.
     999903    2    3    3    0    0  0.77145768144E-01  0.77232863049E-01 -0.48526745441E-01  0.12086714683E+00  0.18374914468E-01 0.  0.
         14    1    1    2    0    0  0.68674660082E-02 -0.28905951355E-01 -0.18842973830E-01  0.35182009264E-01  0.00000000000E+00 0. -1.
     999901    1    3    3    0    0 -0.84013234152E-01 -0.48326911694E-01  0.67369719271E-01  0.88788084391E+00  0.88000000000E+00 0. -1.
        -11    1    4    4    0    0  0.22738271294E-01  0.16206977153E-01 -0.54520641510E-02  0.28454897898E-01  0.51100000000E-03 0.  1.
         11    1    4    4    0    0  0.54407496850E-01  0.61025885895E-01 -0.43074681290E-01  0.92412248929E-01  0.51100000000E-03 0. -1.
</event>
<event>
 8    1  0.1183092E+005  0.1043930E+01  0.7957747E-01            NaN
         13   -1    0    0    0    0  0.00000000000E+00  0.00000000000E+00  0.74505805969E-08  0.10566000000E+00  0.10566000000E+00 0.  1.
     999900   -1    0    0    0    0 -0.00000000000E+00 -0.00000000000E+00 -0.74505805969E-08  0.93827000000E+00  0.93827000000E+00 0. -1.
     999902    2    1    2    0    0 -0.33972249925E-02  0.72203479427E-02 -0.22143241616E-01  0.10203928440E+01  0.10201213450E+01 0.  0.
     999903    2    3    3    0    0 -0.55407484854E-01  0.11764998115E+00 -0.92895875717E-02  0.13187442135E+00  0.19825718787E-01 0.  0.
         14    1    1    2    0    0  0.33972249925E-02 -0.72203479427E-02  0.22143241616E-01  0.23537155974E-01  0.00000000000E+00 0.  1.
     999901    1    3    3    0    0  0.52010259862E-01 -0.11042963321E+00 -0.12853654044E-01  0.88851842268E+00  0.88000000000E+00 0. -1.
        -11    1    4    4    0    0 -0.16336304703E-01  0.53248740963E-01 -0.97345738096E-02  0.56544905285E-01  0.51100000000E-03 0.  1.
         11    1    4    4    0    0 -0.39071180152E-01  0.64401240187E-01  0.44498623787E-03  0.75329516060E-01  0.51100000000E-03 0. -1.
</event>
<event>
 8    1  0.1183092E+005  0.1043930E+01  0.7957747E-01            NaN
         13   -1    0    0    0    0  0.00000000000E+00  0.00000000000E+00  0.74505805969E-08  0.10566000000E+00  0.10566000000E+00 0. -1.
     999900   -1    0    0    0    0 -0.00000000000E+00 -0.00000000000E+00 -0.74505805969E-08  0.93827000000E+00  0.93827000000E+00 0. -1.
     999902    2    1    2    0    0 -0.31814519788E-02 -0.12180193459E-01 -0.23045146090E-01  0.10176705730E+01  0.10173317245E+01 0.  0.
     999903    2    3    3    0    0  0.12264108806E+00  0.96981825810E-02 -0.30647868245E-01  0.12841932822E+00  0.20428920838E-01 0.  0.
         14    1    1    2    0    0  0.31814519788E-02  0.12180193459E-01  0.23045146090E-01  0.26259427025E-01  0.00000000000E+00 0. -1.
     999901    1    3    3    0    0 -0.12582254004E+00 -0.21878376040E-01  0.76027221547E-02  0.88925124476E+00  0.88000000000E+00 0.  1.
        -11    1    4    4    0    0  0.58342789456E-01  0.14079345903E-01 -0.18755062720E-01  0.62881814233E-01  0.51100000000E-03 0.  1.
         11    1    4    4    0    0  0.64298298600E-01 -0.43811633217E-02 -0.11892805525E-01  0.65537513984E-01  0.51100000000E-03 0. -1.
</event>
<event>
 8    1  0.1183092E+005  0.1043930E+01  0.7957747E-01            NaN
         13   -1    0    0    0    0  0.00000000000E+00  0.00000000000E+00  0.74505805969E-08  0.10566000000E+00  0.10566000000E+00 0. -1.
     999900   -1    0    0    0    0 -0.00000000000E+00 -0.00000000000E+00 -0.74505805969E-08  0.93827000000E+00  0.93827000000E+00 0.  1.
     999902    2    1    2    0    0 -0.82953626723E-02 -0.21345558218E-01  0.12000490077E-01  0.10180754519E+01  0.10177471042E+01 0.  0.
     999903    2    3    3    0    0 -0.87494553145E-01  0.28858224191E-01 -0.86162523096E-01  0.12766604676E+00  0.19660752137E-01 0.  0.
         14    1    1    2    0    0  0.82953626723E-02  0.21345558218E-01 -0.12000490077E-01  0.25854548141E-01  0.00000000000E+00 0.  1.
     999901    1    3    3    0    0  0.79199190473E-01 -0.50203782409E-01  0.98163013173E-01  0.89040940510E+00  0.88000000000E+00 0.  1.
        -11    1    4    4    0    0 -0.62675407489E-01  0.21297190569E-01 -0.73082185130E-01  0.98605496472E-01  0.51100000000E-03 0.  1.
         11    1    4    4    0    0 -0.24819145657E-01  0.75610336224E-02 -0.13080337966E-01  0.29060550285E-01  0.51100000000E-03 0. -1.
</event>
<event>
 8    1  0.1183092E+005  0.1043930E+01  0.7957747E-01            NaN
         13   -1    0    0    0    0  0.00000000000E+00  0.00000000000E+00  0.74505805969E-08  0.10566000000E+00  0.10566000000E+00 0.  1.
     999900   -1    0    0    0    0 -0.00000000000E+00 -0.00000000000E+00 -0.74505805969E-08  0.93827000000E+00  0.93827000000E+00 0.  1.
     999902    2    1    2    0    0  0.27175424247E-02  0.23301949984E-01 -0.49456794260E-02  0.10199544780E+01  0.10196726492E+01 0.  0.
     999903    2    3    3    0    0  0.79125130329E-01  0.32742704458E-01  0.96778165662E-01  0.13075540693E+00  0.19952246712E-01 0.  0.
         14    1    1    2    0    0 -0.27175424247E-02 -0.23301949984E-01  0.49456794260E-02  0.23975521994E-01  0.00000000000E+00 0.  1.
     999901    1    3    3    0    0 -0.76407587904E-01 -0.94407544738E-02 -0.10172384509E+00  0.88919907107E+00  0.88000000000E+00 0.  1.
        -11    1    4    4    0    0  0.35891431376E-01  0.53891747899E-02  0.46874932628E-01  0.59285398549E-01  0.51100000000E-03 0.  1.
         11    1    4    4    0    0  0.43233698953E-01  0.27353529668E-01  0.49903233034E-01  0.71470008386E-01  0.51100000000E-03 0. -1.
</event>
<event>
 8    1  0.1183092E+005  0.1043930E+01  0.7957747E-01            NaN
         13   -1    0    0    0    0  0.00000000000E+00  0.00000000000E+00  0.74505805969E-08  0.10566000000E+00  0.10566000000E+00 0. -1.
     999900   -1    0    0    0    0 -0.00000000000E+00 -0.00000000000E+00 -0.74505805969E-08  0.93827000000E+00  0.93827000000E+00 0.  1.
     999902    2    1    2    0    0 -0.20834039030E-02 -0.87079583916E-02  0.22158563749E-01  0.10200308147E+01  0.10197507989E+01 0.  0.
     999903    2    3    3    0    0  0.57584632838E-02 -0.10868820048E+00 -0.67786008075E-01  0.12977940655E+00  0.20036632751E-01 0.  0.
         14    1    1    2    0    0  0.20834039030E-02  0.87079583916E-02 -0.22158563749E-01  0.23899185312E-01  0.00000000000E+00 0.  1.
     999901    1    3    3    0    0 -0.78418671869E-02  0.99980242084E-01  0.89944571824E-01  0.89025140814E+00  0.88000000000E+00 0. -1.
        -11    1    4    4    0    0 -0.15876434215E-02 -0.64143083127E-01 -0.49618100143E-01  0.81111483204E-01  0.51100000000E-03 0. -1.
         11    1    4    4    0    0  0.73461067053E-02 -0.44545117349E-01 -0.18167907932E-01  0.48667923348E-01  0.51100000000E-03 0.  1.
</event>
<event>
 8    1  0.1183092E+005  0.1043930E+01  0.7957747E-01            NaN
         13   -1    0    0    0    0  0.00000000000E+00  0.00000000000E+00  0.74505805969E-08  0.10566000000E+00  0.10566000000E+00 0.  1.
     999900   -1    0    0    0    0 -0.00000000000E+00 -0.00000000000E+00 -0.74505805969E-08  0.93827000000E+00  0.93827000000E+00 0. -1.
     999902    2    1    2    0    0 -0.67275543484E-02 -0.56657567844E-02  0.22523913480E-01  0.10197496885E+01  0.10194629663E+01 0.  0.
     999903    2    3    3    0    0 -0.81680511786E-01 -0.10045954395E+00 -0.46452175976E-02  0.13107541203E+00  0.19883651971E-01 0.  0.
         14    1    1    2    0    0  0.67275543484E-02  0.56657567844E-02 -0.22523913480E-01  0.24180311534E-01  0.00000000000E+00 0. -1.
     999901    1    3    3    0    0  0.74952957437E-01  0.94793787168E-01  0.27169131077E-01  0.88867427644E+00  0.88000000000E+00 0.  1.
        -11    1    4    4    0    0 -0.19412738800E-01 -0.34572553164E-01  0.47342572112E-02  0.39934824056E-01  0.51100000000E-03 0. -1.
         11    1    4    4    0    0 -0.62267772985E-01 -0.65886990788E-01 -0.93794748088E-02  0.91140587975E-01  0.51100000000E-03 0.  1.
</event>
<event>
 8    1  0.1183092E+005  0.1043930E+01  0.7957747E-01            NaN
         13   -1    0    0    0    0  0.00000000000E+00  0.00000000000E+00  0.74505805969E-08  0.10566000000E+00  0.10566000000E+00 0.  1.
     999900   -1    0    0    0    0 -0.00000000000E+00 -0.00000000000E+00 -0.74505805969E-08  0.93827000000E+00  0.93827000000E+00 0. -1.
     999902    2    1    2    0    0  0.35061019166E-02 -0.22036160564E-01  0.34351854255E-02  0.10213537819E+01  0.10211042367E+01 0.  0.
     999903    2    3    3    0    0 -0.34091903533E-01  0.74044954729E-02 -0.12449999096E+00  0.13082148516E+00  0.19923071876E-01 0.  0.
         14    1    1    2    0    0 -0.35061019166E-02  0.22036160564E-01 -0.34351854255E-02  0.22576218062E-01  0.00000000000E+00 0. -1.
     999901    1    3    3    0    0  0.37598005450E-01 -0.29440656037E-01  0.12793517638E+00  0.89053229677E+00  0.88000000000E+00 0.  1.
        -11    1    4    4    0    0 -0.85103578409E-02  0.10169258025E-02 -0.67172665567E-01  0.67719188190E-01  0.51100000000E-03 0.  1.
         11    1    4    4    0    0 -0.25581545692E-01  0.63875696704E-02 -0.57327325388E-01  0.63102296975E-01  0.51100000000E-03 0. -1.
</event>
<event>
 8    1  0.1183092E+005  0.1043930E+01  0.7957747E-01            NaN
         13   -1    0    0    0    0  0.00000000000E+00  0.00000000000E+00  0.74505805969E-08  0.10566000000E+00  0.10566000000E+00 0. -1.
     999900   -1    0    0    0    0 -0.00000000000E+00 -0.00000000000E+00 -0.74505805969E-08  0.93827000000E+00  0.93827000000E+00 0.  1.
     999902    2    1    2    0    0  0.15967278263E-01  0.14528873753E-01 -0.89996729617E-02  0.10205411937E+01  0.10202731457E+01 0.  0.
     999903    2    3    3    0    0 -0.11760907302E+00  0.28133551380E-01 -0.42384282554E-01  0.12973130317E+00  0.20258155012E-01 0.  0.
         14    1    1    2    0    0 -0.15967278263E-01 -0.14528873753E-01  0.89996729617E-02  0.23388806320E-01  0.00000000000E+00 0.  1.
     999901    1    3    3    0    0  0.13357635128E+00 -0.13604677628E-01  0.33384609592E-01  0.89080989051E+00  0.88000000000E+00 0. -1.
        -11    1    4    4    0    0 -0.25525942334E-01 -0.12062547525E-02 -0.46432167535E-02  0.25977862987E-01  0.51100000000E-03 0.  1.
         11    1    4    4    0    0 -0.92083130686E-01  0.29339806133E-01 -0.37741065800E-01  0.10375344018E+00  0.51100000000E-03 0. -1.
</event>
<event>
 8    1  0.1183092E+005  0.1043930E+01  0.7957747E-01            NaN
         13   -1    0    0    0    0  0.00000000000E+00  0.00000000000E+00  0.74505805969E-08  0.10566000000E+00  0.10566000000E+00 0.  1.
     999900   -1    0    0    0    0 -0.00000000000E+00 -0.00000000000E+00 -0.74505805969E-08  0.93827000000E+00  0.93827000000E+00 0. -1.
     999902    2    1    2    0    0 -0.34125198082E-02  0.19913963044E-01 -0.11763517680E-01  0.10205507022E+01  0.10202828746E+01 0.  0.
     999903    2    3    3    0    0 -0.80294347824E-01  0.79471315213E-01 -0.68244587848E-01  0.13339344168E+00  0.19329104437E-01 0.  0.
         14    1    1    2    0    0  0.34125198082E-02 -0.19913963044E-01  0.11763517680E-01  0.23379297761E-01  0.00000000000E+00 0.  1.
     999901    1    3    3    0    0  0.76881828016E-01 -0.59557352169E-01  0.56481070168E-01  0.88715726056E+00  0.88000000000E+00 0.  1.
        -11    1    4    4    0    0 -0.25403257640E-01  0.37465424098E-01 -0.31114939326E-01  0.54930720657E-01  0.51100000000E-03 0. -1.
         11    1    4    4    0    0 -0.54891090184E-01  0.42005891115E-01 -0.37129648522E-01  0.78462721023E-01  0.51100000000E-03 0.  1.
</event>
<event>
 8    1  0.1183092E+005  0.1043930E+01  0.7957747E-01            NaN
         13   -1    0    0    0    0  0.00000000000E+00  0.00000000000E+00  0.74505805969E-08  0.10566000000E+00  0.10566000000E+00 0. -1.
     999900   -1    0    0    0    0 -0.00000000000E+00 -0.00000000000E+00 -0.74505805969E-08  0.93827000000E+00  0.93827000000E+00 0. -1.
     999902    2    1    2    0    0 -0.15300433568E-01 -0.53409364116E-02  0.15079433944E-01  0.10217936454E+01  0.10215538339E+01 0.  0.
     999903    2    3    3    0    0 -0.63254398362E-01  0.67047415577E-01  0.95100407198E-01  0.13390682125E+00  0.19760427160E-01 0.  0.
         14    1    1    2    0    0  0.15300433568E-01  0.53409364116E-02 -0.15079433944E-01  0.22136354650E-01  0.00000000000E+00 0. -1.
     999901    1    3    3    0    0  0.47953964795E-01 -0.72388351988E-01 -0.80020973254E-01  0.88788682410E+00  0.88000000000E+00 0. -1.
        -11    1    4    4    0    0 -0.26029600036E-01  0.29749131299E-01  0.54770264147E-01  0.67546975112E-01  0.51100000000E-03 0. -1.
         11    1    4    4    0    0 -0.37224798327E-01  0.37298284278E-01  0.40330143051E-01  0.66359846142E-01  0.51100000000E-03 0.  1.
</event>
<event>
 8    1  0.1183092E+005  0.1043930E+01  0.7957747E-01            NaN
         13   -1    0    0    0    0  0.00000000000E+00  0.00000000000E+00  0.74505805969E-08  0.10566000000E+00  0.10566000000E+00 0.  1.
     999900   -1    0    0    0    0 -0.00000000000E+00 -0.00000000000E+00 -0.74505805969E-08  0.93827000000E+00  0.93827000000E+00 0. -1.
     999902    2    1    2    0    0 -0.61670922092E-02 -0.51620963541E-02  0.21538166756E-01  0.10209392868E+01  0.10206803880E+01 0.  0.
     999903    2    3    3    0    0 -0.50424320700E-01  0.90144979629E-01  0.80763581273E-01  0.13271083044E+00  0.20510460404E-01 0.  0.
         14    1    1    2    0    0  0.61670922092E-02  0.51620963541E-02 -0.21538166756E-01  0.22990713175E-01  0.00000000000E+00 0. -1.
     999901    1    3    3    0    0  0.44257228490E-01 -0.95307075983E-01 -0.59225414517E-01  0.88822845638E+00  0.88000000000E+00 0.  1.
        -11    1    4    4    0    0 -0.33028691411E-01  0.70790573542E-01  0.68672535628E-01  0.10401143221E+00  0.51100000000E-03 0.  1.
         11    1    4    4    0    0 -0.17395629288E-01  0.19354406087E-01  0.12091045645E-01  0.28699398236E-01  0.51100000000E-03 0. -1.
</event>
<event>
 8    1  0.1183092E+005  0.1043930E+01  0.7957747E-01            NaN
         13   -1    0    0    0    0  0.00000000000E+00  0.00000000000E+00  0.74505805969E-08  0.10566000000E+00  0.10566000000E+00 0. -1.
     999900   -1    0    0    0    0 -0.00000000000E+00 -0.00000000000E+00 -0.74505805969E-08  0.93827000000E+00  0.93827000000E+00 0. -1.
     999902    2    1    2    0    0 -0.11448912685E-01 -0.22946759196E-01 -0.39910541578E-02  0.10179769680E+01  0.10176460816E+01 0.  0.
     999903    2    3    3    0    0  0.58761119052E-01 -0.31629539024E-02  0.11109193826E+00  0.12749117769E+00  0.21206325760E-01 0.  0.
         14    1    1    2    0    0  0.11448912685E-01  0.22946759196E-01  0.39910541578E-02  0.25953032049E-01  0.00000000000E+00 0. -1.
     999901    1    3    3    0    0 -0.70210031736E-01 -0.19783805294E-01 -0.11508299242E+00  0.89048579026E+00  0.88000000000E+00 0. -1.
        -11    1    4    4    0    0  0.43342873182E-01  0.20588631073E-02  0.61314207335E-01  0.75116820454E-01  0.51100000000E-03 0.  1.
         11    1    4    4    0    0  0.15418245869E-01 -0.52218170096E-02  0.49777730930E-01  0.52374357238E-01  0.51100000000E-03 0. -1.
</event>
<event>
 8    1  0.1183092E+005  0.1043930E+01  0.7957747E-01            NaN
         13   -1    0    0    0    0  0.00000000000E+00  0.00000000000E+00  0.74505805969E-08  0.10566000000E+00  0.10566000000E+00 0.  1.
     999900   -1    0    0    0    0 -0.00000000000E+00 -0.00000000000E+00 -0.74505805969E-08  0.93827000000E+00  0.93827000000E+00 0. -1.
     999902    2    1    2    0    0 -0.22814439491E-01  0.10792956304E-01 -0.13010569152E-02  0.10186578947E+01  0.10183443559E+01 0.  0.
     999903    2    3    3    0    0 -0.15841352880E-01 -0.11622245645E+00 -0.47886057549E-01  0.12829184569E+00  0.20177098917E-01 0.  0.
         14    1    1    2    0    0  0.22814439491E-01 -0.10792956304E-01  0.13010569152E-02  0.25272105258E-01  0.00000000000E+00 0. -1.
     999901    1    3    3    0    0 -0.69730866111E-02  0.12701541275E+00  0.46585000634E-01  0.89036604905E+00  0.88000000000E+00 0.  1.
        -11    1    4    4    0    0 -0.19366736592E-01 -0.73702739791E-01 -0.27647561004E-01  0.81066719986E-01  0.51100000000E-03 0. -1.
         11    1    4    4    0    0  0.35253837115E-02 -0.42519716655E-01 -0.20238496545E-01  0.47225125708E-01  0.51100000000E-03 0.  1.
</event>
<event>
 8    1  0.1183092E+005  0.1043930E+01  0.7957747E-01            NaN
         13   -1    0    0    0    0  0.00000000000E+00  0.00000000000E+00  0.74505805969E-08  0.10566000000E+00  0.10566000000E+00 0. -1.
     999900   -1    0    0    0    0 -0.00000000000E+00 -0.00000000000E+00 -0.74505805969E-08  0.93827000000E+00  0.93827000000E+00 0.  1.
     999902    2    1    2    0    0  0.51343367729E-02  0.23995974728E-01 -0.53640645676E-02  0.10188114529E+01  0.10185017601E+01 0.  0.
     999903    2    3    3    0    0  0.98876698714E-02  0.10614264650E+00  0.74282456152E-01  0.13139146325E+00  0.19539854181E-01 0.  0.
         14    1    1    2    0    0 -0.51343367729E-02 -0.23995974728E-01  0.53640645676E-02  0.25118547051E-01  0.00000000000E+00 0. -1.
     999901    1    3    3    0    0 -0.47533330985E-02 -0.82146671771E-01 -0.79646520719E-01  0.88741998970E+00  0.88000000000E+00 0.  1.
        -11    1    4    4    0    0 -0.59086485923E-02  0.33940381422E-01  0.24522227296E-01  0.42290216029E-01  0.51100000000E-03 0.  1.
         11    1    4    4    0    0  0.15796318464E-01  0.72202265077E-01  0.49760228856E-01  0.89101247219E-01  0.51100000000E-03 0. -1.
</event>
<event>
 8    1  0.1183092E+005  0.1043930E+01  0.7957747E-01            NaN
         13   -1    0    0    0    0  0.00000000000E+00  0.00000000000E+00  0.74505805969E-08  0.10566000000E+00  0.10566000000E+00 0.  1.
     999900   -1    0    0    0    0 -0.00000000000E+00 -0.00000000000E+00 -0.74505805969E-08  0.93827000000E+00  0.93827000000E+00 0. -1.
     999902    2    1    2    0    0 -0.82532768692E-03  0.19389771569E-01 -0.15636283886E-01  0.10190073641E+01  0.10187025426E+01 0.  0.
     999903    2    3    3    0    0 -0.12269942984E+00  0.37553727550E-01  0.76701862342E-02  0.13011680973E+00  0.20152416265E-01 0.  0.
         14    1    1    2    0    0  0.82532768692E-03 -0.19389771569E-01  0.15636283886E-01  0.24922635917E-01  0.00000000000E+00 0.  1.
     999901    1    3    3    0    0  0.12187410215E+00 -0.18163955981E-01 -0.23306470120E-01  0.88889055436E+00  0.88000000000E+00 0.  1.
        -11    1    4    4    0    0 -0.10832056235E+00  0.39055201413E-01  0.41178963719E-02  0.11522096674E+00  0.51100000000E-03 0. -1.
         11    1    4    4    0    0 -0.14378867492E-01 -0.15014738635E-02  0.35522898623E-02  0.14895842990E-01  0.51100000000E-03 0.  1.
</event>
<event>
 8    1  0.1183092E+005  0.1043930E+01  0.7957747E-01            NaN
         13   -1    0    0    0    0  0.00000000000E+00  0.00000000000E+00  0.74505805969E-08  0.10566000000E+00  0.10566000000E+00 0. -1.
     999900   -1    0    0    0    0 -0.00000000000E+00 -0.00000000000E+00 -0.74505805969E-08  0.93827000000E+00  0.93827000000E+00 0. -1.
     999902    2    1    2    0    0 -0.23963479277E-05  0.18611212300E-01 -0.16041864360E-01  0.10193593134E+01  0.10190631438E+01 0.  0.
     999903    2    3    3    0    0 -0.44912499685E-01 -0.30166880095E-01 -0.11766803710E+00  0.13103274130E+00  0.19915799126E-01 0.  0.
         14    1    1    2    0    0  0.23963479277E-05 -0.18611212300E-01  0.16041864360E-01  0.24570686624E-01  0.00000000000E+00 0. -1.
     999901    1    3    3    0    0  0.44910103337E-01  0.48778092395E-01  0.10162617274E+00  0.88832657208E+00  0.88000000000E+00 0.  1.
        -11    1    4    4    0    0 -0.11420885017E-01 -0.17298526522E-01 -0.55579435048E-01  0.59321247084E-01  0.51100000000E-03 0. -1.
         11    1    4    4    0    0 -0.33491614668E-01 -0.12868353573E-01 -0.62088602048E-01  0.71711494211E-01  0.51100000000E-03 0.  1.
</event>
<event>
 8    1  0.1183092E+005  0.1043930E+01  0.7957747E-01            NaN
         13   -1    0    0    0    0  0.00000000000E+00  0.00000000000E+00  0.74505805969E-08  0.10566000000E+00  0.10566000000E+00 0.  1.
     999900   -1    0    0    0    0 -0.00000000000E+00 -0.00000000000E+00 -0.74505805969E-08  0.93827000000E+00  0.93827000000E+00 0.  1.
     999902    2    1    2    0    0 -0.79997174927E-02 -0.16511508020E-01 -0.76804414111E-02  0.10240399382E+01  0.10238467564E+01 0.  0.
     999903    2    3    3    0    0 -0.85588169538E-01 -0.10003994196E+00 -0.30045896616E-01  0.13640421297E+00  0.19236129060E-01 0.  0.
         14    1    1    2    0    0  0.79997174927E-02  0.16511508020E-01  0.76804414111E-02  0.19890061773E-01  0.00000000000E+00 0.  1.
     999901    1    3    3    0    0  0.77588452045E-01  0.83528433935E-01  0.22365455205E-01  0.88763572526E+00  0.88000000000E+00 0.  1.
        -11    1    4    4    0    0 -0.46268917702E-01 -0.47913287434E-01 -0.24116584531E-01  0.70840430747E-01  0.51100000000E-03 0.  1.
         11    1    4    4    0    0 -0.39319251836E-01 -0.52126654522E-01 -0.59293120855E-02  0.65563782223E-01  0.51100000000E-03 0. -1.
</event>
<event>
 8    1  0.1183092E+005  0.1043930E+01  0.7957747E-01            NaN
         13   -1    0    0    0    0  0.00000000000E+00  0.00000000000E+00  0.74505805969E-08  0.10566000000E+00  0.10566000000E+00 0. -1.
     999900   -1    0    0    0    0 -0.00000000000E+00 -0.00000000000E+00 -0.74505805969E-08  0.93827000000E+00  0.93827000000E+00 0. -1.
     999902    2    1    2    0    0 -0.77370853179E-02  0.12602037961E-01  0.18110185283E-01  0.10205493956E+01  0.10202815377E+01 0.  0.
     999903    2    3    3    0    0 -0.14137728558E-01  0.12615587657E+00 -0.29663674004E-01  0.13194499313E+00  0.20356008817E-01 0.  0.
         14    1    1    2    0    0  0.77370853179E-02 -0.12602037961E-01 -0.18110185283E-01  0.23380604376E-01  0.00000000000E+00 0.  1.
     999901    1    3    3    0    0  0.64006432401E-02 -0.11355383861E+00  0.47773859287E-01  0.88860440249E+00  0.88000000000E+00 0.  1.
        -11    1    4    4    0    0 -0.90923849999E-02  0.12003440321E+00 -0.25828611483E-01  0.12311907940E+00  0.51100000000E-03 0. -1.
         11    1    4    4    0    0 -0.50453435581E-02  0.61214733576E-02 -0.38350625213E-02  0.88259137334E-02  0.51100000000E-03 0.  1.
</event>
<event>
 8    1  0.1183092E+005  0.1043930E+01  0.7957747E-01            NaN
         13   -1    0    0    0    0  0.00000000000E+00  0.00000000000E+00  0.74505805969E-08  0.10566000000E+00  0.10566000000E+00 0. -1.
     999900   -1    0    0    0    0 -0.00000000000E+00 -0.00000000000E+00 -0.74505805969E-08  0.93827000000E+00  0.93827000000E+00 0.  1.
     999902    2    1    2    0    0  0.54878891315E-02  0.24171486594E-01  0.16218298301E-01  0.10143088776E+01  0.10138762687E+01 0.  0.
     999903    2    3    3    0    0 -0.12223330228E+00  0.12507631683E-01  0.10860061298E-01  0.12499596365E+00  0.20214572986E-01 0.  0.
         14    1    1    2    0    0 -0.54878891315E-02 -0.24171486594E-01 -0.16218298301E-01  0.29621122380E-01  0.00000000000E+00 0.  1.
     999901    1    3    3    0    0  0.12772119141E+00  0.11663854910E-01  0.53582370024E-02  0.88931291397E+00  0.88000000000E+00 0. -1.
        -11    1    4    4    0    0 -0.59141939904E-01  0.52030230641E-02 -0.48397550600E-02  0.59569496008E-01  0.51100000000E-03 0. -1.
         11    1    4    4    0    0 -0.63091362377E-01  0.73046086193E-02  0.15699816358E-01  0.65426467644E-01  0.51100000000E-03 0.  1.
</event>
<event>
 8    1  0.1183092E+005  0.1043930E+01  0.7957747E-01            NaN
         13   -1    0    0    0    0  0.00000000000E+00  0.00000000000E+00  0.74505805969E-08  0.10566000000E+00  0.10566000000E+00 0.  1.
     999900   -1    0    0    0    0 -0.00000000000E+00 -0.00000000000E+00 -0.74505805969E-08  0.93827000000E+00  0.93827000000E+00 0. -1.
     999902    2    1    2    0    0 -0.17932944547E-01 -0.43315298810E-02  0.16362609828E-01  0.10192705667E+01  0.10189722275E+01 0.  0.
     999903    2    3    3    0    0  0.54754297371E-01  0.11300725494E+00 -0.14469021248E-01  0.12797801368E+00  0.20008664629E-01 0.  0.
         14    1    1    2    0    0  0.17932944547E-01  0.43315298810E-02 -0.16362609828E-01  0.24659433319E-01  0.00000000000E+00 0.  1.
     999901    1    3    3    0    0 -0.72687241918E-01 -0.11733878482E+00  0.30831631075E-01  0.89129255300E+00  0.88000000000E+00 0.  1.
        -11    1    4    4    0    0  0.40186072303E-01  0.69967795541E-01 -0.17024386669E-01  0.82465166479E-01  0.51100000000E-03 0. -1.
         11    1    4    4    0    0  0.14568225068E-01  0.43039459398E-01  0.25553654210E-02  0.45512847201E-01  0.51100000000E-03 0.  1.
</event>
<event>
 8    1  0.1183092E+005  0.1043930E+01  0.7957747E-01            NaN
         13   -1    0    0    0    0  0.00000000000E+00  0.00000000000E+00  0.74505805969E-08  0.10566000000E+00  0.10566000000E+00 0.  1.
     999900   -1    0    0    0    0 -0.00000000000E+00 -0.00000000000E+00 -0.74505805969E-08  0.93827000000E+00  0.93827000000E+00 0.  1.
     999902    2    1    2    0    0 -0.31847881021E-02  0.23299533599E-01 -0.32861517065E-02  0.10201853178E+01  0.10199089531E+01 0.  0.
     999903    2    3    3    0    0  0.53050447435E-01  0.11787371624E+00  0.23550652638E-01  0.13292724268E+00  0.20160745359E-01 0.  0.
         14    1    1    2    0    0  0.31847881021E-02 -0.23299533599E-01  0.32861517065E-02  0.23744682230E-01  0.00000000000E+00 0. -1.
     999901    1    3    3    0    0 -0.56235235537E-01 -0.94574182645E-01 -0.26836804345E-01  0.88725807509E+00  0.88000000000E+00 0.  1.
        -11    1    4    4    0    0  0.37769449777E-01  0.78689801932E-01  0.64551716964E-02  0.87524548712E-01  0.51100000000E-03 0. -1.
         11    1    4    4    0    0  0.15280997658E-01  0.39183914311E-01  0.17095480942E-01  0.45402693971E-01  0.51100000000E-03 0.  1.
</event>
<event>
 8    1  0.1183092E+005  0.1043930E+01  0.7957747E-01            NaN
         13   -1    0    0    0    0  0.00000000000E+00  0.00000000000E+00  0.74505805969E-08  0.10566000000E+00  0.10566000000E+00 0.  1.
     999900   -1    0    0    0    0 -0.00000000000E+00 -0.00000000000E+00 -0.74505805969E-08  0.93827000000E+00  0.93827000000E+00 0. -1.
     999902    2    1    2    0    0  0.23220760725E-01 -0.55263636081E-03  0.82402121593E-02  0.10192843060E+01  0.10189863033E+01 0.  0.
     999903    2    3    3    0    0  0.59891331051E-01  0.72459610445E-01  0.89822957473E-01  0.13174204604E+00  0.21223485202E-01 0.  0.
         14    1    1    2    0    0 -0.23220760725E-01  0.55263636081E-03 -0.82402121593E-02  0.24645693985E-01  0.00000000000E+00 0. -1.
     999901    1    3    3    0    0 -0.36670570327E-01 -0.73012246806E-01 -0.81582745314E-01  0.88754225998E+00  0.88000000000E+00 0.  1.
        -11    1    4    4    0    0  0.23419876257E-01  0.15750613575E-01  0.34114849056E-01  0.44279300796E-01  0.51100000000E-03 0. -1.
         11    1    4    4    0    0  0.36471454795E-01  0.56708996870E-01  0.55708108417E-01  0.87462745242E-01  0.51100000000E-03 0.  1.
</event>
<event>
 8    1  0.1205468E+005  0.1043930E+01  0.7957747E-01            NaN
         13   -1    0    0    0    0  0.00000000000E+00  0.00000000000E+00  0.74505805969E-08  0.10566000000E+00  0.10566000000E+00 0. -1.
     999900   -1    0    0    0    0 -0.00000000000E+00 -0.00000000000E+00 -0.74505805969E-08  0.93827000000E+00  0.93827000000E+00 0. -1.
     999902    2    1    2    0    0  0.35601655645E-02 -0.20041654237E-01  0.13348506129E-01  0.10195881574E+01  0.10192975451E+01 0.  0.
     999903    2    3    3    0    0  0.13287331009E-01  0.11919783795E+00 -0.37905840997E-01  0.12711448162E+00  0.18345596670E-01 0.  0.
         14    1    1    2    0    0 -0.35601655645E-02  0.20041654237E-01 -0.13348506129E-01  0.24341842561E-01  0.00000000000E+00 0. -1.
     999901    1    3    3    0    0 -0.97271654442E-02 -0.13923949219E+00  0.51254347127E-01  0.89247367582E+00  0.88000000000E+00 0.  1.
        -11    1    4    4    0    0 -0.29207187897E-02  0.54471063000E-01 -0.18906952003E-01  0.57735268750E-01  0.51100000000E-03 0. -1.
         11    1    4    4    0    0  0.16208049799E-01  0.64726774954E-01 -0.18998888994E-01  0.69379212869E-01  0.51100000000E-03 0.  1.
</event>
<event>
 8    1  0.1183092E+005  0.1043930E+01  0.7957747E-01            NaN
         13   -1    0    0    0    0  0.00000000000E+00  0.00000000000E+00  0.74505805969E-08  0.10566000000E+00  0.10566000000E+00 0.  1.
     999900   -1    0    0    0    0 -0.00000000000E+00 -0.00000000000E+00 -0.74505805969E-08  0.93827000000E+00  0.93827000000E+00 0.  1.
     999902    2    1    2    0    0 -0.85944056496E-02  0.51269699549E-02 -0.21196530393E-01  0.10204898095E+01  0.10202205687E+01 0.  0.
     999903    2    3    3    0    0  0.97011388538E-01 -0.44573064913E-01  0.68411531146E-01  0.12827218924E+00  0.19381674767E-01 0.  0.
         14    1    1    2    0    0  0.85944056496E-02 -0.51269699549E-02  0.21196530393E-01  0.23440190488E-01  0.00000000000E+00 0.  1.
     999901    1    3    3    0    0 -0.10560579419E+00  0.49700034867E-01 -0.89608061540E-01  0.89221762027E+00  0.88000000000E+00 0.  1.
        -11    1    4    4    0    0  0.53957396940E-01 -0.34593690412E-01  0.36534023724E-01  0.73777504101E-01  0.51100000000E-03 0.  1.
         11    1    4    4    0    0  0.43053991598E-01 -0.99793745009E-02  0.31877507422E-01  0.54494685139E-01  0.51100000000E-03 0. -1.
</event>
<event>
 8    1  0.1183092E+005  0.1043930E+01  0.7957747E-01            NaN
         13   -1    0    0    0    0  0.00000000000E+00  0.00000000000E+00  0.74505805969E-08  0.10566000000E+00  0.10566000000E+00 0. -1.
     999900   -1    0    0    0    0 -0.00000000000E+00 -0.00000000000E+00 -0.74505805969E-08  0.93827000000E+00  0.93827000000E+00 0.  1.
     999902    2    1    2    0    0  0.18461934640E-01 -0.10893943853E-01  0.85112108702E-02  0.10208657039E+01  0.10206051262E+01 0.  0.
     999903    2    3    3    0    0  0.35855919250E-01 -0.70981370212E-01  0.10513908898E+00  0.13336922712E+00  0.20226735978E-01 0.  0.
         14    1    1    2    0    0 -0.18461934640E-01  0.10893943853E-01 -0.85112108702E-02  0.23064296083E-01  0.00000000000E+00 0.  1.
     999901    1    3    3    0    0 -0.17393984611E-01  0.60087426359E-01 -0.96627878106E-01  0.88749647680E+00  0.88000000000E+00 0.  1.
        -11    1    4    4    0    0  0.26884073866E-01 -0.35172482850E-01  0.47623465399E-01  0.65023938323E-01  0.51100000000E-03 0. -1.
         11    1    4    4    0    0  0.89718453846E-02 -0.35808887363E-01  0.57515623577E-01  0.68345288793E-01  0.51100000000E-03 0.  1.
</event>
<event>
 8    1  0.1183092E+005  0.1043930E+01  0.7957747E-01            NaN
         13   -1    0    0    0    0  0.00000000000E+00  0.00000000000E+00  0.74505805969E-08  0.10566000000E+00  0.10566000000E+00 0. -1.
     999900   -1    0    0    0    0 -0.00000000000E+00 -0.00000000000E+00 -0.74505805969E-08  0.93827000000E+00  0.93827000000E+00 0. -1.
     999902    2    1    2    0    0  0.22057491479E-01  0.77823810380E-02 -0.31821088859E-02  0.10203244032E+01  0.10200513043E+01 0.  0.
     999903    2    3    3    0    0  0.41195307301E-01  0.18484152066E-01  0.12151922014E+00  0.13126242256E+00  0.20595763953E-01 0.  0.
         14    1    1    2    0    0 -0.22057491479E-01 -0.77823810380E-02  0.31821088859E-02  0.23605596835E-01  0.00000000000E+00 0.  1.
     999901    1    3    3    0    0 -0.19137815821E-01 -0.10701771028E-01 -0.12470132902E+00  0.88906198060E+00  0.88000000000E+00 0. -1.
        -11    1    4    4    0    0  0.22970192483E-01  0.21049697734E-01  0.73360274569E-01  0.79703892774E-01  0.51100000000E-03 0. -1.
         11    1    4    4    0    0  0.18225114817E-01 -0.25655456677E-02  0.48158945566E-01  0.51558529786E-01  0.51100000000E-03 0.  1.
</event>
<event>
 8    1  0.1183092E+005  0.1043930E+01  0.7957747E-01            NaN
         13   -1    0    0    0    0  0.00000000000E+00  0.00000000000E+00  0.74505805969E-08  0.10566000000E+00  0.10566000000E+00 0. -1.
     999900   -1    0    0    0    0 -0.00000000000E+00 -0.00000000000E+00 -0.74505805969E-08  0.93827000000E+00  0.93827000000E+00 0. -1.
     999902    2    1    2    0    0  0.20203832581E-01  0.11912824211E-01 -0.50970572453E-02  0.10199281204E+01  0.10196456642E+01 0.  0.
     999903    2    3    3    0    0  0.12327354580E+00 -0.39446145564E-01  0.16954861470E-01  0.13215146117E+00  0.20595530293E-01 0.  0.
         14    1    1    2    0    0 -0.20203832581E-01 -0.11912824211E-01  0.50970572453E-02  0.24001879597E-01  0.00000000000E+00 0. -1.
     999901    1    3    3    0    0 -0.10306971322E+00  0.51358969775E-01 -0.22051918716E-01  0.88777665923E+00  0.88000000000E+00 0. -1.
        -11    1    4    4    0    0  0.66102110717E-01 -0.20262122319E-01  0.19353567274E-01  0.71797383861E-01  0.51100000000E-03 0. -1.
         11    1    4    4    0    0  0.57171435083E-01 -0.19184023244E-01 -0.23987058034E-02  0.60354077309E-01  0.51100000000E-03 0.  1.
</event>
<event>
 8    1  0.1183092E+005  0.1043930E+01  0.7957747E-01            NaN
         13   -1    0    0    0    0  0.00000000000E+00  0.00000000000E+00  0.74505805969E-08  0.10566000000E+00  0.10566000000E+00 0.  1.
     999900   -1    0    0    0    0 -0.00000000000E+00 -0.00000000000E+00 -0.74505805969E-08  0.93827000000E+00  0.93827000000E+00 0.  1.
     999902    2    1    2    0    0  0.13955900460E-01  0.74912685546E-02  0.19244791172E-01  0.10190051480E+01  0.10187002716E+01 0.  0.
     999903    2    3    3    0    0 -0.11192371360E+00 -0.57497928975E-01 -0.20907701304E-02  0.12741977391E+00  0.19962413700E-01 0.  0.
         14    1    1    2    0    0 -0.13955900460E-01 -0.74912685546E-02 -0.19244791172E-01  0.24924852045E-01  0.00000000000E+00 0.  1.
     999901    1    3    3    0    0  0.12587961406E+00  0.64989197529E-01  0.21335561302E-01  0.89158537404E+00  0.88000000000E+00 0. -1.
        -11    1    4    4    0    0 -0.84485192689E-01 -0.48889597772E-01 -0.84030150924E-02  0.97973528760E-01  0.51100000000E-03 0. -1.
         11    1    4    4    0    0 -0.27438520915E-01 -0.86083312025E-02  0.63122449620E-02  0.29446245152E-01  0.51100000000E-03 0.  1.
</event>
<event>
 8    1  0.1183092E+005  0.1043930E+01  0.7957747E-01            NaN
         13   -1    0    0    0    0  0.00000000000E+00  0.00000000000E+00  0.74505805969E-08  0.10566000000E+00  0.10566000000E+00 0. -1.
     999900   -1    0    0    0    0 -0.00000000000E+00 -0.00000000000E+00 -0.74505805969E-08  0.93827000000E+00  0.93827000000E+00 0.  1.
     999902    2    1    2    0    0  0.18901618625E-01 -0.43619701650E-02 -0.13133758955E-01  0.10205036560E+01  0.10202347368E+01 0.  0.
     999903    2    3    3    0    0 -0.11484427418E+00  0.27063372648E-01 -0.48147250449E-01  0.12915554182E+00  0.21008636441E-01 0.  0.
         14    1    1    2    0    0 -0.18901618625E-01  0.43619701650E-02  0.13133758955E-01  0.23426344031E-01  0.00000000000E+00 0.  1.
     999901    1    3    3    0    0  0.13374589281E+00 -0.31425342813E-01  0.35013491494E-01  0.89134811415E+00  0.88000000000E+00 0.  1.
        -11    1    4    4    0    0 -0.22706171553E-01  0.27787140175E-02 -0.11511350443E-02  0.22910209756E-01  0.51100000000E-03 0. -1.
         11    1    4    4    0    0 -0.92138102629E-01  0.24284658630E-01 -0.46996115405E-01  0.10624533206E+00  0.51100000000E-03 0.  1.
</event>
<event>
 8    1  0.1183092E+005  0.1043930E+01  0.7957747E-01            NaN
         13   -1    0    0    0    0  0.00000000000E+00  0.00000000000E+00  0.74505805969E-08  0.10566000000E+00  0.10566000000E+00 0. -1.
     999900   -1    0    0    0    0 -0.00000000000E+00 -0.00000000000E+00 -0.74505805969E-08  0.93827000000E+00  0.93827000000E+00 0.  1.
     999902    2    1    2    0    0 -0.20565009655E-01  0.15404850150E-02  0.11213481962E-01  0.10204558676E+01  0.10201858374E+01 0.  0.
     999903    2    3    3    0    0 -0.21324575959E-01  0.16613208871E-01  0.12830270584E+00  0.13257206306E+00  0.19571186164E-01 0.  0.
         14    1    1    2    0    0  0.20565009655E-01 -0.15404850150E-02 -0.11213481962E-01  0.23474132442E-01  0.00000000000E+00 0.  1.
     999901    1    3    3    0    0  0.75956630436E-03 -0.15072723856E-01 -0.11708922388E+00  0.88788380450E+00  0.88000000000E+00 0.  1.
        -11    1    4    4    0    0 -0.12766910978E-01  0.27605528441E-03  0.76984069378E-01  0.78037672194E-01  0.51100000000E-03 0.  1.
         11    1    4    4    0    0 -0.85576649810E-02  0.16337153586E-01  0.51318636465E-01  0.54534390863E-01  0.51100000000E-03 0. -1.
</event>
<event>
 8    1  0.1183092E+005  0.1043930E+01  0.7957747E-01            NaN
         13   -1    0    0    0    0  0.00000000000E+00  0.00000000000E+00  0.74505805969E-08  0.10566000000E+00  0.10566000000E+00 0.  1.
     999900   -1    0    0    0    0 -0.00000000000E+00 -0.00000000000E+00 -0.74505805969E-08  0.93827000000E+00  0.93827000000E+00 0.  1.
     999902    2    1    2    0    0 -0.37382171884E-02  0.89144475678E-02  0.21586338909E-01  0.10202781149E+01  0.10200039314E+01 0.  0.
     999903    2    3    3    0    0  0.92745640651E-01 -0.97394380180E-02  0.91288446538E-01  0.13206896940E+00  0.20298317525E-01 0.  0.
         14    1    1    2    0    0  0.37382171884E-02 -0.89144475678E-02 -0.21586338909E-01  0.23651885140E-01  0.00000000000E+00 0.  1.
     999901    1    3    3    0    0 -0.96483857840E-01  0.18653885586E-01 -0.69702107629E-01  0.88820914546E+00  0.88000000000E+00 0.  1.
        -11    1    4    4    0    0  0.33309984587E-01  0.30199156805E-02  0.22744511036E-01  0.40450573138E-01  0.51100000000E-03 0.  1.
         11    1    4    4    0    0  0.59435656065E-01 -0.12759353699E-01  0.68543935502E-01  0.91618396262E-01  0.51100000000E-03 0. -1.
</event>
<event>
 8    1  0.1183092E+005  0.1043930E+01  0.7957747E-01            NaN
         13   -1    0    0    0    0  0.00000000000E+00  0.00000000000E+00  0.74505805969E-08  0.10566000000E+00  0.10566000000E+00 0.  1.
     999900   -1    0    0    0    0 -0.00000000000E+00 -0.00000000000E+00 -0.74505805969E-08  0.93827000000E+00  0.93827000000E+00 0.  1.
     999902    2    1    2    0    0  0.17774893915E-01 -0.96384199566E-02  0.11825263626E-01  0.10205060197E+01  0.10202371555E+01 0.  0.
     999903    2    3    3    0    0  0.90975630784E-02 -0.11984436521E-01 -0.12734314702E+00  0.12952417568E+00  0.18271360626E-01 0.  0.
         14    1    1    2    0    0 -0.17774893915E-01  0.96384199566E-02 -0.11825263626E-01  0.23423980293E-01  0.00000000000E+00 0.  1.
     999901    1    3    3    0    0  0.86773308362E-02  0.23460165648E-02  0.13916841065E+00  0.89098184403E+00  0.88000000000E+00 0. -1.
        -11    1    4    4    0    0 -0.30263766296E-02 -0.97368789651E-02 -0.38610167719E-01  0.39937099791E-01  0.51100000000E-03 0.  1.
         11    1    4    4    0    0  0.12123939708E-01 -0.22475575562E-02 -0.88732979304E-01  0.89587075888E-01  0.51100000000E-03 0. -1.
</event>
<event>
 8    1  0.1183092E+005  0.1043930E+01  0.7957747E-01            NaN
         13   -1    0    0    0    0  0.00000000000E+00  0.00000000000E+00  0.74505805969E-08  0.10566000000E+00  0.10566000000E+00 0.  1.
     999900   -1    0    0    0    0 -0.00000000000E+00 -0.00000000000E+00 -0.74505805969E-08  0.93827000000E+00  0.93827000000E+00 0.  1.
     999902    2    1    2    0    0 -0.80913221840E-02  0.21642093240E-01 -0.85884635552E-02  0.10192802251E+01  0.10189821225E+01 0.  0.
     999903    2    3    3    0    0 -0.24993958390E-01  0.12871497372E+00  0.12034621230E-02  0.13257498513E+00  0.19555969580E-01 0.  0.
         14    1    1    2    0    0  0.80913221840E-02 -0.21642093240E-01  0.85884635552E-02  0.24649774861E-01  0.00000000000E+00 0.  1.
     999901    1    3    3    0    0  0.16902636206E-01 -0.10707288048E+00 -0.97919256781E-02  0.88670524001E+00  0.88000000000E+00 0. -1.
        -11    1    4    4    0    0 -0.12329238990E-01  0.28531185436E-01  0.51815099805E-02  0.31514248256E-01  0.51100000000E-03 0. -1.
         11    1    4    4    0    0 -0.12664719400E-01  0.10018378828E+00 -0.39780478575E-02  0.10106073688E+00  0.51100000000E-03 0.  1.
</event>
<event>
 8    1  0.1183092E+005  0.1043930E+01  0.7957747E-01            NaN
         13   -1    0    0    0    0  0.00000000000E+00  0.00000000000E+00  0.74505805969E-08  0.10566000000E+00  0.10566000000E+00 0. -1.
     999900   -1    0    0    0    0 -0.00000000000E+00 -0.00000000000E+00 -0.74505805969E-08  0.93827000000E+00  0.93827000000E+00 0.  1.
     999902    2    1    2    0    0  0.11122882212E-01 -0.78843079480E-02 -0.19062370405E-01  0.10204938146E+01  0.10202246669E+01 0.  0.
     999903    2    3    3    0    0 -0.68038187241E-01 -0.10342207555E+00  0.35026582979E-01  0.13014581812E+00  0.19640565840E-01 0.  0.
         14    1    1    2    0    0 -0.11122882212E-01  0.78843079480E-02  0.19062370405E-01  0.23436185397E-01  0.00000000000E+00 0. -1.
     999901    1    3    3    0    0  0.79161069452E-01  0.95537767599E-01 -0.54088953384E-01  0.89034799648E+00  0.88000000000E+00 0.  1.
        -11    1    4    4    0    0 -0.14292512386E-01 -0.38199952115E-01  0.12935644664E-01  0.42791404228E-01  0.51100000000E-03 0. -1.
         11    1    4    4    0    0 -0.53745674854E-01 -0.65222123432E-01  0.22090938315E-01  0.87354413896E-01  0.51100000000E-03 0.  1.
</event>
<event>
 8    1  0.1183092E+005  0.1043930E+01  0.7957747E-01            NaN
         13   -1    0    0    0    0  0.00000000000E+00  0.00000000000E+00  0.74505805969E-08  0.10566000000E+00  0.10566000000E+00 0. -1.
     999900   -1    0    0    0    0 -0.00000000000E+00 -0.00000000000E+00 -0.74505805969E-08  0.93827000000E+00  0.93827000000E+00 0. -1.
     999902    2    1    2    0    0  0.23267692744E-01 -0.10892432074E-01 -0.80386309385E-02  0.10170106726E+01  0.10166543454E+01 0.  0.
     999903    2    3    3    0    0  0.49990282656E-01 -0.11678728022E+00  0.17504715582E-01  0.12989158348E+00  0.20666669031E-01 0.  0.
         14    1    1    2    0    0 -0.23267692744E-01  0.10892432074E-01  0.80386309385E-02  0.26919327433E-01  0.00000000000E+00 0.  1.
     999901    1    3    3    0    0 -0.26722589912E-01  0.10589484815E+00 -0.25543346520E-01  0.88711908909E+00  0.88000000000E+00 0.  1.
        -11    1    4    4    0    0  0.14136701108E-01 -0.14452812528E-01  0.14585553811E-02  0.20276060095E-01  0.51100000000E-03 0.  1.
         11    1    4    4    0    0  0.35853581548E-01 -0.10233446769E+00  0.16046160201E-01  0.10961552338E+00  0.51100000000E-03 0. -1.
</event>
<event>
 8    1  0.1183092E+005  0.1043930E+01  0.7957747E-01            NaN
         13   -1    0    0    0    0  0.00000000000E+00  0.00000000000E+00  0.74505805969E-08  0.10566000000E+00  0.10566000000E+00 0.  1.
     999900   -1    0    0    0    0 -0.00000000000E+00 -0.00000000000E+00 -0.74505805969E-08  0.93827000000E+00  0.93827000000E+00 0.  1.
     999902    2    1    2    0    0 -0.17064039664E-01 -0.15518116397E-01 -0.37407544018E-02  0.10205636432E+01  0.10202961155E+01 0.  0.
     999903    2    3    3    0    0  0.98530018879E-01 -0.40876548662E-01  0.70648345698E-01  0.12953122255E+00  0.20201287435E-01 0.  0.
         14    1    1    2    0    0  0.17064039664E-01  0.15518116397E-01  0.37407544018E-02  0.23366356791E-01  0.00000000000E+00 0. -1.
     999901    1    3    3    0    0 -0.11559405854E+00  0.25358432265E-01 -0.74389100100E-01  0.89103242066E+00  0.88000000000E+00 0.  1.
        -11    1    4    4    0    0  0.86193030500E-01 -0.41171498106E-01  0.57509845336E-01  0.11149876320E+00  0.51100000000E-03 0. -1.
         11    1    4    4    0    0  0.12336988378E-01  0.29494944403E-03  0.13138500362E-01  0.18032459350E-01  0.51100000000E-03 0.  1.
</event>
<event>
 8    1  0.1183092E+005  0.1043930E+01  0.7957747E-01            NaN
         13   -1    0    0    0    0  0.00000000000E+00  0.00000000000E+00  0.74505805969E-08  0.10566000000E+00  0.10566000000E+00 0.  1.
     999900   -1    0    0    0    0 -0.00000000000E+00 -0.00000000000E+00 -0.74505805969E-08  0.93827000000E+00  0.93827000000E+00 0. -1.
     999902    2    1    2    0    0 -0.13267916118E-01 -0.13808799597E-01  0.80391958029E-02  0.10231610517E+01  0.10229502375E+01 0.  0.
     999903    2    3    3    0    0  0.92973485279E-01  0.71087988324E-01 -0.54319465385E-01  0.13053386043E+00  0.19771528758E-01 0.  0.
         14    1    1    2    0    0  0.13267916118E-01  0.13808799597E-01 -0.80391958029E-02  0.20768948302E-01  0.00000000000E+00 0. -1.
     999901    1    3    3    0    0 -0.10624140140E+00 -0.84896787921E-01  0.62358661188E-01  0.89262719127E+00  0.88000000000E+00 0. -1.
        -11    1    4    4    0    0  0.38975333114E-01  0.34216334914E-01 -0.34175943133E-01  0.62113528127E-01  0.51100000000E-03 0. -1.
         11    1    4    4    0    0  0.53998152165E-01  0.36871653410E-01 -0.20143522252E-01  0.68420332300E-01  0.51100000000E-03 0.  1.
</event>
<event>
 8    1  0.1183092E+005  0.1043930E+01  0.7957747E-01            NaN
         13   -1    0    0    0    0  0.00000000000E+00  0.00000000000E+00  0.74505805969E-08  0.10566000000E+00  0.10566000000E+00 0. -1.
     999900   -1    0    0    0    0 -0.00000000000E+00 -0.00000000000E+00 -0.74505805969E-08  0.93827000000E+00  0.93827000000E+00 0. -1.
     999902    2    1    2    0    0  0.19964239277E-01 -0.40673897722E-02 -0.12429269572E-01  0.10200636796E+01  0.10197844425E+01 0.  0.
     999903    2    3    3    0    0 -0.46282121653E-02  0.43566038968E-02  0.12712471764E+00  0.12868773884E+00  0.18958901537E-01 0.  0.
         14    1    1    2    0    0 -0.19964239277E-01  0.40673897722E-02  0.12429269572E-01  0.23866320444E-01  0.00000000000E+00 0. -1.
     999901    1    3    3    0    0  0.24592451442E-01 -0.84239936690E-02 -0.13955398721E+00  0.89137594071E+00  0.88000000000E+00 0. -1.
        -11    1    4    4    0    0  0.33594737416E-02  0.31258932671E-02  0.10542735995E+00  0.10552841617E+00  0.51100000000E-03 0. -1.
         11    1    4    4    0    0 -0.79876859068E-02  0.12307106297E-02  0.21697357696E-01  0.23159322675E-01  0.51100000000E-03 0.  1.
</event>
<event>
 8    1  0.1183092E+005  0.1043930E+01  0.7957747E-01            NaN
         13   -1    0    0    0    0  0.00000000000E+00  0.00000000000E+00  0.74505805969E-08  0.10566000000E+00  0.10566000000E+00 0. -1.
     999900   -1    0    0    0    0 -0.00000000000E+00 -0.00000000000E+00 -0.74505805969E-08  0.93827000000E+00  0.93827000000E+00 0. -1.
     999902    2    1    2    0    0 -0.42963666174E-03 -0.99530694326E-02  0.22947938271E-01  0.10189128849E+01  0.10186057191E+01 0.  0.
     999903    2    3    3    0    0  0.49352908459E-01  0.36751298084E-01 -0.10854663929E+00  0.12652820118E+00  0.20991553266E-01 0.  0.
         14    1    1    2    0    0  0.42963666174E-03  0.99530694326E-02 -0.22947938271E-01  0.25017115135E-01  0.00000000000E+00 0.  1.
     999901    1    3    3    0    0 -0.49782545121E-01 -0.46704367516E-01  0.13149457756E+00  0.89238468368E+00  0.88000000000E+00 0.  1.
        -11    1    4    4    0    0  0.75007960269E-02  0.21633919400E-02 -0.30260493661E-01  0.31255412385E-01  0.51100000000E-03 0.  1.
         11    1    4    4    0    0  0.41852112432E-01  0.34587906144E-01 -0.78286145631E-01  0.95272788797E-01  0.51100000000E-03 0. -1.
</event>
<event>
 8    1  0.1183092E+005  0.1043930E+01  0.7957747E-01            NaN
         13   -1    0    0    0    0  0.00000000000E+00  0.00000000000E+00  0.74505805969E-08  0.10566000000E+00  0.10566000000E+00 0.  1.
     999900   -1    0    0    0    0 -0.00000000000E+00 -0.00000000000E+00 -0.74505805969E-08  0.93827000000E+00  0.93827000000E+00 0. -1.
     999902    2    1    2    0    0  0.16213234873E-01  0.74876293214E-02  0.14176835690E-01  0.10211283280E+01  0.10208737169E+01 0.  0.
     999903    2    3    3    0    0 -0.27202038605E-03  0.12882495041E+00 -0.20398846186E-01  0.13197705460E+00  0.20146666556E-01 0.  0.
         14    1    1    2    0    0 -0.16213234873E-01 -0.74876293214E-02 -0.14176835690E-01  0.22801672046E-01  0.00000000000E+00 0. -1.
     999901    1    3    3    0    0  0.16485255259E-01 -0.12133732108E+00  0.34575681876E-01  0.88915127335E+00  0.88000000000E+00 0.  1.
        -11    1    4    4    0    0 -0.96786837864E-02  0.64787966771E-01 -0.13486837474E-01  0.66882833854E-01  0.51100000000E-03 0. -1.
         11    1    4    4    0    0  0.94066634004E-02  0.64036983634E-01 -0.69120087115E-02  0.65094220747E-01  0.51100000000E-03 0.  1.
</event>
<event>
 8    1  0.1183092E+005  0.1043930E+01  0.7957747E-01            NaN
         13   -1    0    0    0    0  0.00000000000E+00  0.00000000000E+00  0.74505805969E-08  0.10566000000E+00  0.10566000000E+00 0.  1.
     999900   -1    0    0    0    0 -0.00000000000E+00 -0.00000000000E+00 -0.74505805969E-08  0.93827000000E+00  0.93827000000E+00 0.  1.
     999902    2    1    2    0    0 -0.13222556626E-02 -0.19063994665E-01 -0.18171192669E-01  0.10175600077E+01  0.10172182621E+01 0.  0.
     999903    2    3    3    0    0  0.34756615505E-01 -0.15719635818E-01 -0.12321422910E+00  0.13057246030E+00  0.20304971443E-01 0.  0.
         14    1    1    2    0    0  0.13222556626E-02  0.19063994665E-01  0.18171192669E-01  0.26369992333E-01  0.00000000000E+00 0.  1.
     999901    1    3    3    0    0 -0.36078871168E-01 -0.33443588475E-02  0.10504303643E+00  0.88698754737E+00  0.88000000000E+00 0. -1.
        -11    1    4    4    0    0  0.14502937040E-01  0.37420139402E-03 -0.68864713369E-01  0.70378157676E-01  0.51100000000E-03 0. -1.
         11    1    4    4    0    0  0.20253678465E-01 -0.16093837212E-01 -0.54349515728E-01  0.60194302625E-01  0.51100000000E-03 0.  1.
</event>
<event>
 8    1  0.1183092E+005  0.1043930E+01  0.7957747E-01            NaN
         13   -1    0    0    0    0  0.00000000000E+00  0.00000000000E+00  0.74505805969E-08  0.10566000000E+00  0.10566000000E+00 0. -1.
     999900   -1    0    0    0    0 -0.00000000000E+00 -0.00000000000E+00 -0.74505805969E-08  0.93827000000E+00  0.93827000000E+00 0. -1.
     999902    2    1    2    0    0 -0.15012912553E-01 -0.11314718210E-01  0.16706755340E-01  0.10187799291E+01  0.10184694487E+01 0.  0.
     999903    2    3    3    0    0  0.93098613913E-01 -0.80083482533E-01 -0.31412577312E-01  0.12819994097E+00  0.19177037456E-01 0.  0.
         14    1    1    2    0    0  0.15012912553E-01  0.11314718210E-01 -0.16706755340E-01  0.25150070885E-01  0.00000000000E+00 0.  1.
     999901    1    3    3    0    0 -0.10811152647E+00  0.68768764322E-01  0.48119332652E-01  0.89057998814E+00  0.88000000000E+00 0. -1.
        -11    1    4    4    0    0  0.74768602370E-01 -0.54833302149E-01 -0.19196394784E-01  0.94687895840E-01  0.51100000000E-03 0.  1.
         11    1    4    4    0    0  0.18330011543E-01 -0.25250180384E-01 -0.12216182528E-01  0.33512045135E-01  0.51100000000E-03 0. -1.
</event>
<event>
 8    1  0.1183092E+005  0.1043930E+01  0.7957747E-01            NaN
         13   -1    0    0    0    0  0.00000000000E+00  0.00000000000E+00  0.74505805969E-08  0.10566000000E+00  0.10566000000E+00 0. -1.
     999900   -1    0    0    0    0 -0.00000000000E+00 -0.00000000000E+00 -0.74505805969E-08  0.93827000000E+00  0.93827000000E+00 0. -1.
     999902    2    1    2    0    0 -0.17687690281E-01 -0.12737867091E-01 -0.88078534553E-02  0.10204207268E+01  0.10201498780E+01 0.  0.
     999903    2    3    3    0    0  0.60253689000E-01 -0.63691787378E-01 -0.97191289112E-01  0.13110481423E+00  0.74279752766E-02 0.  0.
         14    1    1    2    0    0  0.17687690281E-01  0.12737867091E-01  0.88078534553E-02  0.23509273234E-01  0.00000000000E+00 0. -1.
     999901    1    3    3    0    0 -0.77941379281E-01  0.50953920287E-01  0.88383435656E-01  0.88931591254E+00  0.88000000000E+00 0. -1.
        -11    1    4    4    0    0  0.20675919382E-01 -0.26987510241E-01 -0.38479581512E-01  0.51349378434E-01  0.51100000000E-03 0.  1.
         11    1    4    4    0    0  0.39577769618E-01 -0.36704277137E-01 -0.58711707600E-01  0.79755435793E-01  0.51100000000E-03 0. -1.
</event>
<event>
 8    1  0.1183092E+005  0.1043930E+01  0.7957747E-01            NaN
         13   -1    0    0    0    0  0.00000000000E+00  0.00000000000E+00  0.74505805969E-08  0.10566000000E+00  0.10566000000E+00 0. -1.
     999900   -1    0    0    0    0 -0.00000000000E+00 -0.00000000000E+00 -0.74505805969E-08  0.93827000000E+00  0.93827000000E+00 0.  1.
     999902    2    1    2    0    0 -0.90439176449E-03 -0.20474398613E-01 -0.11986293938E-01  0.10201878399E+01  0.10199115347E+01 0.  0.
     999903    2    3    3    0    0 -0.11308278435E-02  0.10279380168E+00  0.72685911049E-01  0.12757119052E+00  0.20574803820E-01 0.  0.
         14    1    1    2    0    0  0.90439176449E-03  0.20474398613E-01  0.11986293938E-01  0.23742160083E-01  0.00000000000E+00 0. -1.
     999901    1    3    3    0    0  0.22643607904E-03 -0.12326820029E+00 -0.84672204987E-01  0.89261664939E+00  0.88000000000E+00 0.  1.
        -11    1    4    4    0    0  0.21235452662E-02  0.30370471209E-01  0.10979821329E-01  0.32368079389E-01  0.51100000000E-03 0.  1.
         11    1    4    4    0    0 -0.32543731097E-02  0.72423330467E-01  0.61706089720E-01  0.95203111135E-01  0.51100000000E-03 0. -1.
</event>
<event>
 8    1  0.1432171E+005  0.1043930E+01  0.7957747E-01            NaN
         13   -1    0    0    0    0  0.00000000000E+00  0.00000000000E+00  0.74505805969E-08  0.10566000000E+00  0.10566000000E+00 0. -1.
     999900   -1    0    0    0    0 -0.00000000000E+00 -0.00000000000E+00 -0.74505805969E-08  0.93827000000E+00  0.93827000000E+00 0.  1.
     999902    2    1    2    0    0  0.23822266459E-01  0.34415109165E-02  0.28150778163E-02  0.10196963655E+01  0.10194083622E+01 0.  0.
     999903    2    3    3    0    0 -0.75326093433E-02 -0.67305387039E-02 -0.12759318484E+00  0.12947565481E+00  0.19541852939E-01 0.  0.
         14    1    1    2    0    0 -0.23822266459E-01 -0.34415109165E-02 -0.28150778163E-02  0.24233634472E-01  0.00000000000E+00 0. -1.
     999901    1    3    3    0    0  0.31354875802E-01  0.10172049620E-01  0.13040826265E+00  0.89022071072E+00  0.88000000000E+00 0. -1.
        -11    1    4    4    0    0  0.89563762600E-03  0.55307908204E-02 -0.59957839811E-01  0.60221221257E-01  0.51100000000E-03 0. -1.
         11    1    4    4    0    0 -0.84282469693E-02 -0.12261329524E-01 -0.67635345024E-01  0.69254433549E-01  0.51100000000E-03 0.  1.
</event>
<event>
 8    1  0.1183092E+005  0.1043930E+01  0.7957747E-01            NaN
         13   -1    0    0    0    0  0.00000000000E+00  0.00000000000E+00  0.74505805969E-08  0.10566000000E+00  0.10566000000E+00 0. -1.
     999900   -1    0    0    0    0 -0.00000000000E+00 -0.00000000000E+00 -0.74505805969E-08  0.93827000000E+00  0.93827000000E+00 0. -1.
     999902    2    1    2    0    0  0.23414606153E-02 -0.22619525618E-01 -0.40311137320E-02  0.10208350816E+01  0.10205738036E+01 0.  0.
     999903    2    3    3    0    0 -0.11076774738E+00  0.63611613294E-01  0.31096635388E-02  0.12938654528E+00  0.20378343564E-01 0.  0.
         14    1    1    2    0    0 -0.23414606153E-02  0.22619525618E-01  0.40311137320E-02  0.23094918379E-01  0.00000000000E+00 0. -1.
     999901    1    3    3    0    0  0.11310920799E+00 -0.86231138912E-01 -0.71407772709E-02  0.89144853634E+00  0.88000000000E+00 0. -1.
        -11    1    4    4    0    0 -0.81250337709E-01  0.56480771087E-01  0.34362186743E-02  0.99013956593E-01  0.51100000000E-03 0. -1.
         11    1    4    4    0    0 -0.29517409668E-01  0.71308422074E-02 -0.32655513541E-03  0.30372588684E-01  0.51100000000E-03 0.  1.
</event>
<event>
 8    1  0.1183092E+005  0.1043930E+01  0.7957747E-01            NaN
         13   -1    0    0    0    0  0.00000000000E+00  0.00000000000E+00  0.74505805969E-08  0.10566000000E+00  0.10566000000E+00 0. -1.
     999900   -1    0    0    0    0 -0.00000000000E+00 -0.00000000000E+00 -0.74505805969E-08  0.93827000000E+00  0.93827000000E+00 0. -1.
     999902    2    1    2    0    0 -0.24229930158E-02  0.22330302868E-01  0.58686479142E-02  0.10207146096E+01  0.10204505671E+01 0.  0.
     999903    2    3    3    0    0 -0.10529001401E+00 -0.43488168982E-01  0.60265998857E-01  0.13061755480E+00  0.21254343339E-01 0.  0.
         14    1    1    2    0    0  0.24229930158E-02 -0.22330302868E-01 -0.58686479142E-02  0.23215390362E-01  0.00000000000E+00 0.  1.
     999901    1    3    3    0    0  0.10286702100E+00  0.65818471850E-01 -0.54397350943E-01  0.89009705484E+00  0.88000000000E+00 0. -1.
        -11    1    4    4    0    0 -0.39255938383E-01 -0.15966867800E-01  0.34254675500E-01  0.54494160057E-01  0.51100000000E-03 0. -1.
         11    1    4    4    0    0 -0.66034075631E-01 -0.27521301182E-01  0.26011323357E-01  0.76123394741E-01  0.51100000000E-03 0.  1.
</event>
<event>
 8    1  0.1183092E+005  0.1043930E+01  0.7957747E-01            NaN
         13   -1    0    0    0    0  0.00000000000E+00  0.00000000000E+00  0.74505805969E-08  0.10566000000E+00  0.10566000000E+00 0. -1.
     999900   -1    0    0    0    0 -0.00000000000E+00 -0.00000000000E+00 -0.74505805969E-08  0.93827000000E+00  0.93827000000E+00 0. -1.
     999902    2    1    2    0    0  0.11970302411E-01 -0.20375817933E-01 -0.17302281749E-03  0.10202975640E+01  0.10200238365E+01 0.  0.
     999903    2    3    3    0    0  0.10086136695E-01  0.12528293426E+00  0.16014508976E-01  0.12817534231E+00  0.19362595586E-01 0.  0.
         14    1    1    2    0    0 -0.11970302411E-01  0.20375817933E-01  0.17302281749E-03  0.23632436039E-01  0.00000000000E+00 0. -1.
     999901    1    3    3    0    0  0.18841657158E-02 -0.14565875220E+00 -0.16187531794E-01  0.89212222165E+00  0.88000000000E+00 0. -1.
        -11    1    4    4    0    0  0.22122702681E-02  0.10748385467E+00  0.10991787820E-01  0.10806828246E+00  0.51100000000E-03 0.  1.
         11    1    4    4    0    0  0.78738664270E-02  0.17799079600E-01  0.50227211563E-02  0.20107059853E-01  0.51100000000E-03 0. -1.
</event>
<event>
 8    1  0.1183092E+005  0.1043930E+01  0.7957747E-01            NaN
         13   -1    0    0    0    0  0.00000000000E+00  0.00000000000E+00  0.74505805969E-08  0.10566000000E+00  0.10566000000E+00 0.  1.
     999900   -1    0    0    0    0 -0.00000000000E+00 -0.00000000000E+00 -0.74505805969E-08  0.93827000000E+00  0.93827000000E+00 0.  1.
     999902    2    1    2    0    0  0.91924405479E-02 -0.19344635855E-01  0.14716757744E-01  0.10179434870E+01  0.10176117353E+01 0.  0.
     999903    2    3    3    0    0  0.11729396328E+00 -0.53734776268E-01  0.33672164878E-02  0.13058931134E+00  0.19923104299E-01 0.  0.
         14    1    1    2    0    0 -0.91924405479E-02  0.19344635855E-01 -0.14716757744E-01  0.25986513003E-01  0.00000000000E+00 0. -1.
     999901    1    3    3    0    0 -0.10810152274E+00  0.34390140413E-01  0.11349541256E-01  0.88735417566E+00  0.88000000000E+00 0. -1.
        -11    1    4    4    0    0  0.58809199280E-01 -0.20016933645E-01  0.93091821339E-02  0.62818162544E-01  0.51100000000E-03 0. -1.
         11    1    4    4    0    0  0.58484764005E-01 -0.33717842623E-01 -0.59419656461E-02  0.67771148792E-01  0.51100000000E-03 0.  1.
</event>
<event>
 8    1  0.1183092E+005  0.1043930E+01  0.7957747E-01            NaN
         13   -1    0    0    0    0  0.00000000000E+00  0.00000000000E+00  0.74505805969E-08  0.10566000000E+00  0.10566000000E+00 0. -1.
     999900   -1    0    0    0    0 -0.00000000000E+00 -0.00000000000E+00 -0.74505805969E-08  0.93827000000E+00  0.93827000000E+00 0. -1.
     999902    2    1    2    0    0 -0.17475486909E-01  0.14411105000E-01  0.88596023167E-02  0.10196078878E+01  0.10193177521E+01 0.  0.
     999903    2    3    3    0    0 -0.64867856722E-01 -0.33020584415E-01  0.10762737618E+00  0.13154771243E+00  0.20565765530E-01 0.  0.
         14    1    1    2    0    0  0.17475486909E-01 -0.14411105000E-01 -0.88596023167E-02  0.24322112228E-01  0.00000000000E+00 0.  1.
     999901    1    3    3    0    0  0.47392369813E-01  0.47431689415E-01 -0.98767773860E-01  0.88806017534E+00  0.88000000000E+00 0.  1.
        -11    1    4    4    0    0 -0.38790614768E-01 -0.24757511716E-01  0.51236797838E-01  0.68870289343E-01  0.51100000000E-03 0.  1.
         11    1    4    4    0    0 -0.26077241954E-01 -0.82630726983E-02  0.56390578339E-01  0.62677423086E-01  0.51100000000E-03 0. -1.
</event>
<event>
 8    1  0.1183092E+005  0.1043930E+01  0.7957747E-01            NaN
         13   -1    0    0    0    0  0.00000000000E+00  0.00000000000E+00  0.74505805969E-08  0.10566000000E+00  0.10566000000E+00 0.  1.
     999900   -1    0    0    0    0 -0.00000000000E+00 -0.00000000000E+00 -0.74505805969E-08  0.93827000000E+00  0.93827000000E+00 0.  1.
     999902    2    1    2    0    0 -0.39031828490E-02 -0.14702514470E-01 -0.18595640225E-01  0.10199050837E+01  0.10196220786E+01 0.  0.
     999903    2    3    3    0    0 -0.98221406109E-01  0.48048360187E-01  0.64957277204E-01  0.12871784774E+00  0.19817843766E-01 0.  0.
         14    1    1    2    0    0  0.39031828490E-02  0.14702514470E-01  0.18595640225E-01  0.24024916305E-01  0.00000000000E+00 0.  1.
     999901    1    3    3    0    0  0.94318223260E-01 -0.62750874657E-01 -0.83552917429E-01  0.89118723595E+00  0.88000000000E+00 0.  1.
        -11    1    4    4    0    0 -0.35062530025E-01  0.13850907933E-01  0.32999371842E-01  0.50104374314E-01  0.51100000000E-03 0. -1.
         11    1    4    4    0    0 -0.63158876084E-01  0.34197452253E-01  0.31957905362E-01  0.78613473431E-01  0.51100000000E-03 0.  1.
</event>
<event>
 8    1  0.1183092E+005  0.1043930E+01  0.7957747E-01            NaN
         13   -1    0    0    0    0  0.00000000000E+00  0.00000000000E+00  0.74505805969E-08  0.10566000000E+00  0.10566000000E+00 0.  1.
     999900   -1    0    0    0    0 -0.00000000000E+00 -0.00000000000E+00 -0.74505805969E-08  0.93827000000E+00  0.93827000000E+00 0. -1.
     999902    2    1    2    0    0  0.17625725637E-01  0.90505597715E-02 -0.10936701966E-01  0.10212983786E+01  0.10210475933E+01 0.  0.
     999903    2    3    3    0    0 -0.85939242399E-01  0.96096039174E-01  0.56448941193E-02  0.13080549969E+00  0.21405882172E-01 0.  0.
         14    1    1    2    0    0 -0.17625725637E-01 -0.90505597715E-02  0.10936701966E-01  0.22631621380E-01  0.00000000000E+00 0.  1.
     999901    1    3    3    0    0  0.10356496804E+00 -0.87045479403E-01 -0.16581596085E-01  0.89049287893E+00  0.88000000000E+00 0. -1.
        -11    1    4    4    0    0 -0.70955724013E-01  0.65297827939E-01  0.42025588889E-02  0.96521726704E-01  0.51100000000E-03 0.  1.
         11    1    4    4    0    0 -0.14983518386E-01  0.30798211235E-01  0.14423352305E-02  0.34283772990E-01  0.51100000000E-03 0. -1.
</event>
<event>
 8    1  0.1183092E+005  0.1043930E+01  0.7957747E-01            NaN
         13   -1    0    0    0    0  0.00000000000E+00  0.00000000000E+00  0.74505805969E-08  0.10566000000E+00  0.10566000000E+00 0. -1.
     999900   -1    0    0    0    0 -0.00000000000E+00 -0.00000000000E+00 -0.74505805969E-08  0.93827000000E+00  0.93827000000E+00 0. -1.
     999902    2    1    2    0    0 -0.19519361246E-01  0.47108515976E-02  0.89459443607E-02  0.10219475637E+01  0.10217111115E+01 0.  0.
     999903    2    3    3    0    0 -0.59608422891E-01  0.78554212642E-01  0.89034469912E-01  0.13432481343E+00  0.19801269314E-01 0.  0.
         14    1    1    2    0    0  0.19519361246E-01 -0.47108515976E-02 -0.89459443607E-02  0.21982436324E-01  0.00000000000E+00 0. -1.
     999901    1    3    3    0    0  0.40089061646E-01 -0.73843361045E-01 -0.80088525551E-01  0.88762275025E+00  0.88000000000E+00 0. -1.
        -11    1    4    4    0    0 -0.31717457432E-01  0.45913589589E-01  0.37441950058E-01  0.67202794287E-01  0.51100000000E-03 0.  1.
         11    1    4    4    0    0 -0.27890965460E-01  0.32640623053E-01  0.51592519854E-01  0.67122019140E-01  0.51100000000E-03 0. -1.
</event>
<event>
 8    1  0.1183092E+005  0.1043930E+01  0.7957747E-01            NaN
         13   -1    0    0    0    0  0.00000000000E+00  0.00000000000E+00  0.74505805969E-08  0.10566000000E+00  0.10566000000E+00 0. -1.
     999900   -1    0    0    0    0 -0.00000000000E+00 -0.00000000000E+00 -0.74505805969E-08  0.93827000000E+00  0.93827000000E+00 0.  1.
     999902    2    1    2    0    0  0.11025378231E-01  0.21724636628E-01  0.17962227045E-02  0.10195016309E+01  0.10192089237E+01 0.  0.
     999903    2    3    3    0    0  0.11318132537E+00 -0.38929546192E-01 -0.47138993247E-01  0.13017074601E+00  0.19920252327E-01 0.  0.
         14    1    1    2    0    0 -0.11025378231E-01 -0.21724636628E-01 -0.17962227045E-02  0.24428369118E-01  0.00000000000E+00 0.  1.
     999901    1    3    3    0    0 -0.10215594714E+00  0.60654182820E-01  0.48935215951E-01  0.88933088487E+00  0.88000000000E+00 0. -1.
        -11    1    4    4    0    0  0.74065326263E-01 -0.25692052524E-01 -0.40834852983E-01  0.88394006904E-01  0.51100000000E-03 0.  1.
         11    1    4    4    0    0  0.39115999107E-01 -0.13237493669E-01 -0.63041402641E-02  0.41776739105E-01  0.51100000000E-03 0. -1.
</event>
<event>
 8    1  0.1183092E+005  0.1043930E+01  0.7957747E-01            NaN
         13   -1    0    0    0    0  0.00000000000E+00  0.00000000000E+00  0.74505805969E-08  0.10566000000E+00  0.10566000000E+00 0. -1.
     999900   -1    0    0    0    0 -0.00000000000E+00 -0.00000000000E+00 -0.74505805969E-08  0.93827000000E+00  0.93827000000E+00 0. -1.
     999902    2    1    2    0    0  0.24899574840E-03  0.97906311939E-03  0.22790165702E-01  0.10211174549E+01  0.10208625982E+01 0.  0.
     999903    2    3    3    0    0 -0.11859635006E+00  0.28656466222E-01  0.47105532579E-01  0.13236468162E+00  0.20376222351E-01 0.  0.
         14    1    1    2    0    0 -0.24899574840E-03 -0.97906311939E-03 -0.22790165702E-01  0.22812545150E-01  0.00000000000E+00 0.  1.
     999901    1    3    3    0    0  0.11884534580E+00 -0.27677403102E-01 -0.24315366877E-01  0.88875277323E+00  0.88000000000E+00 0. -1.
        -11    1    4    4    0    0 -0.93259357721E-01  0.22149421546E-01  0.27660781267E-01  0.99766149664E-01  0.51100000000E-03 0.  1.
         11    1    4    4    0    0 -0.25336992335E-01  0.65070446755E-02  0.19444751312E-01  0.32598531954E-01  0.51100000000E-03 0. -1.
</event>
<event>
 8    1  0.1183092E+005  0.1043930E+01  0.7957747E-01            NaN
         13   -1    0    0    0    0  0.00000000000E+00  0.00000000000E+00  0.74505805969E-08  0.10566000000E+00  0.10566000000E+00 0. -1.
     999900   -1    0    0    0    0 -0.00000000000E+00 -0.00000000000E+00 -0.74505805969E-08  0.93827000000E+00  0.93827000000E+00 0.  1.
     999902    2    1    2    0    0  0.20717257450E-01  0.89079353460E-02  0.63027090749E-02  0.10205146160E+01  0.10202459513E+01 0.  0.
     999903    2    3    3    0    0  0.85832881171E-01  0.89118969965E-01  0.45515560678E-01  0.13360340154E+00  0.21650134883E-01 0.  0.
         14    1    1    2    0    0 -0.20717257450E-01 -0.89079353460E-02 -0.63027090749E-02  0.23415384047E-01  0.00000000000E+00 0.  1.
     999901    1    3    3    0    0 -0.65115623722E-01 -0.80211034619E-01 -0.39212851603E-01  0.88691121442E+00  0.88000000000E+00 0.  1.
        -11    1    4    4    0    0  0.75152085081E-02  0.12590205742E-01  0.12384110188E-01  0.19199451703E-01  0.51100000000E-03 0.  1.
         11    1    4    4    0    0  0.78317672663E-01  0.76528764223E-01  0.33131450490E-01  0.11440394983E+00  0.51100000000E-03 0. -1.
</event>
<event>
 8    1  0.1183092E+005  0.1043930E+01  0.7957747E-01            NaN
         13   -1    0    0    0    0  0.00000000000E+00  0.00000000000E+00  0.74505805969E-08  0.10566000000E+00  0.10566000000E+00 0.  1.
     999900   -1    0    0    0    0 -0.00000000000E+00 -0.00000000000E+00 -0.74505805969E-08  0.93827000000E+00  0.93827000000E+00 0.  1.
     999902    2    1    2    0    0  0.84478140378E-03 -0.21685207606E-02  0.22324345430E-01  0.10214846767E+01  0.10212380488E+01 0.  0.
     999903    2    3    3    0    0  0.12161787614E+00  0.46501445236E-01  0.76573531202E-02  0.13178246437E+00  0.18833232689E-01 0.  0.
         14    1    1    2    0    0 -0.84478140378E-03  0.21685207606E-02 -0.22324345430E-01  0.22445323272E-01  0.00000000000E+00 0. -1.
     999901    1    3    3    0    0 -0.12077309474E+00 -0.48669965996E-01  0.14666992310E-01  0.88970221235E+00  0.88000000000E+00 0. -1.
        -11    1    4    4    0    0  0.56850188924E-01  0.16555251099E-01  0.11505565896E-01  0.60321302102E-01  0.51100000000E-03 0. -1.
         11    1    4    4    0    0  0.64767687218E-01  0.29946194137E-01 -0.38482127755E-02  0.71461162273E-01  0.51100000000E-03 0.  1.
</event>
<event>
 8    1  0.1183092E+005  0.1043930E+01  0.7957747E-01            NaN
         13   -1    0    0    0    0  0.00000000000E+00  0.00000000000E+00  0.74505805969E-08  0.10566000000E+00  0.10566000000E+00 0.  1.
     999900   -1    0    0    0    0 -0.00000000000E+00 -0.00000000000E+00 -0.74505805969E-08  0.93827000000E+00  0.93827000000E+00 0.  1.
     999902    2    1    2    0    0 -0.12581195194E-01  0.34205326166E-02  0.23082413990E-01  0.10174199198E+01  0.10170744854E+01 0.  0.
     999903    2    3    3    0    0 -0.12583831539E+00 -0.31129770814E-02  0.25913033177E-01  0.13013311476E+00  0.20449205854E-01 0.  0.
         14    1    1    2    0    0  0.12581195194E-01 -0.34205326166E-02 -0.23082413990E-01  0.26510080187E-01  0.00000000000E+00 0. -1.
     999901    1    3    3    0    0  0.11325712020E+00  0.65335096980E-02 -0.28306191871E-02  0.88728680506E+00  0.88000000000E+00 0. -1.
        -11    1    4    4    0    0 -0.65989482427E-01 -0.11236597867E-01  0.10112389689E-01  0.67700771552E-01  0.51100000000E-03 0.  1.
         11    1    4    4    0    0 -0.59848832967E-01  0.81236207856E-02  0.15800643488E-01  0.62432343203E-01  0.51100000000E-03 0. -1.
</event>
<event>
 8    1  0.1183092E+005  0.1043930E+01  0.7957747E-01            NaN
         13   -1    0    0    0    0  0.00000000000E+00  0.00000000000E+00  0.74505805969E-08  0.10566000000E+00  0.10566000000E+00 0. -1.
     999900   -1    0    0    0    0 -0.00000000000E+00 -0.00000000000E+00 -0.74505805969E-08  0.93827000000E+00  0.93827000000E+00 0. -1.
     999902    2    1    2    0    0 -0.20337173544E-01 -0.36098090543E-02  0.11660504099E-01  0.10202108368E+01  0.10199350728E+01 0.  0.
     999903    2    3    3    0    0  0.39234529552E-02 -0.31773842147E-01  0.12643838817E+00  0.13197902387E+00  0.20169933274E-01 0.  0.
         14    1    1    2    0    0  0.20337173544E-01  0.36098090543E-02 -0.11660504099E-01  0.23719163244E-01  0.00000000000E+00 0. -1.
     999901    1    3    3    0    0 -0.24260626499E-01  0.28164033093E-01 -0.11477788408E+00  0.88823181289E+00  0.88000000000E+00 0. -1.
        -11    1    4    4    0    0  0.11571351607E-01 -0.24191951601E-01  0.96516293088E-01  0.10017386212E+00  0.51100000000E-03 0.  1.
         11    1    4    4    0    0 -0.76478986516E-02 -0.75818905465E-02  0.29922095087E-01  0.31805161742E-01  0.51100000000E-03 0. -1.
</event>
<event>
 8    1  0.1183092E+005  0.1043930E+01  0.7957747E-01            NaN
         13   -1    0    0    0    0  0.00000000000E+00  0.00000000000E+00  0.74505805969E-08  0.10566000000E+00  0.10566000000E+00 0.  1.
     999900   -1    0    0    0    0 -0.00000000000E+00 -0.00000000000E+00 -0.74505805969E-08  0.93827000000E+00  0.93827000000E+00 0. -1.
     999902    2    1    2    0    0 -0.23345805183E-01  0.49581617360E-02 -0.22225714623E-02  0.10199602313E+01  0.10196785394E+01 0.  0.
     999903    2    3    3    0    0  0.47605501825E-01  0.59120266221E-01  0.10290025780E+00  0.12921984782E+00  0.18649834687E-01 0.  0.
         14    1    1    2    0    0  0.23345805183E-01 -0.49581617360E-02  0.22225714623E-02  0.23969768696E-01  0.00000000000E+00 0. -1.
     999901    1    3    3    0    0 -0.70951307008E-01 -0.54162104485E-01 -0.10512282926E+00  0.89074038348E+00  0.88000000000E+00 0.  1.
        -11    1    4    4    0    0  0.45548021457E-01  0.49514318834E-01  0.81614136219E-01  0.10577059317E+00  0.51100000000E-03 0. -1.
         11    1    4    4    0    0  0.20574803683E-02  0.96059473871E-02  0.21286121584E-01  0.23449254652E-01  0.51100000000E-03 0.  1.
</event>
<event>
 8    1  0.1183092E+005  0.1043930E+01  0.7957747E-01            NaN
         13   -1    0    0    0    0  0.00000000000E+00  0.00000000000E+00  0.74505805969E-08  0.10566000000E+00  0.10566000000E+00 0. -1.
     999900   -1    0    0    0    0 -0.00000000000E+00 -0.00000000000E+00 -0.74505805969E-08  0.93827000000E+00  0.93827000000E+00 0.  1.
     999902    2    1    2    0    0 -0.39946630199E-03 -0.11624457661E-01 -0.20354773055E-01  0.10204863575E+01  0.10202170364E+01 0.  0.
     999903    2    3    3    0    0  0.44169599141E-01  0.88646973565E-01  0.78795832497E-01  0.12814583721E+00  0.20083151238E-01 0.  0.
         14    1    1    2    0    0  0.39946630199E-03  0.11624457661E-01  0.20354773055E-01  0.23443642536E-01  0.00000000000E+00 0. -1.
     999901    1    3    3    0    0 -0.44569065443E-01 -0.10027143123E+00 -0.99150605552E-01  0.89234052026E+00  0.88000000000E+00 0.  1.
        -11    1    4    4    0    0  0.30143499916E-01  0.77066417347E-01  0.66814143921E-01  0.10635908151E+00  0.51100000000E-03 0.  1.
         11    1    4    4    0    0  0.14026099224E-01  0.11580556218E-01  0.11981688576E-01  0.21786755699E-01  0.51100000000E-03 0. -1.
</event>
<event>
 8    1  0.1183092E+005  0.1043930E+01  0.7957747E-01            NaN
         13   -1    0    0    0    0  0.00000000000E+00  0.00000000000E+00  0.74505805969E-08  0.10566000000E+00  0.10566000000E+00 0.  1.
     999900   -1    0    0    0    0 -0.00000000000E+00 -0.00000000000E+00 -0.74505805969E-08  0.93827000000E+00  0.93827000000E+00 0.  1.
     999902    2    1    2    0    0  0.11893705297E-01 -0.13479664291E-01  0.14530176498E-01  0.10208153379E+01  0.10205536078E+01 0.  0.
     999903    2    3    3    0    0 -0.56661181667E-01  0.11072035240E+00 -0.25499195275E-01  0.12855541653E+00  0.20169288952E-01 0.  0.
         14    1    1    2    0    0 -0.11893705297E-01  0.13479664291E-01 -0.14530176498E-01  0.23114662104E-01  0.00000000000E+00 0. -1.
     999901    1    3    3    0    0  0.68554886964E-01 -0.12420001669E+00  0.40029371773E-01  0.89225992137E+00  0.88000000000E+00 0. -1.
        -11    1    4    4    0    0 -0.19792316315E-01  0.60678962262E-01 -0.11927546651E-01  0.64932270378E-01  0.51100000000E-03 0.  1.
         11    1    4    4    0    0 -0.36868865352E-01  0.50041390135E-01 -0.13571648623E-01  0.63623146152E-01  0.51100000000E-03 0. -1.
</event>
<event>
 8    1  0.1183092E+005  0.1043930E+01  0.7957747E-01            NaN
         13   -1    0    0    0    0  0.00000000000E+00  0.00000000000E+00  0.74505805969E-08  0.10566000000E+00  0.10566000000E+00 0. -1.
     999900   -1    0    0    0    0 -0.00000000000E+00 -0.00000000000E+00 -0.74505805969E-08  0.93827000000E+00  0.93827000000E+00 0.  1.
     999902    2    1    2    0    0 -0.17996961059E-01 -0.62455653247E-02 -0.18712494026E-01  0.10172269079E+01  0.10168763578E+01 0.  0.
     999903    2    3    3    0    0 -0.93474484512E-01  0.27186092930E-01 -0.85127670836E-01  0.13087172628E+00  0.20102872783E-01 0.  0.
         14    1    1    2    0    0  0.17996961059E-01  0.62455653247E-02  0.18712494026E-01  0.26703092074E-01  0.00000000000E+00 0. -1.
     999901    1    3    3    0    0  0.75477523453E-01 -0.33431658255E-01  0.66415176809E-01  0.88635518165E+00  0.88000000000E+00 0. -1.
        -11    1    4    4    0    0 -0.69199516122E-01  0.23142227184E-01 -0.73775673421E-01  0.10376534499E+00  0.51100000000E-03 0.  1.
         11    1    4    4    0    0 -0.24274968391E-01  0.40438657458E-02 -0.11351997414E-01  0.27106381293E-01  0.51100000000E-03 0. -1.
</event>
<event>
 8    1  0.1183092E+005  0.1043930E+01  0.7957747E-01            NaN
         13   -1    0    0    0    0  0.00000000000E+00  0.00000000000E+00  0.74505805969E-08  0.10566000000E+00  0.10566000000E+00 0.  1.
     999900   -1    0    0    0    0 -0.00000000000E+00 -0.00000000000E+00 -0.74505805969E-08  0.93827000000E+00  0.93827000000E+00 0. -1.
     999902    2    1    2    0    0 -0.10985708697E-01 -0.20807770120E-01  0.12296544081E-01  0.10173809117E+01  0.10170344465E+01 0.  0.
     999903    2    3    3    0    0 -0.41030397542E-01 -0.60831407350E-01 -0.10338085366E+00  0.12840068965E+00  0.20376028958E-01 0.  0.
         14    1    1    2    0    0  0.10985708697E-01  0.20807770120E-01 -0.12296544081E-01  0.26549088295E-01  0.00000000000E+00 0. -1.
     999901    1    3    3    0    0  0.30044688845E-01  0.40023637230E-01  0.11567739774E+00  0.88898022206E+00  0.88000000000E+00 0.  1.
        -11    1    4    4    0    0 -0.36908979352E-01 -0.38829989677E-01 -0.68705193072E-01  0.87124655128E-01  0.51100000000E-03 0. -1.
         11    1    4    4    0    0 -0.41214181899E-02 -0.22001417673E-01 -0.34675660585E-01  0.41276034518E-01  0.51100000000E-03 0.  1.
</event>
<event>
 8    1  0.1183092E+005  0.1043930E+01  0.7957747E-01            NaN
         13   -1    0    0    0    0  0.00000000000E+00  0.00000000000E+00  0.74505805969E-08  0.10566000000E+00  0.10566000000E+00 0. -1.
     999900   -1    0    0    0    0 -0.00000000000E+00 -0.00000000000E+00 -0.74505805969E-08  0.93827000000E+00  0.93827000000E+00 0. -1.
     999902    2    1    2    0    0  0.33411773082E-02 -0.23593485692E-01  0.10113080986E-02  0.10200796588E+01  0.10198007999E+01 0.  0.
     999903    2    3    3    0    0 -0.12559765750E+00  0.10278203680E-01  0.23891911260E-01  0.12974486979E+00  0.19557473580E-01 0.  0.
         14    1    1    2    0    0 -0.33411773082E-02  0.23593485692E-01 -0.10113080986E-02  0.23850341234E-01  0.00000000000E+00 0.  1.
     999901    1    3    3    0    0  0.12893883481E+00 -0.33871689372E-01 -0.22880603162E-01  0.89033478898E+00  0.88000000000E+00 0.  1.
        -11    1    4    4    0    0 -0.49113749742E-01 -0.46880213217E-02  0.53128822823E-02  0.49624850597E-01  0.51100000000E-03 0.  1.
         11    1    4    4    0    0 -0.76483907756E-01  0.14966225002E-01  0.18579028978E-01  0.80120019191E-01  0.51100000000E-03 0. -1.
</event>
<event>
 8    1  0.1183092E+005  0.1043930E+01  0.7957747E-01            NaN
         13   -1    0    0    0    0  0.00000000000E+00  0.00000000000E+00  0.74505805969E-08  0.10566000000E+00  0.10566000000E+00 0. -1.
     999900   -1    0    0    0    0 -0.00000000000E+00 -0.00000000000E+00 -0.74505805969E-08  0.93827000000E+00  0.93827000000E+00 0. -1.
     999902    2    1    2    0    0  0.54787884334E-02 -0.19491133090E-01 -0.13140015911E-02  0.10236408898E+01  0.10234397996E+01 0.  0.
     999903    2    3    3    0    0  0.47643729811E-01  0.91322860457E-01 -0.80132103062E-01  0.13219828563E+00  0.21105519398E-01 0.  0.
         14    1    1    2    0    0 -0.54787884334E-02  0.19491133090E-01  0.13140015911E-02  0.20289110183E-01  0.00000000000E+00 0.  1.
     999901    1    3    3    0    0 -0.42164941378E-01 -0.11081399355E+00  0.78818101471E-01  0.89144260419E+00  0.88000000000E+00 0. -1.
        -11    1    4    4    0    0  0.38453407208E-01  0.74628228736E-01 -0.74698538458E-01  0.11237512989E+00  0.51100000000E-03 0. -1.
         11    1    4    4    0    0  0.91903226037E-02  0.16694631721E-01 -0.54335646044E-02  0.19823155732E-01  0.51100000000E-03 0.  1.
</event>
<event>
 8    1  0.1183092E+005  0.1043930E+01  0.7957747E-01            NaN
         13   -1    0    0    0    0  0.00000000000E+00  0.00000000000E+00  0.74505805969E-08  0.10566000000E+00  0.10566000000E+00 0. -1.
     999900   -1    0    0    0    0 -0.00000000000E+00 -0.00000000000E+00 -0.74505805969E-08  0.93827000000E+00  0.93827000000E+00 0. -1.
     999902    2    1    2    0    0  0.15257838337E-01 -0.17760782532E-01  0.41370185835E-02  0.10201526589E+01  0.10198755245E+01 0.  0.
     999903    2    3    3    0    0 -0.51347970205E-01 -0.11708733885E+00 -0.23828423892E-01  0.13162344470E+00  0.20270136803E-01 0.  0.
         14    1    1    2    0    0 -0.15257838337E-01  0.17760782532E-01 -0.41370185835E-02  0.23777341097E-01  0.00000000000E+00 0. -1.
     999901    1    3    3    0    0  0.66605808542E-01  0.99326556319E-01  0.27965442476E-01  0.88852921420E+00  0.88000000000E+00 0.  1.
        -11    1    4    4    0    0 -0.44144133099E-01 -0.10601283825E+00 -0.15208336833E-01  0.11584032541E+00  0.51100000000E-03 0.  1.
         11    1    4    4    0    0 -0.72038371051E-02 -0.11074500603E-01 -0.86200870595E-02  0.15783119291E-01  0.51100000000E-03 0. -1.
</event>
<event>
 8    1  0.1183092E+005  0.1043930E+01  0.7957747E-01            NaN
         13   -1    0    0    0    0  0.00000000000E+00  0.00000000000E+00  0.74505805969E-08  0.10566000000E+00  0.10566000000E+00 0.  1.
     999900   -1    0    0    0    0 -0.00000000000E+00 -0.00000000000E+00 -0.74505805969E-08  0.93827000000E+00  0.93827000000E+00 0.  1.
     999902    2    1    2    0    0  0.15714333831E-01  0.97334265231E-02 -0.15284267451E-01  0.10199448231E+01  0.10196627646E+01 0.  0.
     999903    2    3    3    0    0  0.24943287180E-01  0.11394504699E+00  0.55917738718E-01  0.13089197815E+00  0.20006877109E-01 0.  0.
         14    1    1    2    0    0 -0.15714333831E-01 -0.97334265231E-02  0.15284267451E-01  0.23985176905E-01  0.00000000000E+00 0.  1.
     999901    1    3    3    0    0 -0.92289533490E-02 -0.10421162047E+00 -0.71202006169E-01  0.88905284494E+00  0.88000000000E+00 0.  1.
        -11    1    4    4    0    0  0.10204902578E-01  0.63573153105E-01  0.40971363333E-01  0.76319064241E-01  0.51100000000E-03 0. -1.
         11    1    4    4    0    0  0.14738384602E-01  0.50371893888E-01  0.14946375385E-01  0.54572913910E-01  0.51100000000E-03 0.  1.
</event>
<event>
 8    1  0.1183092E+005  0.1043930E+01  0.7957747E-01            NaN
         13   -1    0    0    0    0  0.00000000000E+00  0.00000000000E+00  0.74505805969E-08  0.10566000000E+00  0.10566000000E+00 0. -1.
     999900   -1    0    0    0    0 -0.00000000000E+00 -0.00000000000E+00 -0.74505805969E-08  0.93827000000E+00  0.93827000000E+00 0.  1.
     999902    2    1    2    0    0  0.18473034289E-01 -0.90278221629E-02 -0.11118441634E-01  0.10205553489E+01  0.10202876290E+01 0.  0.
     999903    2    3    3    0    0 -0.27358437651E-01 -0.10148433756E+00 -0.77356292125E-01  0.13205313514E+00  0.20161341428E-01 0.  0.
         14    1    1    2    0    0 -0.18473034289E-01  0.90278221629E-02  0.11118441634E-01  0.23374651082E-01  0.00000000000E+00 0. -1.
     999901    1    3    3    0    0  0.45831471939E-01  0.92456515392E-01  0.66237850492E-01  0.88850221378E+00  0.88000000000E+00 0. -1.
        -11    1    4    4    0    0 -0.19115647293E-01 -0.45555745929E-01 -0.45472299844E-01  0.67147041131E-01  0.51100000000E-03 0.  1.
         11    1    4    4    0    0 -0.82427903583E-02 -0.55928591626E-01 -0.31883992281E-01  0.64906094005E-01  0.51100000000E-03 0. -1.
</event>
