<event>
 8    1  0.1143506E+005  0.1043930E+01  0.7957747E-01            NaN
         13   -1    0    0    0    0  0.00000000000E+00  0.00000000000E+00  0.74505805969E-08  0.10566000000E+00  0.10566000000E+00 0. -1.
     999900   -1    0    0    0    0 -0.00000000000E+00 -0.00000000000E+00 -0.74505805969E-08  0.93827000000E+00  0.93827000000E+00 0. -1.
     999902    2    1    2    0    0  0.39490009353E-02 -0.17726484307E-01 -0.14928379063E-01  0.10204208665E+01  0.10201500211E+01 0.  0.
     999903    2    3    3    0    0 -0.75927247758E-01  0.63975745491E-01  0.78436217461E-01  0.12813592476E+00  0.20217122467E-01 0.  0.
         14    1    1    2    0    0 -0.39490009353E-02  0.17726484307E-01  0.14928379063E-01  0.23509133453E-01  0.00000000000E+00 0. -1.
     999901    1    3    3    0    0  0.79876248693E-01 -0.81702229798E-01 -0.93364596524E-01  0.89228494179E+00  0.88000000000E+00 0. -1.
        -11    1    4    4    0    0 -0.59665852338E-01  0.58017698657E-01  0.70531691907E-01  0.10909192444E+00  0.51100000000E-03 0.  1.
         11    1    4    4    0    0 -0.16261395420E-01  0.59580468340E-02  0.79045255539E-02  0.19044000323E-01  0.51100000000E-03 0. -1.
</event>
<event>
 8    1  0.1143506E+005  0.1043930E+01  0.7957747E-01            NaN
         13   -1    0    0    0    0  0.00000000000E+00  0.00000000000E+00  0.74505805969E-08  0.10566000000E+00  0.10566000000E+00 0.  1.
     999900   -1    0    0    0    0 -0.00000000000E+00 -0.00000000000E+00 -0.74505805969E-08  0.93827000000E+00  0.93827000000E+00 0.  1.
     999902    2    1    2    0    0  0.16299314925E-01 -0.78330345311E-02 -0.14351810851E-01  0.10208432382E+01  0.10205821468E+01 0.  0.
     999903    2    3    3    0    0  0.94931156969E-01 -0.59323723187E-01 -0.69732329833E-01  0.13410694170E+00  0.24307309424E-01 0.  0.
         14    1    1    2    0    0 -0.16299314925E-01  0.78330345311E-02  0.14351810851E-01  0.23086761828E-01  0.00000000000E+00 0.  1.
     999901    1    3    3    0    0 -0.78631842044E-01  0.51490688656E-01  0.55380518982E-01  0.88673629647E+00  0.88000000000E+00 0. -1.
        -11    1    4    4    0    0  0.54682061515E-01 -0.43898131290E-01 -0.52859759546E-01  0.87815653972E-01  0.51100000000E-03 0.  1.
         11    1    4    4    0    0  0.40249095455E-01 -0.15425591897E-01 -0.16872570287E-01  0.46291287727E-01  0.51100000000E-03 0. -1.
</event>
<event>
 8    1  0.1143506E+005  0.1043930E+01  0.7957747E-01            NaN
         13   -1    0    0    0    0  0.00000000000E+00  0.00000000000E+00  0.74505805969E-08  0.10566000000E+00  0.10566000000E+00 0. -1.
     999900   -1    0    0    0    0 -0.00000000000E+00 -0.00000000000E+00 -0.74505805969E-08  0.93827000000E+00  0.93827000000E+00 0. -1.
     999902    2    1    2    0    0  0.14780269272E-01  0.50196286961E-02  0.17041421830E-01  0.10208201949E+01  0.10205585761E+01 0.  0.
     999903    2    3    3    0    0 -0.56369175936E-01  0.10439966358E+00  0.53149343114E-01  0.13163943892E+00  0.20671609873E-01 0.  0.
         14    1    1    2    0    0 -0.14780269272E-01 -0.50196286961E-02 -0.17041421830E-01  0.23109805062E-01  0.00000000000E+00 0.  1.
     999901    1    3    3    0    0  0.71149445208E-01 -0.99380034887E-01 -0.36107921284E-01  0.88918075601E+00  0.88000000000E+00 0.  1.
        -11    1    4    4    0    0 -0.11053870651E-01  0.31197628185E-01  0.65539439728E-02  0.33744560500E-01  0.51100000000E-03 0. -1.
         11    1    4    4    0    0 -0.45315305284E-01  0.73202035398E-01  0.46595399141E-01  0.97894878424E-01  0.51100000000E-03 0.  1.
</event>
<event>
 8    1  0.1143506E+005  0.1043930E+01  0.7957747E-01            NaN
         13   -1    0    0    0    0  0.00000000000E+00  0.00000000000E+00  0.74505805969E-08  0.10566000000E+00  0.10566000000E+00 0. -1.
     999900   -1    0    0    0    0 -0.00000000000E+00 -0.00000000000E+00 -0.74505805969E-08  0.93827000000E+00  0.93827000000E+00 0.  1.
     999902    2    1    2    0    0 -0.14582596987E-01  0.55341811297E-02 -0.14964527563E-01  0.10223148113E+01  0.10220862767E+01 0.  0.
     999903    2    3    3    0    0 -0.73174066330E-01 -0.15849611104E-01  0.10583376224E+00  0.13187533913E+00  0.24179861175E-01 0.  0.
         14    1    1    2    0    0  0.14582596987E-01 -0.55341811297E-02  0.14964527563E-01  0.21615188660E-01  0.00000000000E+00 0. -1.
     999901    1    3    3    0    0  0.58591469344E-01  0.21383792234E-01 -0.12079828980E+00  0.89043947221E+00  0.88000000000E+00 0.  1.
        -11    1    4    4    0    0 -0.29048031378E-01 -0.15111773862E-01  0.31573419510E-01  0.45489512822E-01  0.51100000000E-03 0. -1.
         11    1    4    4    0    0 -0.44126034952E-01 -0.73783724241E-03  0.74260342725E-01  0.86385826308E-01  0.51100000000E-03 0.  1.
</event>
<event>
 8    1  0.1143506E+005  0.1043930E+01  0.7957747E-01            NaN
         13   -1    0    0    0    0  0.00000000000E+00  0.00000000000E+00  0.74505805969E-08  0.10566000000E+00  0.10566000000E+00 0.  1.
     999900   -1    0    0    0    0 -0.00000000000E+00 -0.00000000000E+00 -0.74505805969E-08  0.93827000000E+00  0.93827000000E+00 0.  1.
     999902    2    1    2    0    0 -0.14319291186E-01 -0.18036994952E-01 -0.11595769498E-02  0.10208709474E+01  0.10206104896E+01 0.  0.
     999903    2    3    3    0    0 -0.98358778107E-01  0.43980600731E-02 -0.86389389557E-01  0.13248472060E+00  0.19881710216E-01 0.  0.
         14    1    1    2    0    0  0.14319291186E-01  0.18036994952E-01  0.11595769498E-02  0.23059052575E-01  0.00000000000E+00 0.  1.
     999901    1    3    3    0    0  0.84039486921E-01 -0.22435055025E-01  0.85229812607E-01  0.88838622683E+00  0.88000000000E+00 0. -1.
        -11    1    4    4    0    0 -0.48653325956E-01 -0.77601973540E-02 -0.42328359762E-01  0.64956277223E-01  0.51100000000E-03 0.  1.
         11    1    4    4    0    0 -0.49705452151E-01  0.12158257427E-01 -0.44061029795E-01  0.67528443376E-01  0.51100000000E-03 0. -1.
</event>
<event>
 8    1  0.1143506E+005  0.1043930E+01  0.7957747E-01            NaN
         13   -1    0    0    0    0  0.00000000000E+00  0.00000000000E+00  0.74505805969E-08  0.10566000000E+00  0.10566000000E+00 0. -1.
     999900   -1    0    0    0    0 -0.00000000000E+00 -0.00000000000E+00 -0.74505805969E-08  0.93827000000E+00  0.93827000000E+00 0. -1.
     999902    2    1    2    0    0 -0.20460797680E-01  0.92150590640E-03  0.12626418056E-01  0.10198692467E+01  0.10195853866E+01 0.  0.
     999903    2    3    3    0    0  0.10207345628E+00 -0.73034652594E-01 -0.14714115803E-01  0.12788737384E+00  0.19637317225E-01 0.  0.
         14    1    1    2    0    0  0.20460797680E-01 -0.92150590640E-03 -0.12626418056E-01  0.24060753267E-01  0.00000000000E+00 0.  1.
     999901    1    3    3    0    0 -0.12253425396E+00  0.73956158500E-01  0.27340533859E-01  0.89198187289E+00  0.88000000000E+00 0.  1.
        -11    1    4    4    0    0  0.27008974522E-01 -0.30141662955E-01 -0.71306821593E-02  0.41098811412E-01  0.51100000000E-03 0. -1.
         11    1    4    4    0    0  0.75064481759E-01 -0.42892989639E-01 -0.75834336439E-02  0.86788562431E-01  0.51100000000E-03 0.  1.
</event>
<event>
 8    1  0.1143506E+005  0.1043930E+01  0.7957747E-01            NaN
         13   -1    0    0    0    0  0.00000000000E+00  0.00000000000E+00  0.74505805969E-08  0.10566000000E+00  0.10566000000E+00 0. -1.
     999900   -1    0    0    0    0 -0.00000000000E+00 -0.00000000000E+00 -0.74505805969E-08  0.93827000000E+00  0.93827000000E+00 0.  1.
     999902    2    1    2    0    0 -0.12564488925E-01 -0.14578772265E-01  0.15597914574E-01  0.10191569921E+01  0.10188558645E+01 0.  0.
     999903    2    3    3    0    0 -0.80594582578E-01  0.98727590578E-01 -0.38147644766E-02  0.12907650267E+00  0.20088982848E-01 0.  0.
         14    1    1    2    0    0  0.12564488925E-01  0.14578772265E-01 -0.15597914574E-01  0.24773007927E-01  0.00000000000E+00 0.  1.
     999901    1    3    3    0    0  0.68030093653E-01 -0.11330636284E+00  0.19412679051E-01  0.89008048940E+00  0.88000000000E+00 0. -1.
        -11    1    4    4    0    0 -0.74111169048E-01  0.80675213602E-01 -0.62840352913E-02  0.10973014940E+00  0.51100000000E-03 0. -1.
         11    1    4    4    0    0 -0.64834135301E-02  0.18052376975E-01  0.24692708147E-02  0.19346353269E-01  0.51100000000E-03 0.  1.
</event>
<event>
 8    1  0.1143506E+005  0.1043930E+01  0.7957747E-01            NaN
         13   -1    0    0    0    0  0.00000000000E+00  0.00000000000E+00  0.74505805969E-08  0.10566000000E+00  0.10566000000E+00 0.  1.
     999900   -1    0    0    0    0 -0.00000000000E+00 -0.00000000000E+00 -0.74505805969E-08  0.93827000000E+00  0.93827000000E+00 0.  1.
     999902    2    1    2    0    0  0.14499597487E-01 -0.17967689990E-01 -0.25491414096E-02  0.10207012606E+01  0.10204369109E+01 0.  0.
     999903    2    3    3    0    0 -0.70812450924E-01 -0.10827254274E+00  0.15668435233E-01  0.13178900842E+00  0.19634056120E-01 0.  0.
         14    1    1    2    0    0 -0.14499597487E-01  0.17967689990E-01  0.25491414096E-02  0.23228739372E-01  0.00000000000E+00 0.  1.
     999901    1    3    3    0    0  0.85312048411E-01  0.90304852748E-01 -0.18217576643E-01  0.88891225221E+00  0.88000000000E+00 0.  1.
        -11    1    4    4    0    0 -0.44682603099E-01 -0.71225753846E-01  0.83608782350E-03  0.84086878848E-01  0.51100000000E-03 0.  1.
         11    1    4    4    0    0 -0.26129847826E-01 -0.37046788892E-01  0.14832347410E-01  0.47702129568E-01  0.51100000000E-03 0. -1.
</event>
<event>
 8    1  0.1143506E+005  0.1043930E+01  0.7957747E-01            NaN
         13   -1    0    0    0    0  0.00000000000E+00  0.00000000000E+00  0.74505805969E-08  0.10566000000E+00  0.10566000000E+00 0. -1.
     999900   -1    0    0    0    0 -0.00000000000E+00 -0.00000000000E+00 -0.74505805969E-08  0.93827000000E+00  0.93827000000E+00 0.  1.
     999902    2    1    2    0    0 -0.21918510147E-02 -0.24569821790E-01  0.68391843305E-02  0.10183320548E+01  0.10180102746E+01 0.  0.
     999903    2    3    3    0    0 -0.75728719600E-01 -0.34744769815E-01  0.98419392645E-01  0.13047050305E+00  0.19852891872E-01 0.  0.
         14    1    1    2    0    0  0.21918510147E-02  0.24569821790E-01 -0.68391843305E-02  0.25597945151E-01  0.00000000000E+00 0. -1.
     999901    1    3    3    0    0  0.73536868585E-01  0.10174948025E-01 -0.91580208314E-01  0.88786155180E+00  0.88000000000E+00 0.  1.
        -11    1    4    4    0    0 -0.43847240969E-01 -0.17253525250E-01  0.69678642074E-01  0.84116817322E-01  0.51100000000E-03 0.  1.
         11    1    4    4    0    0 -0.31881478631E-01 -0.17491244566E-01  0.28740750571E-01  0.46353685727E-01  0.51100000000E-03 0. -1.
</event>
<event>
 8    1  0.1143506E+005  0.1043930E+01  0.7957747E-01            NaN
         13   -1    0    0    0    0  0.00000000000E+00  0.00000000000E+00  0.74505805969E-08  0.10566000000E+00  0.10566000000E+00 0.  1.
     999900   -1    0    0    0    0 -0.00000000000E+00 -0.00000000000E+00 -0.74505805969E-08  0.93827000000E+00  0.93827000000E+00 0.  1.
     999902    2    1    2    0    0 -0.19524036747E-01 -0.50055083930E-02  0.13035300335E-01  0.10199266215E+01  0.10196441296E+01 0.  0.
     999903    2    3    3    0    0  0.99204287726E-01  0.30574273509E-01 -0.70849282714E-01  0.12729066031E+00  0.20174598823E-01 0.  0.
         14    1    1    2    0    0  0.19524036747E-01  0.50055083930E-02 -0.13035300335E-01  0.24003378512E-01  0.00000000000E+00 0. -1.
     999901    1    3    3    0    0 -0.11872832447E+00 -0.35579781902E-01  0.83884583049E-01  0.89263596118E+00  0.88000000000E+00 0.  1.
        -11    1    4    4    0    0  0.43068876451E-01  0.23073423580E-01 -0.28450407588E-01  0.56542000383E-01  0.51100000000E-03 0.  1.
         11    1    4    4    0    0  0.56135411275E-01  0.75008499292E-02 -0.42398875126E-01  0.70748659928E-01  0.51100000000E-03 0. -1.
</event>
<event>
 8    1  0.1143506E+005  0.1043930E+01  0.7957747E-01            NaN
         13   -1    0    0    0    0  0.00000000000E+00  0.00000000000E+00  0.74505805969E-08  0.10566000000E+00  0.10566000000E+00 0. -1.
     999900   -1    0    0    0    0 -0.00000000000E+00 -0.00000000000E+00 -0.74505805969E-08  0.93827000000E+00  0.93827000000E+00 0. -1.
     999902    2    1    2    0    0  0.95917991172E-02 -0.19523033675E-01  0.46236457031E-02  0.10216919795E+01  0.10214499359E+01 0.  0.
     999903    2    3    3    0    0  0.41305930755E-01  0.11634183162E+00 -0.32988764443E-01  0.12990739728E+00  0.23368174668E-01 0.  0.
         14    1    1    2    0    0 -0.95917991172E-02  0.19523033675E-01 -0.46236457031E-02  0.22238020455E-01  0.00000000000E+00 0.  1.
     999901    1    3    3    0    0 -0.31714131638E-01 -0.13586486530E+00  0.37612410146E-01  0.89178458226E+00  0.88000000000E+00 0.  1.
        -11    1    4    4    0    0  0.32421275389E-01  0.10942458153E+00 -0.27618624176E-01  0.11742200672E+00  0.51100000000E-03 0. -1.
         11    1    4    4    0    0  0.88846553657E-02  0.69172500954E-02 -0.53701402673E-02  0.12485390556E-01  0.51100000000E-03 0.  1.
</event>
<event>
 8    1  0.1143506E+005  0.1043930E+01  0.7957747E-01            NaN
         13   -1    0    0    0    0  0.00000000000E+00  0.00000000000E+00  0.74505805969E-08  0.10566000000E+00  0.10566000000E+00 0. -1.
     999900   -1    0    0    0    0 -0.00000000000E+00 -0.00000000000E+00 -0.74505805969E-08  0.93827000000E+00  0.93827000000E+00 0.  1.
     999902    2    1    2    0    0 -0.16313486107E-01 -0.15683447716E-01  0.14413888067E-03  0.10212999064E+01  0.10210491553E+01 0.  0.
     999903    2    3    3    0    0  0.98269155956E-01  0.47438716371E-01  0.66167123979E-01  0.12918297233E+00  0.20072200193E-01 0.  0.
         14    1    1    2    0    0  0.16313486107E-01  0.15683447716E-01 -0.14413888067E-03  0.22630093620E-01  0.00000000000E+00 0. -1.
     999901    1    3    3    0    0 -0.11458264206E+00 -0.63122164087E-01 -0.66022985098E-01  0.89211693405E+00  0.88000000000E+00 0.  1.
        -11    1    4    4    0    0  0.68494774346E-01  0.42305704330E-01  0.44383767690E-01  0.91931967710E-01  0.51100000000E-03 0. -1.
         11    1    4    4    0    0  0.29774381610E-01  0.51330120407E-02  0.21783356289E-01  0.37251004618E-01  0.51100000000E-03 0.  1.
</event>
<event>
 8    1  0.1143506E+005  0.1043930E+01  0.7957747E-01            NaN
         13   -1    0    0    0    0  0.00000000000E+00  0.00000000000E+00  0.74505805969E-08  0.10566000000E+00  0.10566000000E+00 0.  1.
     999900   -1    0    0    0    0 -0.00000000000E+00 -0.00000000000E+00 -0.74505805969E-08  0.93827000000E+00  0.93827000000E+00 0. -1.
     999902    2    1    2    0    0 -0.18192806440E-01 -0.67058401629E-02  0.14315936034E-01  0.10198282880E+01  0.10195434490E+01 0.  0.
     999903    2    3    3    0    0 -0.13682135320E-01  0.84522531309E-01  0.97931362024E-01  0.13115821343E+00  0.16753093917E-01 0.  0.
         14    1    1    2    0    0  0.18192806440E-01  0.67058401629E-02 -0.14315936034E-01  0.24101712034E-01  0.00000000000E+00 0. -1.
     999901    1    3    3    0    0 -0.45106711195E-02 -0.91228371472E-01 -0.83615425990E-01  0.88867007454E+00  0.88000000000E+00 0.  1.
        -11    1    4    4    0    0 -0.71667741445E-02  0.76275225948E-01  0.88166392194E-01  0.11680259663E+00  0.51100000000E-03 0. -1.
         11    1    4    4    0    0 -0.65153611760E-02  0.82473053617E-02  0.97649698300E-02  0.14355616802E-01  0.51100000000E-03 0.  1.
</event>
<event>
 8    1  0.1143506E+005  0.1043930E+01  0.7957747E-01            NaN
         13   -1    0    0    0    0  0.00000000000E+00  0.00000000000E+00  0.74505805969E-08  0.10566000000E+00  0.10566000000E+00 0.  1.
     999900   -1    0    0    0    0 -0.00000000000E+00 -0.00000000000E+00 -0.74505805969E-08  0.93827000000E+00  0.93827000000E+00 0.  1.
     999902    2    1    2    0    0  0.21574201324E-01  0.16123217752E-01  0.77434278816E-02  0.10159056358E+01  0.10155190278E+01 0.  0.
     999903    2    3    3    0    0 -0.11361471035E+00 -0.28809947918E-01 -0.33998097470E-01  0.12347222867E+00  0.18740467286E-01 0.  0.
         14    1    1    2    0    0 -0.21574201324E-01 -0.16123217752E-01 -0.77434278816E-02  0.28024364200E-01  0.00000000000E+00 0.  1.
     999901    1    3    3    0    0  0.13518891168E+00  0.44933165670E-01  0.41741525351E-01  0.89243340713E+00  0.88000000000E+00 0. -1.
        -11    1    4    4    0    0 -0.30537702289E-01 -0.16271309308E-01 -0.11907900388E-01  0.36597349362E-01  0.51100000000E-03 0. -1.
         11    1    4    4    0    0 -0.83077008065E-01 -0.12538638610E-01 -0.22090197082E-01  0.86874879311E-01  0.51100000000E-03 0.  1.
</event>
<event>
 8    1  0.1143506E+005  0.1043930E+01  0.7957747E-01            NaN
         13   -1    0    0    0    0  0.00000000000E+00  0.00000000000E+00  0.74505805969E-08  0.10566000000E+00  0.10566000000E+00 0. -1.
     999900   -1    0    0    0    0 -0.00000000000E+00 -0.00000000000E+00 -0.74505805969E-08  0.93827000000E+00  0.93827000000E+00 0.  1.
     999902    2    1    2    0    0  0.24071350550E-02 -0.10125090125E-01  0.20893805214E-01  0.10205877027E+01  0.10203207319E+01 0.  0.
     999903    2    3    3    0    0  0.86244295132E-01  0.94199874200E-01  0.17852834046E-01  0.13046320849E+00  0.19754248782E-01 0.  0.
         14    1    1    2    0    0 -0.24071350550E-02  0.10125090125E-01 -0.20893805214E-01  0.23342297349E-01  0.00000000000E+00 0.  1.
     999901    1    3    3    0    0 -0.83837160077E-01 -0.10432496433E+00  0.30409711679E-02  0.89012449416E+00  0.88000000000E+00 0. -1.
        -11    1    4    4    0    0  0.47289900152E-01  0.60948429888E-01  0.32920980192E-02  0.77214925970E-01  0.51100000000E-03 0.  1.
         11    1    4    4    0    0  0.38954394981E-01  0.33251444313E-01  0.14560736027E-01  0.53248282525E-01  0.51100000000E-03 0. -1.
</event>
<event>
 8    1  0.1143506E+005  0.1043930E+01  0.7957747E-01            NaN
         13   -1    0    0    0    0  0.00000000000E+00  0.00000000000E+00  0.74505805969E-08  0.10566000000E+00  0.10566000000E+00 0. -1.
     999900   -1    0    0    0    0 -0.00000000000E+00 -0.00000000000E+00 -0.74505805969E-08  0.93827000000E+00  0.93827000000E+00 0. -1.
     999902    2    1    2    0    0 -0.35239023514E-01  0.42917896947E-02 -0.89061474725E-02  0.10073304413E+01  0.10066653318E+01 0.  0.
     999903    2    3    3    0    0  0.96417408689E-01  0.19270839853E-01 -0.58196713559E-01  0.11604634066E+00  0.20303047656E-01 0.  0.
         14    1    1    2    0    0  0.35239023514E-01 -0.42917896947E-02  0.89061474725E-02  0.36599558738E-01  0.00000000000E+00 0. -1.
     999901    1    3    3    0    0 -0.13165643220E+00 -0.14979050158E-01  0.49290566087E-01  0.89128410060E+00  0.88000000000E+00 0.  1.
        -11    1    4    4    0    0  0.66587308305E-02 -0.38058639899E-03  0.96959211580E-03  0.67590511280E-02  0.51100000000E-03 0.  1.
         11    1    4    4    0    0  0.89758677859E-01  0.19651426252E-01 -0.59166305675E-01  0.10928728953E+00  0.51100000000E-03 0. -1.
</event>
<event>
 8    1  0.1143506E+005  0.1043930E+01  0.7957747E-01            NaN
         13   -1    0    0    0    0  0.00000000000E+00  0.00000000000E+00  0.74505805969E-08  0.10566000000E+00  0.10566000000E+00 0.  1.
     999900   -1    0    0    0    0 -0.00000000000E+00 -0.00000000000E+00 -0.74505805969E-08  0.93827000000E+00  0.93827000000E+00 0. -1.
     999902    2    1    2    0    0 -0.95208691802E-02  0.16914912761E-01 -0.14097033409E-01  0.10199406779E+01  0.10196585207E+01 0.  0.
     999903    2    3    3    0    0  0.48064254144E-01 -0.35510395851E-01 -0.11479947404E+00  0.13078071425E+00  0.18802000986E-01 0.  0.
         14    1    1    2    0    0  0.95208691802E-02 -0.16914912761E-01  0.14097033409E-01  0.23989322095E-01  0.00000000000E+00 0.  1.
     999901    1    3    3    0    0 -0.57585123324E-01  0.52425308612E-01  0.10070244063E+00  0.88915996365E+00  0.88000000000E+00 0.  1.
        -11    1    4    4    0    0  0.13009046337E-01 -0.20565257742E-01 -0.49862309631E-01  0.55485819408E-01  0.51100000000E-03 0. -1.
         11    1    4    4    0    0  0.35055207807E-01 -0.14945138109E-01 -0.64937164408E-01  0.75294894846E-01  0.51100000000E-03 0.  1.
</event>
<event>
 8    1  0.1143506E+005  0.1043930E+01  0.7957747E-01            NaN
         13   -1    0    0    0    0  0.00000000000E+00  0.00000000000E+00  0.74505805969E-08  0.10566000000E+00  0.10566000000E+00 0. -1.
     999900   -1    0    0    0    0 -0.00000000000E+00 -0.00000000000E+00 -0.74505805969E-08  0.93827000000E+00  0.93827000000E+00 0.  1.
     999902    2    1    2    0    0  0.20538341222E-01  0.11828821102E-01  0.20537358587E-02  0.10201400378E+01  0.10198626057E+01 0.  0.
     999903    2    3    3    0    0  0.40920763776E-01  0.18234041722E-02  0.12327913945E+00  0.13153936825E+00  0.20664594463E-01 0.  0.
         14    1    1    2    0    0 -0.20538341222E-01 -0.11828821102E-01 -0.20537358587E-02  0.23789962164E-01  0.00000000000E+00 0.  1.
     999901    1    3    3    0    0 -0.20382422554E-01  0.10005416930E-01 -0.12122540359E+00  0.88860066959E+00  0.88000000000E+00 0.  1.
        -11    1    4    4    0    0  0.27480456791E-01 -0.81968333914E-02  0.68865755004E-01  0.74599711235E-01  0.51100000000E-03 0.  1.
         11    1    4    4    0    0  0.13440306985E-01  0.10020237564E-01  0.54413384447E-01  0.56939657012E-01  0.51100000000E-03 0. -1.
</event>
<event>
 8    1  0.1143506E+005  0.1043930E+01  0.7957747E-01            NaN
         13   -1    0    0    0    0  0.00000000000E+00  0.00000000000E+00  0.74505805969E-08  0.10566000000E+00  0.10566000000E+00 0. -1.
     999900   -1    0    0    0    0 -0.00000000000E+00 -0.00000000000E+00 -0.74505805969E-08  0.93827000000E+00  0.93827000000E+00 0.  1.
     999902    2    1    2    0    0  0.38883718461E-02 -0.94999800490E-02  0.21377234891E-01  0.10202159698E+01  0.10199403266E+01 0.  0.
     999903    2    3    3    0    0  0.78636125400E-02  0.73097808203E-01 -0.10244442111E+00  0.12770826695E+00  0.20234032303E-01 0.  0.
         14    1    1    2    0    0 -0.38883718461E-02  0.94999800490E-02 -0.21377234891E-01  0.23714030195E-01  0.00000000000E+00 0.  1.
     999901    1    3    3    0    0 -0.39752406939E-02 -0.82597788252E-01  0.12382165600E+00  0.89250770286E+00  0.88000000000E+00 0. -1.
        -11    1    4    4    0    0  0.11811287563E-01  0.53566698438E-01 -0.85303146144E-01  0.10141886195E+00  0.51100000000E-03 0.  1.
         11    1    4    4    0    0 -0.39476750229E-02  0.19531109765E-01 -0.17141274969E-01  0.26289405001E-01  0.51100000000E-03 0. -1.
</event>
<event>
 8    1  0.1143506E+005  0.1043930E+01  0.7957747E-01            NaN
         13   -1    0    0    0    0  0.00000000000E+00  0.00000000000E+00  0.74505805969E-08  0.10566000000E+00  0.10566000000E+00 0. -1.
     999900   -1    0    0    0    0 -0.00000000000E+00 -0.00000000000E+00 -0.74505805969E-08  0.93827000000E+00  0.93827000000E+00 0. -1.
     999902    2    1    2    0    0  0.43266715926E-02  0.17048195635E-01  0.16062301368E-01  0.10201107098E+01  0.10198325851E+01 0.  0.
     999903    2    3    3    0    0 -0.40283153707E-02  0.12668610296E+00 -0.30778412697E-01  0.13203169920E+00  0.20480793425E-01 0.  0.
         14    1    1    2    0    0 -0.43266715926E-02 -0.17048195635E-01 -0.16062301368E-01  0.23819290223E-01  0.00000000000E+00 0.  1.
     999901    1    3    3    0    0  0.83549869633E-02 -0.10963790732E+00  0.46840714065E-01  0.88807901057E+00  0.88000000000E+00 0. -1.
        -11    1    4    4    0    0 -0.65831190414E-02  0.89595556445E-01 -0.12849323945E-01  0.90752781984E-01  0.51100000000E-03 0.  1.
         11    1    4    4    0    0  0.25548036707E-02  0.37090546510E-01 -0.17929088751E-01  0.41278917218E-01  0.51100000000E-03 0. -1.
</event>
<event>
 8    1  0.1143506E+005  0.1043930E+01  0.7957747E-01            NaN
         13   -1    0    0    0    0  0.00000000000E+00  0.00000000000E+00  0.74505805969E-08  0.10566000000E+00  0.10566000000E+00 0. -1.
     999900   -1    0    0    0    0 -0.00000000000E+00 -0.00000000000E+00 -0.74505805969E-08  0.93827000000E+00  0.93827000000E+00 0. -1.
     999902    2    1    2    0    0 -0.13244285350E-01  0.36451042543E-02 -0.20856168602E-01  0.10189564610E+01  0.10186503776E+01 0.  0.
     999903    2    3    3    0    0 -0.81005956356E-01  0.91601287315E-01 -0.42909020086E-01  0.13170550305E+00  0.23503079069E-01 0.  0.
         14    1    1    2    0    0  0.13244285350E-01 -0.36451042543E-02  0.20856168602E-01  0.24973538960E-01  0.00000000000E+00 0. -1.
     999901    1    3    3    0    0  0.67761671006E-01 -0.87956183061E-01  0.22052851485E-01  0.88725095799E+00  0.88000000000E+00 0.  1.
        -11    1    4    4    0    0 -0.68276179068E-01  0.75615414240E-01 -0.44557008645E-01  0.11119764224E+00  0.51100000000E-03 0. -1.
         11    1    4    4    0    0 -0.12729777288E-01  0.15985873075E-01  0.16479885587E-02  0.20507860812E-01  0.51100000000E-03 0.  1.
</event>
<event>
 8    1  0.1143506E+005  0.1043930E+01  0.7957747E-01            NaN
         13   -1    0    0    0    0  0.00000000000E+00  0.00000000000E+00  0.74505805969E-08  0.10566000000E+00  0.10566000000E+00 0. -1.
     999900   -1    0    0    0    0 -0.00000000000E+00 -0.00000000000E+00 -0.74505805969E-08  0.93827000000E+00  0.93827000000E+00 0. -1.
     999902    2    1    2    0    0  0.16665069349E-01 -0.19761840006E-02  0.16982146960E-01  0.10200548423E+01  0.10197753959E+01 0.  0.
     999903    2    3    3    0    0  0.88123562727E-01  0.94100816493E-01 -0.14067417642E-01  0.13140351486E+00  0.21172281579E-01 0.  0.
         14    1    1    2    0    0 -0.16665069349E-01  0.19761840006E-02 -0.16982146960E-01  0.23875157695E-01  0.00000000000E+00 0.  1.
     999901    1    3    3    0    0 -0.71458493378E-01 -0.96077000493E-01  0.31049564602E-01  0.88865132744E+00  0.88000000000E+00 0.  1.
        -11    1    4    4    0    0  0.74159077479E-01  0.74136782268E-01 -0.37177843517E-02  0.10492813874E+00  0.51100000000E-03 0. -1.
         11    1    4    4    0    0  0.13964485248E-01  0.19964034225E-01 -0.10349633290E-01  0.26475376126E-01  0.51100000000E-03 0.  1.
</event>
<event>
 8    1  0.1143506E+005  0.1043930E+01  0.7957747E-01            NaN
         13   -1    0    0    0    0  0.00000000000E+00  0.00000000000E+00  0.74505805969E-08  0.10566000000E+00  0.10566000000E+00 0.  1.
     999900   -1    0    0    0    0 -0.00000000000E+00 -0.00000000000E+00 -0.74505805969E-08  0.93827000000E+00  0.93827000000E+00 0. -1.
     999902    2    1    2    0    0 -0.11985701713E-01  0.15644062200E-01  0.12715860268E-01  0.10204760701E+01  0.10202065098E+01 0.  0.
     999903    2    3    3    0    0  0.11595106671E+00 -0.40171864217E-01 -0.31999544326E-01  0.12835348780E+00  0.19804505720E-01 0.  0.
         14    1    1    2    0    0  0.11985701713E-01 -0.15644062200E-01 -0.12715860268E-01  0.23453929949E-01  0.00000000000E+00 0. -1.
     999901    1    3    3    0    0 -0.12793676842E+00  0.55815926417E-01  0.44715404594E-01  0.89212258225E+00  0.88000000000E+00 0. -1.
        -11    1    4    4    0    0  0.18862471833E-01 -0.10803312870E-01  0.77057740918E-03  0.21756822451E-01  0.51100000000E-03 0. -1.
         11    1    4    4    0    0  0.97088594879E-01 -0.29368551346E-01 -0.32770121735E-01  0.10659666535E+00  0.51100000000E-03 0.  1.
</event>
<event>
 8    1  0.1143506E+005  0.1043930E+01  0.7957747E-01            NaN
         13   -1    0    0    0    0  0.00000000000E+00  0.00000000000E+00  0.74505805969E-08  0.10566000000E+00  0.10566000000E+00 0. -1.
     999900   -1    0    0    0    0 -0.00000000000E+00 -0.00000000000E+00 -0.74505805969E-08  0.93827000000E+00  0.93827000000E+00 0. -1.
     999902    2    1    2    0    0  0.12323449932E-01 -0.99118386039E-02  0.17778973783E-01  0.10201349612E+01  0.10198574092E+01 0.  0.
     999903    2    3    3    0    0  0.23659289268E-01 -0.65879611854E-01  0.11176288366E+00  0.13329006596E+00  0.19375610787E-01 0.  0.
         14    1    1    2    0    0 -0.12323449932E-01  0.99118386039E-02 -0.17778973783E-01  0.23795038801E-01  0.00000000000E+00 0.  1.
     999901    1    3    3    0    0 -0.11335839336E-01  0.55967773251E-01 -0.93983909875E-01  0.88684489524E+00  0.88000000000E+00 0. -1.
        -11    1    4    4    0    0  0.60696197864E-02 -0.44471984384E-01  0.71020264729E-01  0.84016288913E-01  0.51100000000E-03 0.  1.
         11    1    4    4    0    0  0.17589669481E-01 -0.21407627470E-01  0.40742618929E-01  0.49273777048E-01  0.51100000000E-03 0. -1.
</event>
<event>
 8    1  0.1143506E+005  0.1043930E+01  0.7957747E-01            NaN
         13   -1    0    0    0    0  0.00000000000E+00  0.00000000000E+00  0.74505805969E-08  0.10566000000E+00  0.10566000000E+00 0. -1.
     999900   -1    0    0    0    0 -0.00000000000E+00 -0.00000000000E+00 -0.74505805969E-08  0.93827000000E+00  0.93827000000E+00 0. -1.
     999902    2    1    2    0    0 -0.23101221729E-01 -0.28965999919E-02 -0.65517766155E-02  0.10197435882E+01  0.10194567197E+01 0.  0.
     999903    2    3    3    0    0  0.10752290634E+00  0.61916716940E-01  0.20353279948E-01  0.12733823698E+00  0.20147341494E-01 0.  0.
         14    1    1    2    0    0  0.23101221729E-01  0.28965999919E-02  0.65517766155E-02  0.24186411757E-01  0.00000000000E+00 0.  1.
     999901    1    3    3    0    0 -0.13062412807E+00 -0.64813316932E-01 -0.26905056564E-01  0.89240535126E+00  0.88000000000E+00 0. -1.
        -11    1    4    4    0    0  0.52430226738E-01  0.26581635807E-01  0.19314465108E-01  0.61877473457E-01  0.51100000000E-03 0.  1.
         11    1    4    4    0    0  0.55092679602E-01  0.35335081133E-01  0.10388148406E-02  0.65460763528E-01  0.51100000000E-03 0. -1.
</event>
<event>
 8    1  0.1143506E+005  0.1043930E+01  0.7957747E-01            NaN
         13   -1    0    0    0    0  0.00000000000E+00  0.00000000000E+00  0.74505805969E-08  0.10566000000E+00  0.10566000000E+00 0.  1.
     999900   -1    0    0    0    0 -0.00000000000E+00 -0.00000000000E+00 -0.74505805969E-08  0.93827000000E+00  0.93827000000E+00 0.  1.
     999902    2    1    2    0    0 -0.16106172505E-01 -0.10591306606E-01  0.22519606441E-02  0.10245223753E+01  0.10243385386E+01 0.  0.
     999903    2    3    3    0    0  0.41210278238E-01 -0.12347937963E+00  0.29612178918E-01  0.13504079930E+00  0.20339422554E-01 0.  0.
         14    1    1    2    0    0  0.16106172505E-01  0.10591306606E-01 -0.22519606441E-02  0.19407624665E-01  0.00000000000E+00 0. -1.
     999901    1    3    3    0    0 -0.57316450743E-01  0.11288807302E+00 -0.27360218274E-01  0.88948157603E+00  0.88000000000E+00 0.  1.
        -11    1    4    4    0    0  0.22803007897E-01 -0.39229641019E-01  0.13145349814E-01  0.47244081601E-01  0.51100000000E-03 0. -1.
         11    1    4    4    0    0  0.18407270341E-01 -0.84249738611E-01  0.16466829105E-01  0.87796717702E-01  0.51100000000E-03 0.  1.
</event>
<event>
 8    1  0.1143506E+005  0.1043930E+01  0.7957747E-01            NaN
         13   -1    0    0    0    0  0.00000000000E+00  0.00000000000E+00  0.74505805969E-08  0.10566000000E+00  0.10566000000E+00 0. -1.
     999900   -1    0    0    0    0 -0.00000000000E+00 -0.00000000000E+00 -0.74505805969E-08  0.93827000000E+00  0.93827000000E+00 0.  1.
     999902    2    1    2    0    0 -0.94766120366E-02 -0.14423450155E-01  0.15778415175E-01  0.10205462348E+01  0.10202783036E+01 0.  0.
     999903    2    3    3    0    0  0.25791045561E-01 -0.49870074728E-01  0.11926091796E+00  0.13307291167E+00  0.18249133750E-01 0.  0.
         14    1    1    2    0    0  0.94766120366E-02  0.14423450155E-01 -0.15778415175E-01  0.23383765212E-01  0.00000000000E+00 0.  1.
     999901    1    3    3    0    0 -0.35267657597E-01  0.35446624574E-01 -0.10348250279E+00  0.88747332312E+00  0.88000000000E+00 0.  1.
        -11    1    4    4    0    0  0.25268253322E-01 -0.30405191456E-01  0.78269759361E-01  0.87689090797E-01  0.51100000000E-03 0.  1.
         11    1    4    4    0    0  0.52279223833E-03 -0.19464883273E-01  0.40991158600E-01  0.45383820871E-01  0.51100000000E-03 0. -1.
</event>
<event>
 8    1  0.1143506E+005  0.1043930E+01  0.7957747E-01            NaN
         13   -1    0    0    0    0  0.00000000000E+00  0.00000000000E+00  0.74505805969E-08  0.10566000000E+00  0.10566000000E+00 0.  1.
     999900   -1    0    0    0    0 -0.00000000000E+00 -0.00000000000E+00 -0.74505805969E-08  0.93827000000E+00  0.93827000000E+00 0.  1.
     999902    2    1    2    0    0  0.40195863227E-02 -0.15221184087E-01  0.18150980519E-01  0.10199029400E+01  0.10196198838E+01 0.  0.
     999903    2    3    3    0    0  0.10287152541E+00  0.31436578486E-01 -0.67902401833E-01  0.12897430239E+00  0.21279692059E-01 0.  0.
         14    1    1    2    0    0 -0.40195863227E-02  0.15221184087E-01 -0.18150980519E-01  0.24027060017E-01  0.00000000000E+00 0. -1.
     999901    1    3    3    0    0 -0.98851939092E-01 -0.46657762574E-01  0.86053382353E-01  0.89092863759E+00  0.88000000000E+00 0.  1.
        -11    1    4    4    0    0  0.29676315708E-01  0.12848215652E-01 -0.10134278530E-01  0.33892847059E-01  0.51100000000E-03 0.  1.
         11    1    4    4    0    0  0.73195209707E-01  0.18588362835E-01 -0.57768123303E-01  0.95081455331E-01  0.51100000000E-03 0. -1.
</event>
<event>
 8    1  0.1143506E+005  0.1043930E+01  0.7957747E-01            NaN
         13   -1    0    0    0    0  0.00000000000E+00  0.00000000000E+00  0.74505805969E-08  0.10566000000E+00  0.10566000000E+00 0. -1.
     999900   -1    0    0    0    0 -0.00000000000E+00 -0.00000000000E+00 -0.74505805969E-08  0.93827000000E+00  0.93827000000E+00 0. -1.
     999902    2    1    2    0    0  0.13378242924E-01  0.54216995317E-02 -0.18394337344E-01  0.10205478732E+01  0.10202799800E+01 0.  0.
     999903    2    3    3    0    0 -0.10618056391E+00 -0.19731055518E-01 -0.70518127531E-01  0.13057941367E+00  0.20360507348E-01 0.  0.
         14    1    1    2    0    0 -0.13378242924E-01 -0.54216995317E-02  0.18394337344E-01  0.23382126847E-01  0.00000000000E+00 0. -1.
     999901    1    3    3    0    0  0.11955880683E+00  0.25152755049E-01  0.52123790187E-01  0.88996845949E+00  0.88000000000E+00 0. -1.
        -11    1    4    4    0    0 -0.42544539825E-01 -0.17376423195E-01 -0.25156732786E-01  0.52393704559E-01  0.51100000000E-03 0.  1.
         11    1    4    4    0    0 -0.63636024083E-01 -0.23546323229E-02 -0.45361394746E-01  0.78185709108E-01  0.51100000000E-03 0. -1.
</event>
<event>
 8    1  0.1143506E+005  0.1043930E+01  0.7957747E-01            NaN
         13   -1    0    0    0    0  0.00000000000E+00  0.00000000000E+00  0.74505805969E-08  0.10566000000E+00  0.10566000000E+00 0. -1.
     999900   -1    0    0    0    0 -0.00000000000E+00 -0.00000000000E+00 -0.74505805969E-08  0.93827000000E+00  0.93827000000E+00 0.  1.
     999902    2    1    2    0    0  0.19549052353E-01  0.75033791364E-02  0.73627432152E-02  0.10217336910E+01  0.10214925644E+01 0.  0.
     999903    2    3    3    0    0 -0.19891371593E-01  0.68537438495E-01  0.11016480485E+00  0.13277420522E+00  0.19991453328E-01 0.  0.
         14    1    1    2    0    0 -0.19549052353E-01 -0.75033791364E-02 -0.73627432152E-02  0.22196309018E-01  0.00000000000E+00 0. -1.
     999901    1    3    3    0    0  0.39440423946E-01 -0.61034059359E-01 -0.10280206163E+00  0.88895948576E+00  0.88000000000E+00 0.  1.
        -11    1    4    4    0    0 -0.23264652303E-01  0.51097012572E-01  0.79406580616E-01  0.97251297712E-01  0.51100000000E-03 0. -1.
         11    1    4    4    0    0  0.33732807105E-02  0.17440425924E-01  0.30758224233E-01  0.35522907512E-01  0.51100000000E-03 0.  1.
</event>
<event>
 8    1  0.1143506E+005  0.1043930E+01  0.7957747E-01            NaN
         13   -1    0    0    0    0  0.00000000000E+00  0.00000000000E+00  0.74505805969E-08  0.10566000000E+00  0.10566000000E+00 0. -1.
     999900   -1    0    0    0    0 -0.00000000000E+00 -0.00000000000E+00 -0.74505805969E-08  0.93827000000E+00  0.93827000000E+00 0.  1.
     999902    2    1    2    0    0 -0.11643497077E-01 -0.14232928847E-01  0.15941287276E-01  0.10195933624E+01  0.10193028759E+01 0.  0.
     999903    2    3    3    0    0  0.59997821318E-01  0.10814948373E+00  0.26969462321E-01  0.12817227560E+00  0.20117925899E-01 0.  0.
         14    1    1    2    0    0  0.11643497077E-01  0.14232928847E-01 -0.15941287276E-01  0.24336637560E-01  0.00000000000E+00 0. -1.
     999901    1    3    3    0    0 -0.71641318394E-01 -0.12238241257E+00 -0.11028175045E-01  0.89142108683E+00  0.88000000000E+00 0.  1.
        -11    1    4    4    0    0  0.45818068928E-01  0.80801773397E-01  0.28957814678E-01  0.97298705933E-01  0.51100000000E-03 0.  1.
         11    1    4    4    0    0  0.14179752390E-01  0.27347710331E-01 -0.19883523577E-02  0.30873569672E-01  0.51100000000E-03 0. -1.
</event>
<event>
 8    1  0.1143506E+005  0.1043930E+01  0.7957747E-01            NaN
         13   -1    0    0    0    0  0.00000000000E+00  0.00000000000E+00  0.74505805969E-08  0.10566000000E+00  0.10566000000E+00 0. -1.
     999900   -1    0    0    0    0 -0.00000000000E+00 -0.00000000000E+00 -0.74505805969E-08  0.93827000000E+00  0.93827000000E+00 0. -1.
     999902    2    1    2    0    0 -0.19086821854E-01  0.48336851390E-02  0.11250417766E-01  0.10212530694E+01  0.10210012677E+01 0.  0.
     999903    2    3    3    0    0 -0.99213738549E-01  0.63898799811E-01  0.59312741026E-01  0.13433762956E+00  0.24539252915E-01 0.  0.
         14    1    1    2    0    0  0.19086821854E-01 -0.48336851390E-02 -0.11250417766E-01  0.22676930577E-01  0.00000000000E+00 0.  1.
     999901    1    3    3    0    0  0.80126916695E-01 -0.59065114672E-01 -0.48062323260E-01  0.88691543986E+00  0.88000000000E+00 0. -1.
        -11    1    4    4    0    0 -0.34209396841E-01  0.36341232950E-01  0.25648645873E-01  0.56116683800E-01  0.51100000000E-03 0.  1.
         11    1    4    4    0    0 -0.65004341708E-01  0.27557566862E-01  0.33664095153E-01  0.78220945760E-01  0.51100000000E-03 0. -1.
</event>
<event>
 8    1  0.1143506E+005  0.1043930E+01  0.7957747E-01            NaN
         13   -1    0    0    0    0  0.00000000000E+00  0.00000000000E+00  0.74505805969E-08  0.10566000000E+00  0.10566000000E+00 0.  1.
     999900   -1    0    0    0    0 -0.00000000000E+00 -0.00000000000E+00 -0.74505805969E-08  0.93827000000E+00  0.93827000000E+00 0.  1.
     999902    2    1    2    0    0 -0.39611490977E-02 -0.33505719381E-02  0.19014648629E-01  0.10242202588E+01  0.10240305975E+01 0.  0.
     999903    2    3    3    0    0 -0.11501019792E+00 -0.25896210354E-01 -0.59423985279E-01  0.13349425363E+00  0.19787531122E-01 0.  0.
         14    1    1    2    0    0  0.39611490977E-02  0.33505719381E-02 -0.19014648629E-01  0.19709741170E-01  0.00000000000E+00 0. -1.
     999901    1    3    3    0    0  0.11104904882E+00  0.22545638416E-01  0.78438633909E-01  0.89072600520E+00  0.88000000000E+00 0. -1.
        -11    1    4    4    0    0 -0.36356400505E-01 -0.13713342131E-01 -0.28116219073E-01  0.47964846565E-01  0.51100000000E-03 0.  1.
         11    1    4    4    0    0 -0.78653797418E-01 -0.12182868222E-01 -0.31307766206E-01  0.85529407061E-01  0.51100000000E-03 0. -1.
</event>
<event>
 8    1  0.1143506E+005  0.1043930E+01  0.7957747E-01            NaN
         13   -1    0    0    0    0  0.00000000000E+00  0.00000000000E+00  0.74505805969E-08  0.10566000000E+00  0.10566000000E+00 0. -1.
     999900   -1    0    0    0    0 -0.00000000000E+00 -0.00000000000E+00 -0.74505805969E-08  0.93827000000E+00  0.93827000000E+00 0.  1.
     999902    2    1    2    0    0  0.46096163234E-02 -0.15974886123E-01 -0.53657700968E-02  0.10264589657E+01  0.10263102705E+01 0.  0.
     999903    2    3    3    0    0 -0.46378572299E-01  0.87483459247E-01  0.88195249901E-01  0.13401451981E+00  0.19420654100E-01 0.  0.
         14    1    1    2    0    0 -0.46096163234E-02  0.15974886123E-01  0.53657700968E-02  0.17471034257E-01  0.00000000000E+00 0. -1.
     999901    1    3    3    0    0  0.50988188623E-01 -0.10345834537E+00 -0.93561019998E-01  0.89244444593E+00  0.88000000000E+00 0.  1.
        -11    1    4    4    0    0 -0.12715190288E-01  0.44594981115E-01  0.39948378702E-01  0.61208843206E-01  0.51100000000E-03 0. -1.
         11    1    4    4    0    0 -0.33663382012E-01  0.42888478132E-01  0.48246871199E-01  0.72805676609E-01  0.51100000000E-03 0.  1.
</event>
<event>
 8    1  0.1143506E+005  0.1043930E+01  0.7957747E-01            NaN
         13   -1    0    0    0    0  0.00000000000E+00  0.00000000000E+00  0.74505805969E-08  0.10566000000E+00  0.10566000000E+00 0. -1.
     999900   -1    0    0    0    0 -0.00000000000E+00 -0.00000000000E+00 -0.74505805969E-08  0.93827000000E+00  0.93827000000E+00 0.  1.
     999902    2    1    2    0    0  0.22868508993E-01 -0.34531079167E-02  0.29103011931E-02  0.10206198625E+01  0.10203536354E+01 0.  0.
     999903    2    3    3    0    0 -0.96946535825E-01 -0.64161531837E-01 -0.50851886797E-01  0.12880624375E+00  0.22131449633E-01 0.  0.
         14    1    1    2    0    0 -0.22868508993E-01  0.34531079167E-02 -0.29103011931E-02  0.23310137513E-01  0.00000000000E+00 0. -1.
     999901    1    3    3    0    0  0.11981504482E+00  0.60708423920E-01  0.53762187991E-01  0.89181361873E+00  0.88000000000E+00 0.  1.
        -11    1    4    4    0    0 -0.34613511225E-01 -0.35758447353E-01 -0.19178718037E-01  0.53337098374E-01  0.51100000000E-03 0. -1.
         11    1    4    4    0    0 -0.62333024600E-01 -0.28403084484E-01 -0.31673168761E-01  0.75469145380E-01  0.51100000000E-03 0.  1.
</event>
<event>
 8    1  0.1143506E+005  0.1043930E+01  0.7957747E-01            NaN
         13   -1    0    0    0    0  0.00000000000E+00  0.00000000000E+00  0.74505805969E-08  0.10566000000E+00  0.10566000000E+00 0.  1.
     999900   -1    0    0    0    0 -0.00000000000E+00 -0.00000000000E+00 -0.74505805969E-08  0.93827000000E+00  0.93827000000E+00 0.  1.
     999902    2    1    2    0    0  0.16615695895E-01  0.92365265622E-02 -0.13787887578E-01  0.10204459497E+01  0.10201756886E+01 0.  0.
     999903    2    3    3    0    0 -0.52518722978E-01  0.85056167413E-01  0.80021935267E-01  0.12953154943E+00  0.19548511322E-01 0.  0.
         14    1    1    2    0    0 -0.16615695895E-01 -0.92365265622E-02  0.13787887578E-01  0.23484050266E-01  0.00000000000E+00 0.  1.
     999901    1    3    3    0    0  0.69134418873E-01 -0.75819640851E-01 -0.93809822845E-01  0.89091440031E+00  0.88000000000E+00 0. -1.
        -11    1    4    4    0    0 -0.47980853636E-01  0.68103725514E-01  0.58706610103E-01  0.10191666662E+00  0.51100000000E-03 0. -1.
         11    1    4    4    0    0 -0.45378693420E-02  0.16952441899E-01  0.21315325164E-01  0.27614882805E-01  0.51100000000E-03 0.  1.
</event>
<event>
 8    1  0.1143506E+005  0.1043930E+01  0.7957747E-01            NaN
         13   -1    0    0    0    0  0.00000000000E+00  0.00000000000E+00  0.74505805969E-08  0.10566000000E+00  0.10566000000E+00 0. -1.
     999900   -1    0    0    0    0 -0.00000000000E+00 -0.00000000000E+00 -0.74505805969E-08  0.93827000000E+00  0.93827000000E+00 0.  1.
     999902    2    1    2    0    0  0.11650060964E-01  0.95455567984E-02  0.18893181752E-01  0.10197681728E+01  0.10194818941E+01 0.  0.
     999903    2    3    3    0    0 -0.12506352751E-01  0.12235705214E+00 -0.38341376032E-01  0.13039437043E+00  0.20123957275E-01 0.  0.
         14    1    1    2    0    0 -0.11650060964E-01 -0.95455567984E-02 -0.18893181752E-01  0.24161827161E-01  0.00000000000E+00 0.  1.
     999901    1    3    3    0    0  0.24156413715E-01 -0.11281149534E+00  0.57234557784E-01  0.88937380241E+00  0.88000000000E+00 0. -1.
        -11    1    4    4    0    0  0.36326119511E-02  0.17607423194E-01 -0.96926776495E-03  0.18011602431E-01  0.51100000000E-03 0. -1.
         11    1    4    4    0    0 -0.16138964702E-01  0.10474962895E+00 -0.37372108267E-01  0.11238276800E+00  0.51100000000E-03 0.  1.
</event>
<event>
 8    1  0.1143506E+005  0.1043930E+01  0.7957747E-01            NaN
         13   -1    0    0    0    0  0.00000000000E+00  0.00000000000E+00  0.74505805969E-08  0.10566000000E+00  0.10566000000E+00 0. -1.
     999900   -1    0    0    0    0 -0.00000000000E+00 -0.00000000000E+00 -0.74505805969E-08  0.93827000000E+00  0.93827000000E+00 0.  1.
     999902    2    1    2    0    0 -0.15922035353E-01  0.72102660667E-02 -0.17246845378E-01  0.10193749023E+01  0.10190791131E+01 0.  0.
     999903    2    3    3    0    0  0.52284062901E-01 -0.63887113463E-01 -0.98502653785E-01  0.13015647268E+00  0.20560838449E-01 0.  0.
         14    1    1    2    0    0  0.15922035353E-01 -0.72102660667E-02  0.17246845378E-01  0.24555097679E-01  0.00000000000E+00 0. -1.
     999901    1    3    3    0    0 -0.68206098254E-01  0.71097379529E-01  0.81255808407E-01  0.88921842964E+00  0.88000000000E+00 0. -1.
        -11    1    4    4    0    0  0.90198267751E-02 -0.44187370527E-02 -0.21171950959E-01  0.23439179606E-01  0.51100000000E-03 0. -1.
         11    1    4    4    0    0  0.43264236126E-01 -0.59468376410E-01 -0.77330702825E-01  0.10671729307E+00  0.51100000000E-03 0.  1.
</event>
<event>
 8    1  0.1143506E+005  0.1043930E+01  0.7957747E-01            NaN
         13   -1    0    0    0    0  0.00000000000E+00  0.00000000000E+00  0.74505805969E-08  0.10566000000E+00  0.10566000000E+00 0.  1.
     999900   -1    0    0    0    0 -0.00000000000E+00 -0.00000000000E+00 -0.74505805969E-08  0.93827000000E+00  0.93827000000E+00 0. -1.
     999902    2    1    2    0    0 -0.21951141236E-01 -0.30589597608E-02 -0.97354477387E-02  0.10197227949E+01  0.10194354269E+01 0.  0.
     999903    2    3    3    0    0 -0.38619961603E-01  0.27736909780E-01  0.11883490086E+00  0.12969101474E+00  0.20909042131E-01 0.  0.
         14    1    1    2    0    0  0.21951141236E-01  0.30589597608E-02  0.97354477387E-02  0.24207205106E-01  0.00000000000E+00 0.  1.
     999901    1    3    3    0    0  0.16668820367E-01 -0.30795869541E-01 -0.12857034860E+00  0.89003178016E+00  0.88000000000E+00 0. -1.
        -11    1    4    4    0    0 -0.34382581655E-01  0.28118760648E-01  0.88158934658E-01  0.98717199629E-01  0.51100000000E-03 0.  1.
         11    1    4    4    0    0 -0.42373799480E-02 -0.38185086851E-03  0.30675966200E-01  0.30973815106E-01  0.51100000000E-03 0. -1.
</event>
<event>
 8    1  0.1143506E+005  0.1043930E+01  0.7957747E-01            NaN
         13   -1    0    0    0    0  0.00000000000E+00  0.00000000000E+00  0.74505805969E-08  0.10566000000E+00  0.10566000000E+00 0.  1.
     999900   -1    0    0    0    0 -0.00000000000E+00 -0.00000000000E+00 -0.74505805969E-08  0.93827000000E+00  0.93827000000E+00 0.  1.
     999902    2    1    2    0    0  0.60863059827E-02 -0.49648683572E-02 -0.23037367079E-01  0.10195904577E+01  0.10192999009E+01 0.  0.
     999903    2    3    3    0    0 -0.82050369639E-01 -0.41021807905E-01  0.86437687236E-01  0.12770875925E+00  0.20567001068E-01 0.  0.
         14    1    1    2    0    0 -0.60863059827E-02  0.49648683572E-02  0.23037367079E-01  0.24339542318E-01  0.00000000000E+00 0.  1.
     999901    1    3    3    0    0  0.88136675622E-01  0.36056939548E-01 -0.10947505431E+00  0.89188169843E+00  0.88000000000E+00 0.  1.
        -11    1    4    4    0    0 -0.66045176385E-01 -0.27192880356E-01  0.56612239660E-01  0.91140687215E-01  0.51100000000E-03 0.  1.
         11    1    4    4    0    0 -0.16005193254E-01 -0.13828927549E-01  0.29825447576E-01  0.36568072035E-01  0.51100000000E-03 0. -1.
</event>
<event>
 8    1  0.1143506E+005  0.1043930E+01  0.7957747E-01            NaN
         13   -1    0    0    0    0  0.00000000000E+00  0.00000000000E+00  0.74505805969E-08  0.10566000000E+00  0.10566000000E+00 0. -1.
     999900   -1    0    0    0    0 -0.00000000000E+00 -0.00000000000E+00 -0.74505805969E-08  0.93827000000E+00  0.93827000000E+00 0.  1.
     999902    2    1    2    0    0 -0.38458609631E-02 -0.45719405419E-02 -0.22775994033E-01  0.10203834675E+01  0.10201117496E+01 0.  0.
     999903    2    3    3    0    0 -0.62213383759E-01  0.11179746799E+00  0.13158770197E-01  0.13008019660E+00  0.19455727881E-01 0.  0.
         14    1    1    2    0    0  0.38458609631E-02  0.45719405419E-02  0.22775994033E-01  0.23546532463E-01  0.00000000000E+00 0. -1.
     999901    1    3    3    0    0  0.58367522796E-01 -0.11636940853E+00 -0.35934764230E-01  0.89030327094E+00  0.88000000000E+00 0.  1.
        -11    1    4    4    0    0 -0.40918819071E-01  0.63573564344E-01  0.16018729006E-01  0.77283948124E-01  0.51100000000E-03 0.  1.
         11    1    4    4    0    0 -0.21294564688E-01  0.48223903643E-01 -0.28599588089E-02  0.52796248477E-01  0.51100000000E-03 0. -1.
</event>
<event>
 8    1  0.1143506E+005  0.1043930E+01  0.7957747E-01            NaN
         13   -1    0    0    0    0  0.00000000000E+00  0.00000000000E+00  0.74505805969E-08  0.10566000000E+00  0.10566000000E+00 0.  1.
     999900   -1    0    0    0    0 -0.00000000000E+00 -0.00000000000E+00 -0.74505805969E-08  0.93827000000E+00  0.93827000000E+00 0. -1.
     999902    2    1    2    0    0 -0.66466552751E-02  0.21710818658E-01  0.13185127500E-02  0.10211862943E+01  0.10209329907E+01 0.  0.
     999903    2    3    3    0    0  0.35024327820E-02 -0.15438948723E-01  0.12915329995E+00  0.13111616109E+00  0.16132099634E-01 0.  0.
         14    1    1    2    0    0  0.66466552751E-02 -0.21710818658E-01 -0.13185127500E-02  0.22743705701E-01  0.00000000000E+00 0. -1.
     999901    1    3    3    0    0 -0.10149088057E-01  0.37149767381E-01 -0.12783478720E+00  0.89007013321E+00  0.88000000000E+00 0. -1.
        -11    1    4    4    0    0 -0.26248476058E-03 -0.12560680892E-01  0.42227203894E-01  0.44059476534E-01  0.51100000000E-03 0.  1.
         11    1    4    4    0    0  0.37649175426E-02 -0.28782678309E-02  0.86926096058E-01  0.87056684560E-01  0.51100000000E-03 0. -1.
</event>
<event>
 8    1  0.1143506E+005  0.1043930E+01  0.7957747E-01            NaN
         13   -1    0    0    0    0  0.00000000000E+00  0.00000000000E+00  0.74505805969E-08  0.10566000000E+00  0.10566000000E+00 0.  1.
     999900   -1    0    0    0    0 -0.00000000000E+00 -0.00000000000E+00 -0.74505805969E-08  0.93827000000E+00  0.93827000000E+00 0. -1.
     999902    2    1    2    0    0  0.16522880748E-01 -0.24653646664E-02 -0.18847451110E-01  0.10187444878E+01  0.10184331207E+01 0.  0.
     999903    2    3    3    0    0 -0.62833743322E-01 -0.30804296933E-01 -0.10791394227E+00  0.13024383574E+00  0.20519595587E-01 0.  0.
         14    1    1    2    0    0 -0.16522880748E-01  0.24653646664E-02  0.18847451110E-01  0.25185512194E-01  0.00000000000E+00 0. -1.
     999901    1    3    3    0    0  0.79356624070E-01  0.28338932267E-01  0.89066491163E-01  0.88850065206E+00  0.88000000000E+00 0. -1.
        -11    1    4    4    0    0 -0.27656169265E-01 -0.32961691350E-02 -0.34889694662E-01  0.44646168301E-01  0.51100000000E-03 0.  1.
         11    1    4    4    0    0 -0.35177574057E-01 -0.27508127798E-01 -0.73024247611E-01  0.85597667443E-01  0.51100000000E-03 0. -1.
</event>
<event>
 8    1  0.1143506E+005  0.1043930E+01  0.7957747E-01            NaN
         13   -1    0    0    0    0  0.00000000000E+00  0.00000000000E+00  0.74505805969E-08  0.10566000000E+00  0.10566000000E+00 0.  1.
     999900   -1    0    0    0    0 -0.00000000000E+00 -0.00000000000E+00 -0.74505805969E-08  0.93827000000E+00  0.93827000000E+00 0.  1.
     999902    2    1    2    0    0 -0.32107463179E-02  0.12957010639E-01 -0.15675443472E-01  0.10233408634E+01  0.10231337206E+01 0.  0.
     999903    2    3    3    0    0  0.98615418477E-03 -0.10229686548E+00 -0.83254240442E-01  0.13324650678E+00  0.18914064397E-01 0.  0.
         14    1    1    2    0    0  0.32107463179E-02 -0.12957010639E-01  0.15675443472E-01  0.20589136569E-01  0.00000000000E+00 0.  1.
     999901    1    3    3    0    0 -0.41969005027E-02  0.11525387612E+00  0.67578796970E-01  0.89009435665E+00  0.88000000000E+00 0.  1.
        -11    1    4    4    0    0  0.94078454127E-02 -0.68916044023E-01 -0.53776673703E-01  0.87921103466E-01  0.51100000000E-03 0. -1.
         11    1    4    4    0    0 -0.84216912280E-02 -0.33380821456E-01 -0.29477566738E-01  0.45325403319E-01  0.51100000000E-03 0.  1.
</event>
<event>
 8    1  0.1143506E+005  0.1043930E+01  0.7957747E-01            NaN
         13   -1    0    0    0    0  0.00000000000E+00  0.00000000000E+00  0.74505805969E-08  0.10566000000E+00  0.10566000000E+00 0.  1.
     999900   -1    0    0    0    0 -0.00000000000E+00 -0.00000000000E+00 -0.74505805969E-08  0.93827000000E+00  0.93827000000E+00 0. -1.
     999902    2    1    2    0    0  0.19480516748E-01  0.98942430772E-03 -0.14047134478E-01  0.10198927065E+01  0.10196094062E+01 0.  0.
     999903    2    3    3    0    0  0.10439465048E+00  0.65886090141E-01  0.41167883703E-01  0.13170878094E+00  0.20327036264E-01 0.  0.
         14    1    1    2    0    0 -0.19480516748E-01 -0.98942430772E-03  0.14047134478E-01  0.24037293531E-01  0.00000000000E+00 0.  1.
     999901    1    3    3    0    0 -0.84914133735E-01 -0.64896665833E-01 -0.55215018181E-01  0.88818392553E+00  0.88000000000E+00 0. -1.
        -11    1    4    4    0    0  0.53485922367E-01  0.45583349344E-01  0.24365541508E-01  0.74380954301E-01  0.51100000000E-03 0.  1.
         11    1    4    4    0    0  0.50908728117E-01  0.20302740797E-01  0.16802342196E-01  0.57327826634E-01  0.51100000000E-03 0. -1.
</event>
<event>
 8    1  0.1143506E+005  0.1043930E+01  0.7957747E-01            NaN
         13   -1    0    0    0    0  0.00000000000E+00  0.00000000000E+00  0.74505805969E-08  0.10566000000E+00  0.10566000000E+00 0.  1.
     999900   -1    0    0    0    0 -0.00000000000E+00 -0.00000000000E+00 -0.74505805969E-08  0.93827000000E+00  0.93827000000E+00 0. -1.
     999902    2    1    2    0    0  0.13552500937E-02  0.98986940796E-02  0.21114733453E-01  0.10205707873E+01  0.10203034250E+01 0.  0.
     999903    2    3    3    0    0  0.29760096521E-01  0.10266101786E+00  0.78015965377E-01  0.13341272126E+00  0.16956279293E-01 0.  0.
         14    1    1    2    0    0 -0.13552500937E-02 -0.98986940796E-02 -0.21114733453E-01  0.23359212660E-01  0.00000000000E+00 0.  1.
     999901    1    3    3    0    0 -0.28404846427E-01 -0.92762323781E-01 -0.56901231924E-01  0.88715806608E+00  0.88000000000E+00 0. -1.
        -11    1    4    4    0    0  0.19496351377E-01  0.77451192971E-01  0.66189678185E-01  0.10373104467E+00  0.51100000000E-03 0. -1.
         11    1    4    4    0    0  0.10263745145E-01  0.25209824890E-01  0.11826287192E-01  0.29681676588E-01  0.51100000000E-03 0.  1.
</event>
<event>
 8    1  0.1143506E+005  0.1043930E+01  0.7957747E-01            NaN
         13   -1    0    0    0    0  0.00000000000E+00  0.00000000000E+00  0.74505805969E-08  0.10566000000E+00  0.10566000000E+00 0.  1.
     999900   -1    0    0    0    0 -0.00000000000E+00 -0.00000000000E+00 -0.74505805969E-08  0.93827000000E+00  0.93827000000E+00 0.  1.
     999902    2    1    2    0    0  0.13410765447E-01 -0.18900213271E-01 -0.42690842156E-02  0.10203653703E+01  0.10200932297E+01 0.  0.
     999903    2    3    3    0    0  0.36476244079E-01  0.12190355503E+00 -0.63603893633E-02  0.12887106803E+00  0.19398569853E-01 0.  0.
         14    1    1    2    0    0 -0.13410765447E-01  0.18900213271E-01  0.42690842156E-02  0.23564629672E-01  0.00000000000E+00 0.  1.
     999901    1    3    3    0    0 -0.23065478632E-01 -0.14080376830E+00  0.20913051477E-02  0.89149430230E+00  0.88000000000E+00 0.  1.
        -11    1    4    4    0    0  0.20227876828E-01  0.36509813782E-01 -0.36537474976E-02  0.41901604923E-01  0.51100000000E-03 0.  1.
         11    1    4    4    0    0  0.16248367251E-01  0.85393741244E-01 -0.27066418657E-02  0.86969463108E-01  0.51100000000E-03 0. -1.
</event>
<event>
 8    1  0.1143506E+005  0.1043930E+01  0.7957747E-01            NaN
         13   -1    0    0    0    0  0.00000000000E+00  0.00000000000E+00  0.74505805969E-08  0.10566000000E+00  0.10566000000E+00 0.  1.
     999900   -1    0    0    0    0 -0.00000000000E+00 -0.00000000000E+00 -0.74505805969E-08  0.93827000000E+00  0.93827000000E+00 0. -1.
     999902    2    1    2    0    0  0.23930078397E-02  0.10468182584E-01  0.20286276018E-01  0.10209769538E+01  0.10207189123E+01 0.  0.
     999903    2    3    3    0    0  0.11082083806E+00  0.22619202772E-01  0.66496376603E-01  0.13303573110E+00  0.21996617137E-01 0.  0.
         14    1    1    2    0    0 -0.23930078397E-02 -0.10468182584E-01 -0.20286276018E-01  0.22953046155E-01  0.00000000000E+00 0.  1.
     999901    1    3    3    0    0 -0.10842783022E+00 -0.12151020189E-01 -0.46210100585E-01  0.88794122275E+00  0.88000000000E+00 0. -1.
        -11    1    4    4    0    0  0.82729796033E-01  0.13513981698E-01  0.59167991297E-01  0.10260584373E+00  0.51100000000E-03 0.  1.
         11    1    4    4    0    0  0.28091042025E-01  0.91052210742E-02  0.73283853066E-02  0.30429887365E-01  0.51100000000E-03 0. -1.
</event>
<event>
 8    1  0.1143506E+005  0.1043930E+01  0.7957747E-01            NaN
         13   -1    0    0    0    0  0.00000000000E+00  0.00000000000E+00  0.74505805969E-08  0.10566000000E+00  0.10566000000E+00 0.  1.
     999900   -1    0    0    0    0 -0.00000000000E+00 -0.00000000000E+00 -0.74505805969E-08  0.93827000000E+00  0.93827000000E+00 0.  1.
     999902    2    1    2    0    0  0.32363179913E-02 -0.22816861550E-01  0.70608928303E-03  0.10208739490E+01  0.10206135597E+01 0.  0.
     999903    2    3    3    0    0 -0.24024163241E-01  0.12407121524E+00  0.86306449777E-02  0.12824746524E+00  0.20052367390E-01 0.  0.
         14    1    1    2    0    0 -0.32363179913E-02  0.22816861550E-01 -0.70608928303E-03  0.23056050989E-01  0.00000000000E+00 0.  1.
     999901    1    3    3    0    0  0.27260481232E-01 -0.14688807679E+00 -0.79245556947E-02  0.89262648377E+00  0.88000000000E+00 0.  1.
        -11    1    4    4    0    0  0.25275328669E-02  0.53928608830E-02  0.25009044883E-02  0.64797388185E-02  0.51100000000E-03 0.  1.
         11    1    4    4    0    0 -0.26551696108E-01  0.11867835436E+00  0.61297404894E-02  0.12176772643E+00  0.51100000000E-03 0. -1.
</event>
<event>
 8    1  0.1143506E+005  0.1043930E+01  0.7957747E-01            NaN
         13   -1    0    0    0    0  0.00000000000E+00  0.00000000000E+00  0.74505805969E-08  0.10566000000E+00  0.10566000000E+00 0. -1.
     999900   -1    0    0    0    0 -0.00000000000E+00 -0.00000000000E+00 -0.74505805969E-08  0.93827000000E+00  0.93827000000E+00 0. -1.
     999902    2    1    2    0    0  0.16280039535E-01  0.10637460286E-01  0.13019655612E-01  0.10205268660E+01  0.10202584857E+01 0.  0.
     999903    2    3    3    0    0 -0.98912272258E-01  0.48789908373E-01 -0.63335907272E-01  0.12892434808E+00  0.21117708552E-01 0.  0.
         14    1    1    2    0    0 -0.16280039535E-01 -0.10637460286E-01 -0.13019655612E-01  0.23403133997E-01  0.00000000000E+00 0. -1.
     999901    1    3    3    0    0  0.11519231179E+00 -0.38152448087E-01  0.76355562885E-01  0.89160251793E+00  0.88000000000E+00 0.  1.
        -11    1    4    4    0    0 -0.54202437087E-01  0.36293779097E-01 -0.30193315274E-01  0.71882125703E-01  0.51100000000E-03 0.  1.
         11    1    4    4    0    0 -0.44709835171E-01  0.12496129276E-01 -0.33142591998E-01  0.57042222373E-01  0.51100000000E-03 0. -1.
</event>
<event>
 8    1  0.1143506E+005  0.1043930E+01  0.7957747E-01            NaN
         13   -1    0    0    0    0  0.00000000000E+00  0.00000000000E+00  0.74505805969E-08  0.10566000000E+00  0.10566000000E+00 0. -1.
     999900   -1    0    0    0    0 -0.00000000000E+00 -0.00000000000E+00 -0.74505805969E-08  0.93827000000E+00  0.93827000000E+00 0.  1.
     999902    2    1    2    0    0  0.77603470358E-02 -0.23066245930E-01  0.38613508727E-02  0.10192888816E+01  0.10189909908E+01 0.  0.
     999903    2    3    3    0    0 -0.51880410904E-01 -0.86932626476E-01  0.81037187560E-01  0.13159972181E+00  0.22418796374E-01 0.  0.
         14    1    1    2    0    0 -0.77603470358E-02  0.23066245930E-01 -0.38613508727E-02  0.24641118440E-01  0.00000000000E+00 0.  1.
     999901    1    3    3    0    0  0.59640757940E-01  0.63866380546E-01 -0.77175836687E-01  0.88768915975E+00  0.88000000000E+00 0.  1.
        -11    1    4    4    0    0 -0.21400134925E-01 -0.45928536170E-01  0.27743933667E-01  0.57770089024E-01  0.51100000000E-03 0.  1.
         11    1    4    4    0    0 -0.30480275979E-01 -0.41004090306E-01  0.53293253893E-01  0.73829632785E-01  0.51100000000E-03 0. -1.
</event>
<event>
 8    1  0.1143506E+005  0.1043930E+01  0.7957747E-01            NaN
         13   -1    0    0    0    0  0.00000000000E+00  0.00000000000E+00  0.74505805969E-08  0.10566000000E+00  0.10566000000E+00 0. -1.
     999900   -1    0    0    0    0 -0.00000000000E+00 -0.00000000000E+00 -0.74505805969E-08  0.93827000000E+00  0.93827000000E+00 0.  1.
     999902    2    1    2    0    0 -0.67766488215E-02  0.11328273699E-01 -0.20459171108E-01  0.10195818905E+01  0.10192911267E+01 0.  0.
     999903    2    3    3    0    0 -0.78841425228E-01 -0.99540958526E-01  0.11525451332E-01  0.12912788566E+00  0.20415730929E-01 0.  0.
         14    1    1    2    0    0  0.67766488215E-02 -0.11328273699E-01  0.20459171108E-01  0.24348109510E-01  0.00000000000E+00 0. -1.
     999901    1    3    3    0    0  0.72064776407E-01  0.11086923222E+00 -0.31984622441E-01  0.89045400483E+00  0.88000000000E+00 0. -1.
        -11    1    4    4    0    0 -0.37075851885E-01 -0.37053053729E-01  0.12780871326E-01  0.53955160795E-01  0.51100000000E-03 0. -1.
         11    1    4    4    0    0 -0.41765573344E-01 -0.62487904797E-01 -0.12554199939E-02  0.75172724861E-01  0.51100000000E-03 0.  1.
</event>
<event>
 8    1  0.1143506E+005  0.1043930E+01  0.7957747E-01            NaN
         13   -1    0    0    0    0  0.00000000000E+00  0.00000000000E+00  0.74505805969E-08  0.10566000000E+00  0.10566000000E+00 0.  1.
     999900   -1    0    0    0    0 -0.00000000000E+00 -0.00000000000E+00 -0.74505805969E-08  0.93827000000E+00  0.93827000000E+00 0. -1.
     999902    2    1    2    0    0 -0.24491224765E-01 -0.22949468853E-02  0.10860525444E-02  0.10193075228E+01  0.10190100881E+01 0.  0.
     999903    2    3    3    0    0 -0.12113139858E+00 -0.48615602297E-01 -0.13675082574E-01  0.13268312805E+00  0.19532334139E-01 0.  0.
         14    1    1    2    0    0  0.24491224765E-01  0.22949468853E-02 -0.10860525444E-02  0.24622477166E-01  0.00000000000E+00 0. -1.
     999901    1    3    3    0    0  0.96640173817E-01  0.46320655412E-01  0.14761135118E-01  0.88662439478E+00  0.88000000000E+00 0. -1.
        -11    1    4    4    0    0 -0.63186984746E-01 -0.26918663422E-01  0.24968051712E-02  0.68729212412E-01  0.51100000000E-03 0.  1.
         11    1    4    4    0    0 -0.57944413836E-01 -0.21696938875E-01 -0.16171887745E-01  0.63953915639E-01  0.51100000000E-03 0. -1.
</event>
<event>
 8    1  0.1143506E+005  0.1043930E+01  0.7957747E-01            NaN
         13   -1    0    0    0    0  0.00000000000E+00  0.00000000000E+00  0.74505805969E-08  0.10566000000E+00  0.10566000000E+00 0. -1.
     999900   -1    0    0    0    0 -0.00000000000E+00 -0.00000000000E+00 -0.74505805969E-08  0.93827000000E+00  0.93827000000E+00 0. -1.
     999902    2    1    2    0    0 -0.16287593402E-01  0.29598456651E-02 -0.17313782800E-01  0.10199755962E+01  0.10196942696E+01 0.  0.
     999903    2    3    3    0    0  0.47958241925E-01  0.11648173394E+00  0.22404754536E-01  0.12947444031E+00  0.19841127932E-01 0.  0.
         14    1    1    2    0    0  0.16287593402E-01 -0.29598456651E-02  0.17313782800E-01  0.23954403772E-01  0.00000000000E+00 0. -1.
     999901    1    3    3    0    0 -0.64245835328E-01 -0.11352188828E+00 -0.39718537336E-01  0.89050115591E+00  0.88000000000E+00 0. -1.
        -11    1    4    4    0    0  0.36284432064E-01  0.63514907334E-01  0.99663055709E-02  0.73826091808E-01  0.51100000000E-03 0.  1.
         11    1    4    4    0    0  0.11673809861E-01  0.52966826610E-01  0.12438448965E-01  0.55648348506E-01  0.51100000000E-03 0. -1.
</event>
<event>
 8    1  0.1143506E+005  0.1043930E+01  0.7957747E-01            NaN
         13   -1    0    0    0    0  0.00000000000E+00  0.00000000000E+00  0.74505805969E-08  0.10566000000E+00  0.10566000000E+00 0.  1.
     999900   -1    0    0    0    0 -0.00000000000E+00 -0.00000000000E+00 -0.74505805969E-08  0.93827000000E+00  0.93827000000E+00 0. -1.
     999902    2    1    2    0    0 -0.54542014893E-02 -0.29939860728E-01  0.60425662290E-02  0.10129032989E+01  0.10124279909E+01 0.  0.
     999903    2    3    3    0    0 -0.77671630248E-01 -0.84103242054E-01  0.51465138202E-01  0.12711989483E+00  0.20113919091E-01 0.  0.
         14    1    1    2    0    0  0.54542014893E-02  0.29939860728E-01 -0.60425662290E-02  0.31026701097E-01  0.00000000000E+00 0. -1.
     999901    1    3    3    0    0  0.72217428759E-01  0.54163381326E-01 -0.45422571973E-01  0.88578340408E+00  0.88000000000E+00 0. -1.
        -11    1    4    4    0    0 -0.44762313618E-01 -0.62021819929E-01  0.31234287870E-01  0.82620897644E-01  0.51100000000E-03 0.  1.
         11    1    4    4    0    0 -0.32909316630E-01 -0.22081422125E-01  0.20230850332E-01  0.44498997183E-01  0.51100000000E-03 0. -1.
</event>
<event>
 8    1  0.1143506E+005  0.1043930E+01  0.7957747E-01            NaN
         13   -1    0    0    0    0  0.00000000000E+00  0.00000000000E+00  0.74505805969E-08  0.10566000000E+00  0.10566000000E+00 0. -1.
     999900   -1    0    0    0    0 -0.00000000000E+00 -0.00000000000E+00 -0.74505805969E-08  0.93827000000E+00  0.93827000000E+00 0. -1.
     999902    2    1    2    0    0 -0.12511462294E-01  0.19428628065E-01 -0.42303193663E-02  0.10204373654E+01  0.10201669044E+01 0.  0.
     999903    2    3    3    0    0 -0.88057888226E-01  0.69958101283E-01 -0.68677626237E-01  0.13341203011E+00  0.20828485742E-01 0.  0.
         14    1    1    2    0    0  0.12511462294E-01 -0.19428628065E-01  0.42303193663E-02  0.23492634572E-01  0.00000000000E+00 0.  1.
     999901    1    3    3    0    0  0.75546425932E-01 -0.50529473218E-01  0.64447306870E-01  0.88702533532E+00  0.88000000000E+00 0. -1.
        -11    1    4    4    0    0 -0.80395011055E-01  0.65296363929E-01 -0.55619102931E-01  0.11756155271E+00  0.51100000000E-03 0. -1.
         11    1    4    4    0    0 -0.76628771711E-02  0.46617373541E-02 -0.13058523306E-01  0.15850477394E-01  0.51100000000E-03 0.  1.
</event>
<event>
 8    1  0.1143506E+005  0.1043930E+01  0.7957747E-01            NaN
         13   -1    0    0    0    0  0.00000000000E+00  0.00000000000E+00  0.74505805969E-08  0.10566000000E+00  0.10566000000E+00 0. -1.
     999900   -1    0    0    0    0 -0.00000000000E+00 -0.00000000000E+00 -0.74505805969E-08  0.93827000000E+00  0.93827000000E+00 0.  1.
     999902    2    1    2    0    0  0.22140046004E-01  0.22521071038E-03  0.76779429205E-02  0.10204953427E+01  0.10202262304E+01 0.  0.
     999903    2    3    3    0    0  0.11560325942E+00 -0.38750972621E-01 -0.48819760437E-01  0.13288816288E+00  0.20251996362E-01 0.  0.
         14    1    1    2    0    0 -0.22140046004E-01 -0.22521071038E-03 -0.76779429205E-02  0.23434657335E-01  0.00000000000E+00 0. -1.
     999901    1    3    3    0    0 -0.93463213412E-01  0.38976183331E-01  0.56497703358E-01  0.88760717979E+00  0.88000000000E+00 0. -1.
        -11    1    4    4    0    0  0.65927102213E-01 -0.31472325357E-01 -0.24136251758E-01  0.76939650633E-01  0.51100000000E-03 0.  1.
         11    1    4    4    0    0  0.49676157203E-01 -0.72786472636E-02 -0.24683508679E-01  0.55948512243E-01  0.51100000000E-03 0. -1.
</event>
<event>
 8    1  0.1143506E+005  0.1043930E+01  0.7957747E-01            NaN
         13   -1    0    0    0    0  0.00000000000E+00  0.00000000000E+00  0.74505805969E-08  0.10566000000E+00  0.10566000000E+00 0.  1.
     999900   -1    0    0    0    0 -0.00000000000E+00 -0.00000000000E+00 -0.74505805969E-08  0.93827000000E+00  0.93827000000E+00 0. -1.
     999902    2    1    2    0    0 -0.47456910690E-02 -0.38654297305E-02 -0.22812565762E-01  0.10203105951E+01  0.10200371730E+01 0.  0.
     999903    2    3    3    0    0  0.44532861811E-01 -0.11335911273E-01  0.11753475204E+00  0.12779641960E+00  0.20145179580E-01 0.  0.
         14    1    1    2    0    0  0.47456910690E-02  0.38654297305E-02  0.22812565762E-01  0.23619404890E-01  0.00000000000E+00 0. -1.
     999901    1    3    3    0    0 -0.49278552880E-01  0.74704815423E-02 -0.14034731780E+00  0.89251417551E+00  0.88000000000E+00 0. -1.
        -11    1    4    4    0    0 -0.27149316203E-03 -0.26492034988E-02  0.19142272623E-01  0.19333383302E-01  0.51100000000E-03 0. -1.
         11    1    4    4    0    0  0.44804354973E-01 -0.86867077740E-02  0.98392479418E-01  0.10846303630E+00  0.51100000000E-03 0.  1.
</event>
<event>
 8    1  0.1143506E+005  0.1043930E+01  0.7957747E-01            NaN
         13   -1    0    0    0    0  0.00000000000E+00  0.00000000000E+00  0.74505805969E-08  0.10566000000E+00  0.10566000000E+00 0.  1.
     999900   -1    0    0    0    0 -0.00000000000E+00 -0.00000000000E+00 -0.74505805969E-08  0.93827000000E+00  0.93827000000E+00 0. -1.
     999902    2    1    2    0    0  0.22469703058E-01 -0.28264184677E-02  0.72367134135E-02  0.10201550927E+01  0.10198780157E+01 0.  0.
     999903    2    3    3    0    0  0.56461630459E-02 -0.70933782990E-01  0.10875266714E+00  0.13154542952E+00  0.20336585047E-01 0.  0.
         14    1    1    2    0    0 -0.22469703058E-01  0.28264184677E-02 -0.72367134135E-02  0.23774907316E-01  0.00000000000E+00 0. -1.
     999901    1    3    3    0    0  0.16823540012E-01  0.68107364522E-01 -0.10151595373E+00  0.88860966316E+00  0.88000000000E+00 0. -1.
        -11    1    4    4    0    0 -0.53315432445E-03 -0.55363180595E-01  0.69458135442E-01  0.88826008124E-01  0.51100000000E-03 0. -1.
         11    1    4    4    0    0  0.61793173703E-02 -0.15570602394E-01  0.39294531701E-01  0.42719421399E-01  0.51100000000E-03 0.  1.
</event>
<event>
 8    1  0.1143506E+005  0.1043930E+01  0.7957747E-01            NaN
         13   -1    0    0    0    0  0.00000000000E+00  0.00000000000E+00  0.74505805969E-08  0.10566000000E+00  0.10566000000E+00 0. -1.
     999900   -1    0    0    0    0 -0.00000000000E+00 -0.00000000000E+00 -0.74505805969E-08  0.93827000000E+00  0.93827000000E+00 0. -1.
     999902    2    1    2    0    0  0.22032798771E-01  0.87121092600E-02  0.22264215300E-04  0.10202372677E+01  0.10199621252E+01 0.  0.
     999903    2    3    3    0    0 -0.11478430113E+00  0.43937529916E-01  0.31538282349E-01  0.12841160731E+00  0.19721443075E-01 0.  0.
         14    1    1    2    0    0 -0.22032798771E-01 -0.87121092600E-02 -0.22264215300E-04  0.23692732327E-01  0.00000000000E+00 0.  1.
     999901    1    3    3    0    0  0.13681709990E+00 -0.35225420656E-01 -0.31516018134E-01  0.89182566036E+00  0.88000000000E+00 0. -1.
        -11    1    4    4    0    0 -0.65689234414E-01  0.35261412138E-01  0.20902848063E-01  0.77431472167E-01  0.51100000000E-03 0.  1.
         11    1    4    4    0    0 -0.49095066716E-01  0.86761177783E-02  0.10635434286E-01  0.50980135141E-01  0.51100000000E-03 0. -1.
</event>
<event>
 8    1  0.1143506E+005  0.1043930E+01  0.7957747E-01            NaN
         13   -1    0    0    0    0  0.00000000000E+00  0.00000000000E+00  0.74505805969E-08  0.10566000000E+00  0.10566000000E+00 0.  1.
     999900   -1    0    0    0    0 -0.00000000000E+00 -0.00000000000E+00 -0.74505805969E-08  0.93827000000E+00  0.93827000000E+00 0.  1.
     999902    2    1    2    0    0  0.16456495561E-01 -0.13919368449E-01 -0.16022929562E-04  0.10223762226E+01  0.10221489985E+01 0.  0.
     999903    2    3    3    0    0 -0.92940371278E-01  0.77665309659E-01  0.42446780253E-01  0.12987495234E+00  0.19898772652E-01 0.  0.
         14    1    1    2    0    0 -0.16456495561E-01  0.13919368449E-01  0.16022929562E-04  0.21553777416E-01  0.00000000000E+00 0.  1.
     999901    1    3    3    0    0  0.10939686684E+00 -0.91584678108E-01 -0.42462803182E-01  0.89250127025E+00  0.88000000000E+00 0.  1.
        -11    1    4    4    0    0 -0.31992022291E-01  0.38788250304E-01  0.20753486716E-01  0.54396564081E-01  0.51100000000E-03 0.  1.
         11    1    4    4    0    0 -0.60948348987E-01  0.38877059355E-01  0.21693293537E-01  0.75478388256E-01  0.51100000000E-03 0. -1.
</event>
<event>
 8    1  0.1143506E+005  0.1043930E+01  0.7957747E-01            NaN
         13   -1    0    0    0    0  0.00000000000E+00  0.00000000000E+00  0.74505805969E-08  0.10566000000E+00  0.10566000000E+00 0. -1.
     999900   -1    0    0    0    0 -0.00000000000E+00 -0.00000000000E+00 -0.74505805969E-08  0.93827000000E+00  0.93827000000E+00 0. -1.
     999902    2    1    2    0    0  0.18285863384E-01 -0.12097796938E-01 -0.91112980699E-02  0.10201866800E+01  0.10199103475E+01 0.  0.
     999903    2    3    3    0    0 -0.11414980684E+00 -0.49796808053E-01 -0.25924225595E-01  0.12932019356E+00  0.23275448366E-01 0.  0.
         14    1    1    2    0    0 -0.18285863384E-01  0.12097796938E-01  0.91112980699E-02  0.23743319965E-01  0.00000000000E+00 0.  1.
     999901    1    3    3    0    0  0.13243567022E+00  0.37699011115E-01  0.16812927525E-01  0.89086648647E+00  0.88000000000E+00 0.  1.
        -11    1    4    4    0    0 -0.17603565269E-01 -0.68847894018E-02  0.43720131822E-02  0.19407767918E-01  0.51100000000E-03 0.  1.
         11    1    4    4    0    0 -0.96546241570E-01 -0.42912018651E-01 -0.30296238777E-01  0.10991242564E+00  0.51100000000E-03 0. -1.
</event>
<event>
 8    1  0.1143506E+005  0.1043930E+01  0.7957747E-01            NaN
         13   -1    0    0    0    0  0.00000000000E+00  0.00000000000E+00  0.74505805969E-08  0.10566000000E+00  0.10566000000E+00 0. -1.
     999900   -1    0    0    0    0 -0.00000000000E+00 -0.00000000000E+00 -0.74505805969E-08  0.93827000000E+00  0.93827000000E+00 0. -1.
     999902    2    1    2    0    0 -0.57278324589E-02 -0.14403120888E-01  0.96638958840E-02  0.10256639430E+01  0.10255012799E+01 0.  0.
     999903    2    3    3    0    0 -0.12225361302E+00  0.42200638237E-01  0.36201784896E-01  0.13578389339E+00  0.19996417387E-01 0.  0.
         14    1    1    2    0    0  0.57278324589E-02  0.14403120888E-01 -0.96638958840E-02  0.18266057036E-01  0.00000000000E+00 0. -1.
     999901    1    3    3    0    0  0.11652578056E+00 -0.56603759126E-01 -0.26537889012E-01  0.88988004958E+00  0.88000000000E+00 0. -1.
        -11    1    4    4    0    0 -0.85889155144E-01  0.23725649236E-01  0.17066094774E-01  0.90726876475E-01  0.51100000000E-03 0.  1.
         11    1    4    4    0    0 -0.36364457880E-01  0.18474989001E-01  0.19135690122E-01  0.45057016911E-01  0.51100000000E-03 0. -1.
</event>
<event>
 8    1  0.1143506E+005  0.1043930E+01  0.7957747E-01            NaN
         13   -1    0    0    0    0  0.00000000000E+00  0.00000000000E+00  0.74505805969E-08  0.10566000000E+00  0.10566000000E+00 0. -1.
     999900   -1    0    0    0    0 -0.00000000000E+00 -0.00000000000E+00 -0.74505805969E-08  0.93827000000E+00  0.93827000000E+00 0. -1.
     999902    2    1    2    0    0  0.17411615631E-01  0.17376023926E-01  0.87226153670E-03  0.10193159510E+01  0.10190187224E+01 0.  0.
     999903    2    3    3    0    0  0.87053677830E-01  0.87547468383E-01 -0.43780665369E-01  0.13265483633E+00  0.20920250903E-01 0.  0.
         14    1    1    2    0    0 -0.17411615631E-01 -0.17376023926E-01 -0.87226153670E-03  0.24614048967E-01  0.00000000000E+00 0. -1.
     999901    1    3    3    0    0 -0.69642062198E-01 -0.70171444456E-01  0.44652926905E-01  0.88666111470E+00  0.88000000000E+00 0. -1.
        -11    1    4    4    0    0  0.22804289097E-02  0.97497128767E-02 -0.18771017123E-02  0.10200092599E-01  0.51100000000E-03 0.  1.
         11    1    4    4    0    0  0.84773248920E-01  0.77797755506E-01 -0.41903563656E-01  0.12245474373E+00  0.51100000000E-03 0. -1.
</event>
<event>
 8    1  0.1143506E+005  0.1043930E+01  0.7957747E-01            NaN
         13   -1    0    0    0    0  0.00000000000E+00  0.00000000000E+00  0.74505805969E-08  0.10566000000E+00  0.10566000000E+00 0. -1.
     999900   -1    0    0    0    0 -0.00000000000E+00 -0.00000000000E+00 -0.74505805969E-08  0.93827000000E+00  0.93827000000E+00 0.  1.
     999902    2    1    2    0    0  0.18403880413E-01 -0.24127603979E-02 -0.15304377298E-01  0.10198728141E+01  0.10195890392E+01 0.  0.
     999903    2    3    3    0    0 -0.91582538030E-01 -0.42827688662E-01 -0.79009487793E-01  0.12982297297E+00  0.19746720253E-01 0.  0.
         14    1    1    2    0    0 -0.18403880413E-01  0.24127603979E-02  0.15304377298E-01  0.24057185859E-01  0.00000000000E+00 0. -1.
     999901    1    3    3    0    0  0.10998641844E+00  0.40414928264E-01  0.63705110496E-01  0.89004984117E+00  0.88000000000E+00 0. -1.
        -11    1    4    4    0    0 -0.62299487697E-01 -0.33798018876E-01 -0.64822393515E-01  0.96050695309E-01  0.51100000000E-03 0.  1.
         11    1    4    4    0    0 -0.29283050333E-01 -0.90296697863E-02 -0.14187094278E-01  0.33772277659E-01  0.51100000000E-03 0. -1.
</event>
<event>
 8    1  0.1143506E+005  0.1043930E+01  0.7957747E-01            NaN
         13   -1    0    0    0    0  0.00000000000E+00  0.00000000000E+00  0.74505805969E-08  0.10566000000E+00  0.10566000000E+00 0.  1.
     999900   -1    0    0    0    0 -0.00000000000E+00 -0.00000000000E+00 -0.74505805969E-08  0.93827000000E+00  0.93827000000E+00 0. -1.
     999902    2    1    2    0    0  0.74928620285E-02 -0.16565661537E-01  0.12933613984E-01  0.10216176157E+01  0.10213739326E+01 0.  0.
     999903    2    3    3    0    0 -0.23496812401E-02 -0.10853217061E+00 -0.73403255963E-01  0.13256825284E+00  0.20038727900E-01 0.  0.
         14    1    1    2    0    0 -0.74928620285E-02  0.16565661537E-01 -0.12933613984E-01  0.22312384324E-01  0.00000000000E+00 0.  1.
     999901    1    3    3    0    0  0.98425432686E-02  0.91966509071E-01  0.86336869947E-01  0.88904936284E+00  0.88000000000E+00 0.  1.
        -11    1    4    4    0    0 -0.11136189881E-01 -0.55107850838E-01 -0.36039418512E-01  0.66783162224E-01  0.51100000000E-03 0.  1.
         11    1    4    4    0    0  0.87865086410E-02 -0.53424319771E-01 -0.37363837452E-01  0.65785090615E-01  0.51100000000E-03 0. -1.
</event>
<event>
 8    1  0.1143506E+005  0.1043930E+01  0.7957747E-01            NaN
         13   -1    0    0    0    0  0.00000000000E+00  0.00000000000E+00  0.74505805969E-08  0.10566000000E+00  0.10566000000E+00 0.  1.
     999900   -1    0    0    0    0 -0.00000000000E+00 -0.00000000000E+00 -0.74505805969E-08  0.93827000000E+00  0.93827000000E+00 0.  1.
     999902    2    1    2    0    0  0.14287786749E-01 -0.14030000119E-01 -0.12953984851E-01  0.10200807342E+01  0.10198019008E+01 0.  0.
     999903    2    3    3    0    0 -0.10244345815E-01  0.12371796572E+00  0.26515034045E-01  0.12815353370E+00  0.17584069660E-01 0.  0.
         14    1    1    2    0    0 -0.14287786749E-01  0.14030000119E-01  0.12953984851E-01  0.23849265755E-01  0.00000000000E+00 0.  1.
     999901    1    3    3    0    0  0.24532132564E-01 -0.13774796584E+00 -0.39469018896E-01  0.89192720055E+00  0.88000000000E+00 0.  1.
        -11    1    4    4    0    0  0.48017705329E-02  0.43019687959E-01  0.90648368844E-02  0.44228756947E-01  0.51100000000E-03 0. -1.
         11    1    4    4    0    0 -0.15046116348E-01  0.80698277762E-01  0.17450197161E-01  0.83924776752E-01  0.51100000000E-03 0.  1.
</event>
<event>
 8    1  0.1143506E+005  0.1043930E+01  0.7957747E-01            NaN
         13   -1    0    0    0    0  0.00000000000E+00  0.00000000000E+00  0.74505805969E-08  0.10566000000E+00  0.10566000000E+00 0. -1.
     999900   -1    0    0    0    0 -0.00000000000E+00 -0.00000000000E+00 -0.74505805969E-08  0.93827000000E+00  0.93827000000E+00 0. -1.
     999902    2    1    2    0    0  0.14909829972E-01 -0.16056502692E-01 -0.21494425929E-02  0.10219133151E+01  0.10216761176E+01 0.  0.
     999903    2    3    3    0    0  0.20826348713E-01  0.36438441551E-01 -0.12357708440E+00  0.13200579379E+00  0.19817592765E-01 0.  0.
         14    1    1    2    0    0 -0.14909829972E-01  0.16056502692E-01  0.21494425929E-02  0.22016684854E-01  0.00000000000E+00 0.  1.
     999901    1    3    3    0    0 -0.59165187409E-02 -0.52494944243E-01  0.12142764181E+00  0.88990752135E+00  0.88000000000E+00 0. -1.
        -11    1    4    4    0    0  0.17123435945E-01  0.12515745511E-01 -0.71379344795E-01  0.74465615747E-01  0.51100000000E-03 0.  1.
         11    1    4    4    0    0  0.37029127680E-02  0.23922696039E-01 -0.52197739605E-01  0.57540178047E-01  0.51100000000E-03 0. -1.
</event>
<event>
 8    1  0.1143506E+005  0.1043930E+01  0.7957747E-01            NaN
         13   -1    0    0    0    0  0.00000000000E+00  0.00000000000E+00  0.74505805969E-08  0.10566000000E+00  0.10566000000E+00 0. -1.
     999900   -1    0    0    0    0 -0.00000000000E+00 -0.00000000000E+00 -0.74505805969E-08  0.93827000000E+00  0.93827000000E+00 0.  1.
     999902    2    1    2    0    0 -0.46151630989E-02 -0.17848260688E-01  0.13380174201E-01  0.10211508604E+01  0.10208967580E+01 0.  0.
     999903    2    3    3    0    0  0.60422532518E-01 -0.32686352965E-01 -0.10877402182E+00  0.13021218772E+00  0.20103380399E-01 0.  0.
         14    1    1    2    0    0  0.46151630989E-02  0.17848260688E-01 -0.13380174201E-01  0.22779139617E-01  0.00000000000E+00 0.  1.
     999901    1    3    3    0    0 -0.65037695617E-01  0.14838092277E-01  0.12215419602E+00  0.89093867266E+00  0.88000000000E+00 0. -1.
        -11    1    4    4    0    0  0.13998734153E-01 -0.12986415405E-01 -0.45146296164E-01  0.49021023258E-01  0.51100000000E-03 0. -1.
         11    1    4    4    0    0  0.46423798365E-01 -0.19699937559E-01 -0.63627725655E-01  0.81191164467E-01  0.51100000000E-03 0.  1.
</event>
<event>
 8    1  0.1143506E+005  0.1043930E+01  0.7957747E-01            NaN
         13   -1    0    0    0    0  0.00000000000E+00  0.00000000000E+00  0.74505805969E-08  0.10566000000E+00  0.10566000000E+00 0. -1.
     999900   -1    0    0    0    0 -0.00000000000E+00 -0.00000000000E+00 -0.74505805969E-08  0.93827000000E+00  0.93827000000E+00 0.  1.
     999902    2    1    2    0    0  0.15593316718E-01 -0.61640072547E-02 -0.16719024396E-01  0.10202514804E+01  0.10199766718E+01 0.  0.
     999903    2    3    3    0    0 -0.85076306794E-01  0.11224662030E-01  0.92302596783E-01  0.12765837448E+00  0.20320437686E-01 0.  0.
         14    1    1    2    0    0 -0.15593316718E-01  0.61640072547E-02  0.16719024396E-01  0.23678519558E-01  0.00000000000E+00 0. -1.
     999901    1    3    3    0    0  0.10066962351E+00 -0.17388669285E-01 -0.10902162118E+00  0.89259310596E+00  0.88000000000E+00 0.  1.
        -11    1    4    4    0    0 -0.41094150369E-01 -0.34373467905E-03  0.56014314412E-01  0.69474541295E-01  0.51100000000E-03 0. -1.
         11    1    4    4    0    0 -0.43982156425E-01  0.11568396709E-01  0.36288282370E-01  0.58183833189E-01  0.51100000000E-03 0.  1.
</event>
<event>
 8    1  0.1143506E+005  0.1043930E+01  0.7957747E-01            NaN
         13   -1    0    0    0    0  0.00000000000E+00  0.00000000000E+00  0.74505805969E-08  0.10566000000E+00  0.10566000000E+00 0. -1.
     999900   -1    0    0    0    0 -0.00000000000E+00 -0.00000000000E+00 -0.74505805969E-08  0.93827000000E+00  0.93827000000E+00 0. -1.
     999902    2    1    2    0    0  0.16994060240E-01 -0.22908105267E-03 -0.14502776480E-01  0.10215876392E+01  0.10213432936E+01 0.  0.
     999903    2    3    3    0    0  0.10372082171E+00  0.75558744900E-01 -0.31720087161E-01  0.13391553670E+00  0.21449341584E-01 0.  0.
         14    1    1    2    0    0 -0.16994060240E-01  0.22908105267E-03  0.14502776480E-01  0.22342360824E-01  0.00000000000E+00 0. -1.
     999901    1    3    3    0    0 -0.86726761470E-01 -0.75787825953E-01  0.17217310681E-01  0.88767210247E+00  0.88000000000E+00 0.  1.
        -11    1    4    4    0    0  0.80236917906E-01  0.46845997904E-01 -0.20347808244E-01  0.95114693586E-01  0.51100000000E-03 0.  1.
         11    1    4    4    0    0  0.23483903804E-01  0.28712746997E-01 -0.11372278917E-01  0.38800843119E-01  0.51100000000E-03 0. -1.
</event>
<event>
 8    1  0.1143506E+005  0.1043930E+01  0.7957747E-01            NaN
         13   -1    0    0    0    0  0.00000000000E+00  0.00000000000E+00  0.74505805969E-08  0.10566000000E+00  0.10566000000E+00 0. -1.
     999900   -1    0    0    0    0 -0.00000000000E+00 -0.00000000000E+00 -0.74505805969E-08  0.93827000000E+00  0.93827000000E+00 0.  1.
     999902    2    1    2    0    0 -0.10400039325E-01 -0.97805520321E-02 -0.16628000574E-01  0.10220140145E+01  0.10217790052E+01 0.  0.
     999903    2    3    3    0    0  0.86385874901E-01  0.56341854103E-02 -0.98649419725E-01  0.13278252582E+00  0.20130268803E-01 0.  0.
         14    1    1    2    0    0  0.10400039325E-01  0.97805520321E-02  0.16628000574E-01  0.21915985469E-01  0.00000000000E+00 0. -1.
     999901    1    3    3    0    0 -0.96785914226E-01 -0.15414737442E-01  0.82021419151E-01  0.88923148872E+00  0.88000000000E+00 0.  1.
        -11    1    4    4    0    0  0.42087911992E-01  0.12458598679E-01 -0.44835715757E-01  0.62746406632E-01  0.51100000000E-03 0.  1.
         11    1    4    4    0    0  0.44297962910E-01 -0.68244132686E-02 -0.53813703969E-01  0.70036119183E-01  0.51100000000E-03 0. -1.
</event>
<event>
 8    1  0.1143506E+005  0.1043930E+01  0.7957747E-01            NaN
         13   -1    0    0    0    0  0.00000000000E+00  0.00000000000E+00  0.74505805969E-08  0.10566000000E+00  0.10566000000E+00 0. -1.
     999900   -1    0    0    0    0 -0.00000000000E+00 -0.00000000000E+00 -0.74505805969E-08  0.93827000000E+00  0.93827000000E+00 0.  1.
     999902    2    1    2    0    0 -0.20328440193E-01 -0.84602875740E-02 -0.49662298108E-02  0.10213582171E+01  0.10211087710E+01 0.  0.
     999903    2    3    3    0    0  0.18939427209E-01  0.10698657187E+00 -0.69941688565E-01  0.13057667650E+00  0.18804259695E-01 0.  0.
         14    1    1    2    0    0  0.20328440193E-01  0.84602875740E-02  0.49662298108E-02  0.22571782939E-01  0.00000000000E+00 0.  1.
     999901    1    3    3    0    0 -0.39267867402E-01 -0.11544685944E+00  0.64975458754E-01  0.89078154056E+00  0.88000000000E+00 0. -1.
        -11    1    4    4    0    0  0.15026422629E-01  0.35041010945E-01 -0.21836801961E-01  0.43940560601E-01  0.51100000000E-03 0. -1.
         11    1    4    4    0    0  0.39130045804E-02  0.71945560925E-01 -0.48104886605E-01  0.86636115898E-01  0.51100000000E-03 0.  1.
</event>
<event>
 8    1  0.1143506E+005  0.1043930E+01  0.7957747E-01            NaN
         13   -1    0    0    0    0  0.00000000000E+00  0.00000000000E+00  0.74505805969E-08  0.10566000000E+00  0.10566000000E+00 0. -1.
     999900   -1    0    0    0    0 -0.00000000000E+00 -0.00000000000E+00 -0.74505805969E-08  0.93827000000E+00  0.93827000000E+00 0. -1.
     999902    2    1    2    0    0 -0.83835861453E-02  0.19037197062E-01  0.11859491429E-01  0.10199853362E+01  0.10197042410E+01 0.  0.
     999903    2    3    3    0    0 -0.93007282219E-01 -0.14009220441E-01 -0.87105591139E-01  0.12979023216E+00  0.20285648955E-01 0.  0.
         14    1    1    2    0    0  0.83835861453E-02 -0.19037197062E-01 -0.11859491429E-01  0.23944663823E-01  0.00000000000E+00 0.  1.
     999901    1    3    3    0    0  0.84623696074E-01  0.33046417503E-01  0.98965082568E-01  0.89019510402E+00  0.88000000000E+00 0.  1.
        -11    1    4    4    0    0 -0.12022229908E-01  0.19030704306E-02 -0.19995504968E-01  0.23414461961E-01  0.51100000000E-03 0. -1.
         11    1    4    4    0    0 -0.80985052311E-01 -0.15912290871E-01 -0.67110086172E-01  0.10637577020E+00  0.51100000000E-03 0.  1.
</event>
<event>
 8    1  0.1143506E+005  0.1043930E+01  0.7957747E-01            NaN
         13   -1    0    0    0    0  0.00000000000E+00  0.00000000000E+00  0.74505805969E-08  0.10566000000E+00  0.10566000000E+00 0. -1.
     999900   -1    0    0    0    0 -0.00000000000E+00 -0.00000000000E+00 -0.74505805969E-08  0.93827000000E+00  0.93827000000E+00 0.  1.
     999902    2    1    2    0    0  0.11518465787E-01 -0.18802757493E-01 -0.55635433938E-02  0.10211885893E+01  0.10209353374E+01 0.  0.
     999903    2    3    3    0    0  0.12016614657E+00 -0.50840305043E-01  0.19849470095E-01  0.13356448859E+00  0.20514184107E-01 0.  0.
         14    1    1    2    0    0 -0.11518465787E-01  0.18802757493E-01  0.55635433938E-02  0.22741410654E-01  0.00000000000E+00 0.  1.
     999901    1    3    3    0    0 -0.10864768079E+00  0.32037547550E-01 -0.25413013489E-01  0.88762410076E+00  0.88000000000E+00 0. -1.
        -11    1    4    4    0    0  0.36407552239E-01 -0.58920725084E-02  0.28172738966E-02  0.36992222584E-01  0.51100000000E-03 0. -1.
         11    1    4    4    0    0  0.83758594333E-01 -0.44948232535E-01  0.17032196198E-01  0.96572266003E-01  0.51100000000E-03 0.  1.
</event>
<event>
 7    1  0.1143506E+005  0.1043930E+01  0.7957747E-01            NaN
         13   -1    0    0    0    0  0.00000000000E+00  0.00000000000E+00  0.74505805969E-08  0.10566000000E+00  0.10566000000E+00 0. -1.
     999900   -1    0    0    0    0 -0.00000000000E+00 -0.00000000000E+00 -0.74505805969E-08  0.93827000000E+00  0.93827000000E+00 0. -1.
     999902    2    1    2    0    0  0.10953549640E-01 -0.70735565912E-02  0.19130296295E-01  0.10207786785E+01  0.10205161080E+01 0.  0.
         14    1    1    2    0    0 -0.10953549640E-01  0.70735565912E-02 -0.19130296295E-01  0.23151321537E-01  0.00000000000E+00 0.  1.
     999901    1    3    3    0    0 -0.20047418734E-01  0.94189145608E-01 -0.61790634866E-01  0.88740722146E+00  0.88000000000E+00 0. -1.
        -11    1    3    3    0    0  0.12880714013E-01 -0.50348072178E-01  0.39553777831E-01  0.65311588767E-01  0.51100000000E-03 0.  1.
         11    1    3    3    0    0  0.18120254361E-01 -0.50914630020E-01  0.41367153330E-01  0.68059868233E-01  0.51100000000E-03 0. -1.
</event>
<event>
 8    1  0.1143506E+005  0.1043930E+01  0.7957747E-01            NaN
         13   -1    0    0    0    0  0.00000000000E+00  0.00000000000E+00  0.74505805969E-08  0.10566000000E+00  0.10566000000E+00 0.  1.
     999900   -1    0    0    0    0 -0.00000000000E+00 -0.00000000000E+00 -0.74505805969E-08  0.93827000000E+00  0.93827000000E+00 0. -1.
     999902    2    1    2    0    0  0.99507685549E-02  0.83941525676E-03 -0.22282868304E-01  0.10195117971E+01  0.10192193365E+01 0.  0.
     999903    2    3    3    0    0  0.63440773213E-01  0.58506216252E-01 -0.98647986875E-01  0.13270952384E+00  0.20801042206E-01 0.  0.
         14    1    1    2    0    0 -0.99507685549E-02 -0.83941525676E-03  0.22282868304E-01  0.24418202896E-01  0.00000000000E+00 0.  1.
     999901    1    3    3    0    0 -0.53490004658E-01 -0.57666800995E-01  0.76365118572E-01  0.88680227327E+00  0.88000000000E+00 0.  1.
        -11    1    4    4    0    0  0.44058909388E-01  0.52337574203E-01 -0.75196526649E-01  0.10166212624E+00  0.51100000000E-03 0. -1.
         11    1    4    4    0    0  0.19381863826E-01  0.61686420480E-02 -0.23451460226E-01  0.31047397601E-01  0.51100000000E-03 0.  1.
</event>
<event>
 8    1  0.1143506E+005  0.1043930E+01  0.7957747E-01            NaN
         13   -1    0    0    0    0  0.00000000000E+00  0.00000000000E+00  0.74505805969E-08  0.10566000000E+00  0.10566000000E+00 0.  1.
     999900   -1    0    0    0    0 -0.00000000000E+00 -0.00000000000E+00 -0.74505805969E-08  0.93827000000E+00  0.93827000000E+00 0.  1.
     999902    2    1    2    0    0 -0.13869363294E-01 -0.16437492881E-02  0.18386263366E-01  0.10208406988E+01  0.10205795493E+01 0.  0.
     999903    2    3    3    0    0 -0.97913995412E-01 -0.84825627706E-01  0.23185059476E-01  0.13291854368E+00  0.18634770144E-01 0.  0.
         14    1    1    2    0    0  0.13869363294E-01  0.16437492881E-02 -0.18386263366E-01  0.23089301212E-01  0.00000000000E+00 0. -1.
     999901    1    3    3    0    0  0.84044632118E-01  0.83181878418E-01 -0.47987961093E-02  0.88792215511E+00  0.88000000000E+00 0.  1.
        -11    1    4    4    0    0 -0.43954024479E-01 -0.50090889890E-01  0.13865240863E-01  0.68070254466E-01  0.51100000000E-03 0.  1.
         11    1    4    4    0    0 -0.53959970933E-01 -0.34734737816E-01  0.93198186125E-02  0.64848289215E-01  0.51100000000E-03 0. -1.
</event>
<event>
 8    1  0.1143506E+005  0.1043930E+01  0.7957747E-01            NaN
         13   -1    0    0    0    0  0.00000000000E+00  0.00000000000E+00  0.74505805969E-08  0.10566000000E+00  0.10566000000E+00 0. -1.
     999900   -1    0    0    0    0 -0.00000000000E+00 -0.00000000000E+00 -0.74505805969E-08  0.93827000000E+00  0.93827000000E+00 0.  1.
     999902    2    1    2    0    0  0.12426847635E-01  0.98528980623E-02  0.22125288532E-01  0.10167080505E+01  0.10163435568E+01 0.  0.
     999903    2    3    3    0    0  0.54756941804E-01  0.15848356144E-01  0.11588078103E+00  0.13069570590E+00  0.20087783873E-01 0.  0.
         14    1    1    2    0    0 -0.12426847635E-01 -0.98528980623E-02 -0.22125288532E-01  0.27221949507E-01  0.00000000000E+00 0.  1.
     999901    1    3    3    0    0 -0.42330094169E-01 -0.59954580820E-02 -0.93755492500E-01  0.88601234459E+00  0.88000000000E+00 0.  1.
        -11    1    4    4    0    0  0.32089149778E-01  0.92744524155E-02  0.45398742528E-01  0.56365201544E-01  0.51100000000E-03 0. -1.
         11    1    4    4    0    0  0.22667792026E-01  0.65739037288E-02  0.70482038504E-01  0.74330504359E-01  0.51100000000E-03 0.  1.
</event>
<event>
 8    1  0.1143506E+005  0.1043930E+01  0.7957747E-01            NaN
         13   -1    0    0    0    0  0.00000000000E+00  0.00000000000E+00  0.74505805969E-08  0.10566000000E+00  0.10566000000E+00 0.  1.
     999900   -1    0    0    0    0 -0.00000000000E+00 -0.00000000000E+00 -0.74505805969E-08  0.93827000000E+00  0.93827000000E+00 0. -1.
     999902    2    1    2    0    0  0.23405568770E-01 -0.15291163063E-02 -0.48681015029E-02  0.10199746820E+01  0.10196933337E+01 0.  0.
     999903    2    3    3    0    0  0.60617795505E-01 -0.53555503143E-02 -0.11572135885E+00  0.13223156825E+00  0.19762482053E-01 0.  0.
         14    1    1    2    0    0 -0.23405568770E-01  0.15291163063E-02  0.48681015029E-02  0.23955317956E-01  0.00000000000E+00 0. -1.
     999901    1    3    3    0    0 -0.37212226735E-01  0.38264340080E-02  0.11085325735E+00  0.88774311379E+00  0.88000000000E+00 0.  1.
        -11    1    4    4    0    0  0.38395438550E-01 -0.28553236230E-02 -0.91445731286E-01  0.99221698564E-01  0.51100000000E-03 0.  1.
         11    1    4    4    0    0  0.22222356956E-01 -0.25002266913E-02 -0.24275627567E-01  0.33009869690E-01  0.51100000000E-03 0. -1.
</event>
<event>
 8    1  0.1143506E+005  0.1043930E+01  0.7957747E-01            NaN
         13   -1    0    0    0    0  0.00000000000E+00  0.00000000000E+00  0.74505805969E-08  0.10566000000E+00  0.10566000000E+00 0.  1.
     999900   -1    0    0    0    0 -0.00000000000E+00 -0.00000000000E+00 -0.74505805969E-08  0.93827000000E+00  0.93827000000E+00 0. -1.
     999902    2    1    2    0    0 -0.18532679048E-01 -0.16846650593E-01 -0.11092265358E-02  0.10188600935E+01  0.10185516138E+01 0.  0.
     999903    2    3    3    0    0  0.80477701854E-01 -0.99399080111E-01  0.61872342397E-03  0.12946651079E+00  0.20108629333E-01 0.  0.
         14    1    1    2    0    0  0.18532679048E-01  0.16846650593E-01  0.11092265358E-02  0.25069906510E-01  0.00000000000E+00 0. -1.
     999901    1    3    3    0    0 -0.99010380902E-01  0.82552429518E-01 -0.17279499598E-02  0.88939358270E+00  0.88000000000E+00 0. -1.
        -11    1    4    4    0    0  0.37812747462E-01 -0.54379860508E-01 -0.84776579368E-02  0.66776529593E-01  0.51100000000E-03 0. -1.
         11    1    4    4    0    0  0.42664954392E-01 -0.45019219603E-01  0.90963813608E-02  0.62689981192E-01  0.51100000000E-03 0.  1.
</event>
<event>
 8    1  0.1143506E+005  0.1043930E+01  0.7957747E-01            NaN
         13   -1    0    0    0    0  0.00000000000E+00  0.00000000000E+00  0.74505805969E-08  0.10566000000E+00  0.10566000000E+00 0.  1.
     999900   -1    0    0    0    0 -0.00000000000E+00 -0.00000000000E+00 -0.74505805969E-08  0.93827000000E+00  0.93827000000E+00 0.  1.
     999902    2    1    2    0    0  0.59886613270E-02 -0.20243765689E-01  0.10286392587E-01  0.10204463038E+01  0.10201760510E+01 0.  0.
     999903    2    3    3    0    0  0.70860590617E-01 -0.89302935588E-01  0.66865420677E-01  0.13355356928E+00  0.19218058658E-01 0.  0.
         14    1    1    2    0    0 -0.59886613270E-02  0.20243765689E-01 -0.10286392587E-01  0.23483696179E-01  0.00000000000E+00 0. -1.
     999901    1    3    3    0    0 -0.64871929290E-01  0.69059169899E-01 -0.56579028090E-01  0.88689273454E+00  0.88000000000E+00 0.  1.
        -11    1    4    4    0    0  0.50239757743E-01 -0.48716716865E-01  0.43205722174E-01  0.82245652224E-01  0.51100000000E-03 0.  1.
         11    1    4    4    0    0  0.20620832874E-01 -0.40586218723E-01  0.23659698503E-01  0.51307917059E-01  0.51100000000E-03 0. -1.
</event>
<event>
 8    1  0.1143506E+005  0.1043930E+01  0.7957747E-01            NaN
         13   -1    0    0    0    0  0.00000000000E+00  0.00000000000E+00  0.74505805969E-08  0.10566000000E+00  0.10566000000E+00 0.  1.
     999900   -1    0    0    0    0 -0.00000000000E+00 -0.00000000000E+00 -0.74505805969E-08  0.93827000000E+00  0.93827000000E+00 0.  1.
     999902    2    1    2    0    0  0.10413364433E-01  0.19047606253E-01  0.13113065899E-01  0.10185685734E+01  0.10182527863E+01 0.  0.
     999903    2    3    3    0    0 -0.12293451028E+00  0.21520557217E-01  0.24144139178E-01  0.12845090939E+00  0.18457206307E-01 0.  0.
         14    1    1    2    0    0 -0.10413364433E-01 -0.19047606253E-01 -0.13113065899E-01  0.25361426616E-01  0.00000000000E+00 0. -1.
     999901    1    3    3    0    0  0.13334787472E+00 -0.24729509642E-02 -0.11031073279E-01  0.89011766399E+00  0.88000000000E+00 0. -1.
        -11    1    4    4    0    0 -0.80273117231E-01  0.22686694766E-01  0.17874629377E-01  0.85312501814E-01  0.51100000000E-03 0. -1.
         11    1    4    4    0    0 -0.42661393052E-01 -0.11661375494E-02  0.62695098013E-02  0.43138407575E-01  0.51100000000E-03 0.  1.
</event>
<event>
 8    1  0.1143506E+005  0.1043930E+01  0.7957747E-01            NaN
         13   -1    0    0    0    0  0.00000000000E+00  0.00000000000E+00  0.74505805969E-08  0.10566000000E+00  0.10566000000E+00 0.  1.
     999900   -1    0    0    0    0 -0.00000000000E+00 -0.00000000000E+00 -0.74505805969E-08  0.93827000000E+00  0.93827000000E+00 0. -1.
     999902    2    1    2    0    0  0.55768011980E-02 -0.19194507141E-01  0.12185015501E-01  0.10205205058E+01  0.10202519779E+01 0.  0.
     999903    2    3    3    0    0 -0.11804818923E+00  0.19840207242E-01  0.47377296272E-01  0.13032651356E+00  0.20282581997E-01 0.  0.
         14    1    1    2    0    0 -0.55768011980E-02  0.19194507141E-01 -0.12185015501E-01  0.23409494201E-01  0.00000000000E+00 0. -1.
     999901    1    3    3    0    0  0.12362499043E+00 -0.39034714383E-01 -0.35192280770E-01  0.89019399223E+00  0.88000000000E+00 0. -1.
        -11    1    4    4    0    0 -0.83358481742E-01  0.15886349351E-01  0.43006846450E-01  0.95136021236E-01  0.51100000000E-03 0.  1.
         11    1    4    4    0    0 -0.34689707486E-01  0.39538578913E-02  0.43704498215E-02  0.35190492328E-01  0.51100000000E-03 0. -1.
</event>
<event>
 8    1  0.1143506E+005  0.1043930E+01  0.7957747E-01            NaN
         13   -1    0    0    0    0  0.00000000000E+00  0.00000000000E+00  0.74505805969E-08  0.10566000000E+00  0.10566000000E+00 0.  1.
     999900   -1    0    0    0    0 -0.00000000000E+00 -0.00000000000E+00 -0.74505805969E-08  0.93827000000E+00  0.93827000000E+00 0. -1.
     999902    2    1    2    0    0 -0.12057779326E-01 -0.24890524813E-02  0.16861398114E-01  0.10230519692E+01  0.10228389118E+01 0.  0.
     999903    2    3    3    0    0 -0.29107390805E-01 -0.54683367247E-01  0.11879889633E+00  0.13546750036E+00  0.20018866883E-01 0.  0.
         14    1    1    2    0    0  0.12057779326E-01  0.24890524813E-02 -0.16861398114E-01  0.20878030820E-01  0.00000000000E+00 0. -1.
     999901    1    3    3    0    0  0.17049611478E-01  0.52194314766E-01 -0.10193749822E+00  0.88758446882E+00  0.88000000000E+00 0. -1.
        -11    1    4    4    0    0 -0.10824200686E-01 -0.40579486621E-01  0.75938837511E-01  0.86780333131E-01  0.51100000000E-03 0.  1.
         11    1    4    4    0    0 -0.18283190119E-01 -0.14103880627E-01  0.42860058822E-01  0.48687167230E-01  0.51100000000E-03 0. -1.
</event>
<event>
 8    1  0.1143506E+005  0.1043930E+01  0.7957747E-01            NaN
         13   -1    0    0    0    0  0.00000000000E+00  0.00000000000E+00  0.74505805969E-08  0.10566000000E+00  0.10566000000E+00 0. -1.
     999900   -1    0    0    0    0 -0.00000000000E+00 -0.00000000000E+00 -0.74505805969E-08  0.93827000000E+00  0.93827000000E+00 0. -1.
     999902    2    1    2    0    0 -0.29056468216E-02 -0.79745276428E-02 -0.22196083191E-01  0.10201665410E+01  0.10198897339E+01 0.  0.
     999903    2    3    3    0    0  0.83452827548E-01  0.26423501639E-01  0.91257019136E-01  0.12802719261E+00  0.20013561455E-01 0.  0.
         14    1    1    2    0    0  0.29056468216E-02  0.79745276428E-02  0.22196083191E-01  0.23763458999E-01  0.00000000000E+00 0. -1.
     999901    1    3    3    0    0 -0.86358474370E-01 -0.34398029282E-01 -0.11345310233E+00  0.89213934839E+00  0.88000000000E+00 0. -1.
        -11    1    4    4    0    0  0.74312644950E-02  0.54252531791E-02  0.18754024331E-01  0.20895731948E-01  0.51100000000E-03 0. -1.
         11    1    4    4    0    0  0.76021563053E-01  0.20998248460E-01  0.72502994805E-01  0.10713146066E+00  0.51100000000E-03 0.  1.
</event>
<event>
 8    1  0.1143506E+005  0.1043930E+01  0.7957747E-01            NaN
         13   -1    0    0    0    0  0.00000000000E+00  0.00000000000E+00  0.74505805969E-08  0.10566000000E+00  0.10566000000E+00 0.  1.
     999900   -1    0    0    0    0 -0.00000000000E+00 -0.00000000000E+00 -0.74505805969E-08  0.93827000000E+00  0.93827000000E+00 0.  1.
     999902    2    1    2    0    0  0.87803456605E-02  0.13747584673E-01 -0.16962583813E-01  0.10203966236E+01  0.10201252128E+01 0.  0.
     999903    2    3    3    0    0 -0.42667406069E-01  0.11253846616E+00 -0.52187791433E-01  0.13267632720E+00  0.19850146541E-01 0.  0.
         14    1    1    2    0    0 -0.87803456605E-02 -0.13747584673E-01  0.16962583813E-01  0.23533376381E-01  0.00000000000E+00 0.  1.
     999901    1    3    3    0    0  0.51447751729E-01 -0.98790881489E-01  0.35225207621E-01  0.88772029642E+00  0.88000000000E+00 0.  1.
        -11    1    4    4    0    0 -0.20268414518E-01  0.63050178788E-01 -0.18539319095E-01  0.68775730791E-01  0.51100000000E-03 0. -1.
         11    1    4    4    0    0 -0.22398991551E-01  0.49488287374E-01 -0.33648472338E-01  0.63900596409E-01  0.51100000000E-03 0.  1.
</event>
<event>
 8    1  0.1143506E+005  0.1043930E+01  0.7957747E-01            NaN
         13   -1    0    0    0    0  0.00000000000E+00  0.00000000000E+00  0.74505805969E-08  0.10566000000E+00  0.10566000000E+00 0. -1.
     999900   -1    0    0    0    0 -0.00000000000E+00 -0.00000000000E+00 -0.74505805969E-08  0.93827000000E+00  0.93827000000E+00 0.  1.
     999902    2    1    2    0    0  0.19128384529E-01 -0.15070670033E-01  0.36877150949E-02  0.10193003546E+01  0.10190027446E+01 0.  0.
     999903    2    3    3    0    0 -0.11256455824E+00 -0.55656935312E-01 -0.17557822699E-01  0.12832243737E+00  0.19745798920E-01 0.  0.
         14    1    1    2    0    0 -0.19128384529E-01  0.15070670033E-01 -0.36877150949E-02  0.24629645401E-01  0.00000000000E+00 0.  1.
     999901    1    3    3    0    0  0.13169294277E+00  0.40586265278E-01  0.21245537794E-01  0.89097791722E+00  0.88000000000E+00 0. -1.
        -11    1    4    4    0    0 -0.62769772052E-01 -0.20084310445E-01 -0.82622610383E-02  0.66422510401E-01  0.51100000000E-03 0. -1.
         11    1    4    4    0    0 -0.49794786192E-01 -0.35572624867E-01 -0.92955616609E-02  0.61899926974E-01  0.51100000000E-03 0.  1.
</event>
<event>
 8    1  0.1143506E+005  0.1043930E+01  0.7957747E-01            NaN
         13   -1    0    0    0    0  0.00000000000E+00  0.00000000000E+00  0.74505805969E-08  0.10566000000E+00  0.10566000000E+00 0.  1.
     999900   -1    0    0    0    0 -0.00000000000E+00 -0.00000000000E+00 -0.74505805969E-08  0.93827000000E+00  0.93827000000E+00 0.  1.
     999902    2    1    2    0    0 -0.12171804051E-02 -0.19041568434E-01 -0.14104008393E-01  0.10202026759E+01  0.10199267199E+01 0.  0.
     999903    2    3    3    0    0  0.90779766806E-02  0.13379180101E-01 -0.13002120412E+00  0.13194939475E+00  0.15611442393E-01 0.  0.
         14    1    1    2    0    0  0.12171804051E-02  0.19041568434E-01  0.14104008393E-01  0.23727324107E-01  0.00000000000E+00 0. -1.
     999901    1    3    3    0    0 -0.10295157086E-01 -0.32420748535E-01  0.11591719573E+00  0.88825328114E+00  0.88000000000E+00 0. -1.
        -11    1    4    4    0    0  0.11861940984E-01  0.37947906421E-02 -0.69614894562E-01  0.70721996195E-01  0.51100000000E-03 0. -1.
         11    1    4    4    0    0 -0.27839643033E-02  0.95843894593E-02 -0.60406309557E-01  0.61227398555E-01  0.51100000000E-03 0.  1.
</event>
<event>
 8    1  0.1143506E+005  0.1043930E+01  0.7957747E-01            NaN
         13   -1    0    0    0    0  0.00000000000E+00  0.00000000000E+00  0.74505805969E-08  0.10566000000E+00  0.10566000000E+00 0. -1.
     999900   -1    0    0    0    0 -0.00000000000E+00 -0.00000000000E+00 -0.74505805969E-08  0.93827000000E+00  0.93827000000E+00 0.  1.
     999902    2    1    2    0    0 -0.16329107382E-01 -0.14634025950E-01  0.16313562699E-03  0.10220023673E+01  0.10217671054E+01 0.  0.
     999903    2    3    3    0    0  0.27737880258E-01  0.99572343961E-01  0.77050875126E-01  0.13020826615E+00  0.18256876324E-01 0.  0.
         14    1    1    2    0    0  0.16329107382E-01  0.14634025950E-01 -0.16313562699E-03  0.21927632718E-01  0.00000000000E+00 0. -1.
     999901    1    3    3    0    0 -0.44066987640E-01 -0.11420636991E+00 -0.76887739499E-01  0.89179410113E+00  0.88000000000E+00 0.  1.
        -11    1    4    4    0    0  0.64032608978E-02  0.21813076276E-01  0.81818533523E-02  0.24166420754E-01  0.51100000000E-03 0. -1.
         11    1    4    4    0    0  0.21334619361E-01  0.77759267685E-01  0.68869021773E-01  0.10604184540E+00  0.51100000000E-03 0.  1.
</event>
<event>
 8    1  0.1143506E+005  0.1043930E+01  0.7957747E-01            NaN
         13   -1    0    0    0    0  0.00000000000E+00  0.00000000000E+00  0.74505805969E-08  0.10566000000E+00  0.10566000000E+00 0. -1.
     999900   -1    0    0    0    0 -0.00000000000E+00 -0.00000000000E+00 -0.74505805969E-08  0.93827000000E+00  0.93827000000E+00 0. -1.
     999902    2    1    2    0    0  0.15958368350E-01  0.66839974457E-02  0.14816463109E-01  0.10211512177E+01  0.10208971234E+01 0.  0.
     999903    2    3    3    0    0 -0.94909009269E-01 -0.84533956760E-01  0.15473807871E-01  0.12951635823E+00  0.19527888599E-01 0.  0.
         14    1    1    2    0    0 -0.15958368350E-01 -0.66839974457E-02 -0.14816463109E-01  0.22778782262E-01  0.00000000000E+00 0.  1.
     999901    1    3    3    0    0  0.11086737762E+00  0.91217954205E-01 -0.65734476113E-03  0.89163485951E+00  0.88000000000E+00 0. -1.
        -11    1    4    4    0    0 -0.35778553165E-01 -0.42813854182E-01  0.11942355471E-01  0.57061475198E-01  0.51100000000E-03 0.  1.
         11    1    4    4    0    0 -0.59130456103E-01 -0.41720102577E-01  0.35314523996E-02  0.72454883031E-01  0.51100000000E-03 0. -1.
</event>
<event>
 8    1  0.1143506E+005  0.1043930E+01  0.7957747E-01            NaN
         13   -1    0    0    0    0  0.00000000000E+00  0.00000000000E+00  0.74505805969E-08  0.10566000000E+00  0.10566000000E+00 0. -1.
     999900   -1    0    0    0    0 -0.00000000000E+00 -0.00000000000E+00 -0.74505805969E-08  0.93827000000E+00  0.93827000000E+00 0. -1.
     999902    2    1    2    0    0 -0.55085142468E-02  0.23237248684E-01  0.19595109732E-02  0.10199685072E+01  0.10196870120E+01 0.  0.
     999903    2    3    3    0    0 -0.10877946702E+00 -0.51141666494E-01 -0.44416823361E-01  0.12960460566E+00  0.19392192144E-01 0.  0.
         14    1    1    2    0    0  0.55085142468E-02 -0.23237248684E-01 -0.19595109732E-02  0.23961492835E-01  0.00000000000E+00 0.  1.
     999901    1    3    3    0    0  0.10327095277E+00  0.74378915178E-01  0.46376334335E-01  0.89036390150E+00  0.88000000000E+00 0.  1.
        -11    1    4    4    0    0 -0.29405645259E-01 -0.13195990478E-01 -0.30299219153E-02  0.32376962266E-01  0.51100000000E-03 0. -1.
         11    1    4    4    0    0 -0.79373821757E-01 -0.37945676016E-01 -0.41386901446E-01  0.97227643398E-01  0.51100000000E-03 0.  1.
</event>
<event>
 8    1  0.1331002E+005  0.1043930E+01  0.7957747E-01            NaN
         13   -1    0    0    0    0  0.00000000000E+00  0.00000000000E+00  0.74505805969E-08  0.10566000000E+00  0.10566000000E+00 0. -1.
     999900   -1    0    0    0    0 -0.00000000000E+00 -0.00000000000E+00 -0.74505805969E-08  0.93827000000E+00  0.93827000000E+00 0. -1.
     999902    2    1    2    0    0  0.23543185982E-01  0.39432562546E-02  0.31835599826E-02  0.10198475182E+01  0.10195631390E+01 0.  0.
     999903    2    3    3    0    0 -0.93086228006E-01 -0.26232361991E-01 -0.80486286186E-01  0.12770760130E+00  0.21863359909E-01 0.  0.
         14    1    1    2    0    0 -0.23543185982E-01 -0.39432562546E-02 -0.31835599826E-02  0.24082481812E-01  0.00000000000E+00 0.  1.
     999901    1    3    3    0    0  0.11662941399E+00  0.30175618245E-01  0.83669846168E-01  0.89213991689E+00  0.88000000000E+00 0.  1.
        -11    1    4    4    0    0 -0.66498324134E-01 -0.16029736545E-01 -0.43655828526E-01  0.81148456866E-01  0.51100000000E-03 0. -1.
         11    1    4    4    0    0 -0.26587903871E-01 -0.10202625445E-01 -0.36830457660E-01  0.46559144437E-01  0.51100000000E-03 0.  1.
</event>
<event>
 8    1  0.1143506E+005  0.1043930E+01  0.7957747E-01            NaN
         13   -1    0    0    0    0  0.00000000000E+00  0.00000000000E+00  0.74505805969E-08  0.10566000000E+00  0.10566000000E+00 0.  1.
     999900   -1    0    0    0    0 -0.00000000000E+00 -0.00000000000E+00 -0.74505805969E-08  0.93827000000E+00  0.93827000000E+00 0.  1.
     999902    2    1    2    0    0  0.82325774752E-02  0.11221887699E-01 -0.18816385328E-01  0.10205256745E+01  0.10202572665E+01 0.  0.
     999903    2    3    3    0    0 -0.88254181520E-01  0.35706504129E-01  0.84534997582E-01  0.12890316499E+00  0.20152050426E-01 0.  0.
         14    1    1    2    0    0 -0.82325774752E-02 -0.11221887699E-01  0.18816385328E-01  0.23404325503E-01  0.00000000000E+00 0.  1.
     999901    1    3    3    0    0  0.96486758995E-01 -0.24484616429E-01 -0.10335138291E+00  0.89162250950E+00  0.88000000000E+00 0.  1.
        -11    1    4    4    0    0 -0.28249465338E-01  0.31678816990E-02  0.31710207160E-01  0.42589507223E-01  0.51100000000E-03 0. -1.
         11    1    4    4    0    0 -0.60004716182E-01  0.32538622430E-01  0.52824790422E-01  0.86313657771E-01  0.51100000000E-03 0.  1.
</event>
<event>
 8    1  0.1143506E+005  0.1043930E+01  0.7957747E-01            NaN
         13   -1    0    0    0    0  0.00000000000E+00  0.00000000000E+00  0.74505805969E-08  0.10566000000E+00  0.10566000000E+00 0.  1.
     999900   -1    0    0    0    0 -0.00000000000E+00 -0.00000000000E+00 -0.74505805969E-08  0.93827000000E+00  0.93827000000E+00 0. -1.
     999902    2    1    2    0    0  0.11538100495E-01  0.88349824606E-02 -0.19261458642E-01  0.10198014180E+01  0.10195159360E+01 0.  0.
     999903    2    3    3    0    0 -0.10465425244E+00  0.51129604281E-01  0.50009404146E-01  0.12846088248E+00  0.20844875513E-01 0.  0.
         14    1    1    2    0    0 -0.11538100495E-01 -0.88349824606E-02  0.19261458642E-01  0.24128581954E-01  0.00000000000E+00 0.  1.
     999901    1    3    3    0    0  0.11619235294E+00 -0.42294621820E-01 -0.69270862788E-01  0.89134053557E+00  0.88000000000E+00 0. -1.
        -11    1    4    4    0    0 -0.91011985577E-01  0.51003301761E-01  0.40965046495E-01  0.11208440777E+00  0.51100000000E-03 0. -1.
         11    1    4    4    0    0 -0.13642266867E-01  0.12630252009E-03  0.90443576514E-02  0.16376474710E-01  0.51100000000E-03 0.  1.
</event>
<event>
 8    1  0.1143506E+005  0.1043930E+01  0.7957747E-01            NaN
         13   -1    0    0    0    0  0.00000000000E+00  0.00000000000E+00  0.74505805969E-08  0.10566000000E+00  0.10566000000E+00 0. -1.
     999900   -1    0    0    0    0 -0.00000000000E+00 -0.00000000000E+00 -0.74505805969E-08  0.93827000000E+00  0.93827000000E+00 0.  1.
     999902    2    1    2    0    0  0.13794117871E-01  0.85308859172E-02 -0.14611668536E-01  0.10220998704E+01  0.10218667185E+01 0.  0.
     999903    2    3    3    0    0  0.23518938737E-01 -0.14516403154E-01 -0.12970317978E+00  0.13425314619E+00  0.20907557915E-01 0.  0.
         14    1    1    2    0    0 -0.13794117871E-01 -0.85308859172E-02  0.14611668536E-01  0.21830129632E-01  0.00000000000E+00 0. -1.
     999901    1    3    3    0    0 -0.97248208668E-02  0.23047289071E-01  0.11509151124E+00  0.88784672418E+00  0.88000000000E+00 0. -1.
        -11    1    4    4    0    0  0.12822523589E-01 -0.33455442567E-02 -0.23973797829E-01  0.27397333463E-01  0.51100000000E-03 0.  1.
         11    1    4    4    0    0  0.10696415149E-01 -0.11170858897E-01 -0.10572938195E+00  0.10685581273E+00  0.51100000000E-03 0. -1.
</event>
<event>
 8    1  0.1143506E+005  0.1043930E+01  0.7957747E-01            NaN
         13   -1    0    0    0    0  0.00000000000E+00  0.00000000000E+00  0.74505805969E-08  0.10566000000E+00  0.10566000000E+00 0.  1.
     999900   -1    0    0    0    0 -0.00000000000E+00 -0.00000000000E+00 -0.74505805969E-08  0.93827000000E+00  0.93827000000E+00 0.  1.
     999902    2    1    2    0    0 -0.21050810783E-01  0.10530859970E-01  0.10776526952E-01  0.10180423740E+01  0.10177131748E+01 0.  0.
     999903    2    3    3    0    0 -0.38681177620E-01 -0.66467636690E-01  0.10256430364E+00  0.12974929497E+00  0.20031548469E-01 0.  0.
         14    1    1    2    0    0  0.21050810783E-01 -0.10530859970E-01 -0.10776526952E-01  0.25887625992E-01  0.00000000000E+00 0.  1.
     999901    1    3    3    0    0  0.17630366836E-01  0.76998496659E-01 -0.91787776689E-01  0.88829307904E+00  0.88000000000E+00 0.  1.
        -11    1    4    4    0    0 -0.15721118409E-01 -0.23938990044E-01  0.54592052805E-01  0.61650483849E-01  0.51100000000E-03 0.  1.
         11    1    4    4    0    0 -0.22960059211E-01 -0.42528646646E-01  0.47972250835E-01  0.68098811118E-01  0.51100000000E-03 0. -1.
</event>
<event>
 8    1  0.1143506E+005  0.1043930E+01  0.7957747E-01            NaN
         13   -1    0    0    0    0  0.00000000000E+00  0.00000000000E+00  0.74505805969E-08  0.10566000000E+00  0.10566000000E+00 0. -1.
     999900   -1    0    0    0    0 -0.00000000000E+00 -0.00000000000E+00 -0.74505805969E-08  0.93827000000E+00  0.93827000000E+00 0.  1.
     999902    2    1    2    0    0 -0.11422402462E-01  0.43228969784E-02 -0.20865265326E-01  0.10197531927E+01  0.10194665546E+01 0.  0.
     999903    2    3    3    0    0  0.43898632861E-02  0.12039098585E+00  0.43463509209E-01  0.12966329819E+00  0.20254231400E-01 0.  0.
         14    1    1    2    0    0  0.11422402462E-01 -0.43228969784E-02  0.20865265326E-01  0.24176807345E-01  0.00000000000E+00 0.  1.
     999901    1    3    3    0    0 -0.15812265748E-01 -0.11606808887E+00 -0.64328774534E-01  0.89008989447E+00  0.88000000000E+00 0. -1.
        -11    1    4    4    0    0  0.85455387457E-02  0.54572985866E-01  0.27965307994E-01  0.61915721678E-01  0.51100000000E-03 0. -1.
         11    1    4    4    0    0 -0.41556754596E-02  0.65817999987E-01  0.15498201214E-01  0.67747576507E-01  0.51100000000E-03 0.  1.
</event>
<event>
 8    1  0.1143506E+005  0.1043930E+01  0.7957747E-01            NaN
         13   -1    0    0    0    0  0.00000000000E+00  0.00000000000E+00  0.74505805969E-08  0.10566000000E+00  0.10566000000E+00 0. -1.
     999900   -1    0    0    0    0 -0.00000000000E+00 -0.00000000000E+00 -0.74505805969E-08  0.93827000000E+00  0.93827000000E+00 0.  1.
     999902    2    1    2    0    0 -0.14061594642E-01 -0.23085999031E-01 -0.90293934177E-02  0.10154304958E+01  0.10150304774E+01 0.  0.
     999903    2    3    3    0    0  0.57385906770E-01 -0.88461967483E-01  0.67520194885E-01  0.12681437947E+00  0.20105922892E-01 0.  0.
         14    1    1    2    0    0  0.14061594642E-01  0.23085999031E-01  0.90293934177E-02  0.28499504217E-01  0.00000000000E+00 0. -1.
     999901    1    3    3    0    0 -0.71447501412E-01  0.65375968452E-01 -0.76549588303E-01  0.88861611632E+00  0.88000000000E+00 0.  1.
        -11    1    4    4    0    0  0.20044613563E-01 -0.15367519905E-01  0.15793434415E-01  0.29793302814E-01  0.51100000000E-03 0.  1.
         11    1    4    4    0    0  0.37341293207E-01 -0.73094447578E-01  0.51726760470E-01  0.97021076653E-01  0.51100000000E-03 0. -1.
</event>
<event>
 8    1  0.1143506E+005  0.1043930E+01  0.7957747E-01            NaN
         13   -1    0    0    0    0  0.00000000000E+00  0.00000000000E+00  0.74505805969E-08  0.10566000000E+00  0.10566000000E+00 0. -1.
     999900   -1    0    0    0    0 -0.00000000000E+00 -0.00000000000E+00 -0.74505805969E-08  0.93827000000E+00  0.93827000000E+00 0.  1.
     999902    2    1    2    0    0 -0.16410784675E-01 -0.71613735079E-02 -0.17445101235E-01  0.10189313864E+01  0.10186246804E+01 0.  0.
     999903    2    3    3    0    0  0.65153202533E-01  0.10557078906E+00  0.20148821134E-01  0.12720579662E+00  0.19626726638E-01 0.  0.
         14    1    1    2    0    0  0.16410784675E-01  0.71613735079E-02  0.17445101235E-01  0.24998613587E-01  0.00000000000E+00 0.  1.
     999901    1    3    3    0    0 -0.81563987208E-01 -0.11273216257E+00 -0.37593922369E-01  0.89172558979E+00  0.88000000000E+00 0.  1.
        -11    1    4    4    0    0  0.28540296999E-01  0.43509421146E-01 -0.12015909367E-02  0.52051159671E-01  0.51100000000E-03 0.  1.
         11    1    4    4    0    0  0.36612905534E-01  0.62061367913E-01  0.21350412071E-01  0.75154636953E-01  0.51100000000E-03 0. -1.
</event>
<event>
 8    1  0.1143506E+005  0.1043930E+01  0.7957747E-01            NaN
         13   -1    0    0    0    0  0.00000000000E+00  0.00000000000E+00  0.74505805969E-08  0.10566000000E+00  0.10566000000E+00 0.  1.
     999900   -1    0    0    0    0 -0.00000000000E+00 -0.00000000000E+00 -0.74505805969E-08  0.93827000000E+00  0.93827000000E+00 0. -1.
     999902    2    1    2    0    0  0.42185529574E-03 -0.24107120316E-01  0.94359213142E-03  0.10198007319E+01  0.10195152335E+01 0.  0.
     999903    2    3    3    0    0  0.42638434364E-01  0.92298391382E-01  0.75214068226E-01  0.12803361752E+00  0.19960511534E-01 0.  0.
         14    1    1    2    0    0 -0.42185529574E-03  0.24107120316E-01 -0.94359213142E-03  0.24129268077E-01  0.00000000000E+00 0. -1.
     999901    1    3    3    0    0 -0.42216579068E-01 -0.11640551170E+00 -0.74270476095E-01  0.89176711440E+00  0.88000000000E+00 0. -1.
        -11    1    4    4    0    0  0.25511398731E-01  0.35466245106E-01  0.25371865111E-01  0.50524040489E-01  0.51100000000E-03 0.  1.
         11    1    4    4    0    0  0.17127035633E-01  0.56832146276E-01  0.49842203116E-01  0.77509577036E-01  0.51100000000E-03 0. -1.
</event>
<event>
 8    1  0.1143506E+005  0.1043930E+01  0.7957747E-01            NaN
         13   -1    0    0    0    0  0.00000000000E+00  0.00000000000E+00  0.74505805969E-08  0.10566000000E+00  0.10566000000E+00 0.  1.
     999900   -1    0    0    0    0 -0.00000000000E+00 -0.00000000000E+00 -0.74505805969E-08  0.93827000000E+00  0.93827000000E+00 0.  1.
     999902    2    1    2    0    0 -0.58770982437E-02  0.19277076610E-01 -0.89192231181E-02  0.10218914314E+01  0.10216537569E+01 0.  0.
     999903    2    3    3    0    0 -0.12228990641E+00  0.86837721616E-02  0.45986058311E-01  0.13246535241E+00  0.20053002779E-01 0.  0.
         14    1    1    2    0    0  0.58770982437E-02 -0.19277076610E-01  0.89192231181E-02  0.22038568634E-01  0.00000000000E+00 0.  1.
     999901    1    3    3    0    0  0.11641280817E+00  0.10593304449E-01 -0.54905281430E-01  0.88942607896E+00  0.88000000000E+00 0. -1.
        -11    1    4    4    0    0 -0.43254844063E-01 -0.40505113050E-02  0.23079450715E-01  0.49196649714E-01  0.51100000000E-03 0.  1.
         11    1    4    4    0    0 -0.79035062346E-01  0.12734283467E-01  0.22906607597E-01  0.83268702693E-01  0.51100000000E-03 0. -1.
</event>
<event>
 8    1  0.1143506E+005  0.1043930E+01  0.7957747E-01            NaN
         13   -1    0    0    0    0  0.00000000000E+00  0.00000000000E+00  0.74505805969E-08  0.10566000000E+00  0.10566000000E+00 0.  1.
     999900   -1    0    0    0    0 -0.00000000000E+00 -0.00000000000E+00 -0.74505805969E-08  0.93827000000E+00  0.93827000000E+00 0. -1.
     999902    2    1    2    0    0  0.17118569195E-02 -0.97346020086E-02  0.20840031756E-01  0.10208648780E+01  0.10206042814E+01 0.  0.
     999903    2    3    3    0    0  0.27902520787E-01 -0.79770346200E-01 -0.96615028621E-01  0.12991782705E+00  0.20057896997E-01 0.  0.
         14    1    1    2    0    0 -0.17118569195E-02  0.97346020086E-02 -0.20840031756E-01  0.23065122024E-01  0.00000000000E+00 0. -1.
     999901    1    3    3    0    0 -0.26190663868E-01  0.70035744192E-01  0.11745506038E+00  0.89094705092E+00  0.88000000000E+00 0. -1.
        -11    1    4    4    0    0  0.23398012838E-01 -0.57800641371E-01 -0.82491972227E-01  0.10340970820E+00  0.51100000000E-03 0. -1.
         11    1    4    4    0    0  0.45045079494E-02 -0.21969704829E-01 -0.14123056393E-01  0.26508118851E-01  0.51100000000E-03 0.  1.
</event>
<event>
 7    1  0.1143506E+005  0.1043930E+01  0.7957747E-01            NaN
         13   -1    0    0    0    0  0.00000000000E+00  0.00000000000E+00  0.74505805969E-08  0.10566000000E+00  0.10566000000E+00 0. -1.
     999900   -1    0    0    0    0 -0.00000000000E+00 -0.00000000000E+00 -0.74505805969E-08  0.93827000000E+00  0.93827000000E+00 0.  1.
     999902    2    1    2    0    0 -0.21152894946E-01  0.52416513662E-02 -0.94131619613E-02  0.10201912660E+01  0.10199150414E+01 0.  0.
         14    1    1    2    0    0  0.21152894946E-01 -0.52416513662E-02  0.94131619613E-02  0.23738733997E-01  0.00000000000E+00 0. -1.
     999901    1    3    3    0    0  0.70582228224E-01 -0.17003247683E-01  0.54585029225E-01  0.88467535672E+00  0.88000000000E+00 0. -1.
        -11    1    3    3    0    0 -0.75570126029E-01 -0.16002633191E-01 -0.34634371246E-01  0.84656535540E-01  0.51100000000E-03 0.  1.
         11    1    3    3    0    0 -0.16164997141E-01  0.38247532240E-01 -0.29363819940E-01  0.50859373742E-01  0.51100000000E-03 0. -1.
</event>
<event>
 8    1  0.1143506E+005  0.1043930E+01  0.7957747E-01            NaN
         13   -1    0    0    0    0  0.00000000000E+00  0.00000000000E+00  0.74505805969E-08  0.10566000000E+00  0.10566000000E+00 0.  1.
     999900   -1    0    0    0    0 -0.00000000000E+00 -0.00000000000E+00 -0.74505805969E-08  0.93827000000E+00  0.93827000000E+00 0.  1.
     999902    2    1    2    0    0 -0.18979812027E-01 -0.16315807511E-01  0.39038719075E-02  0.10185986152E+01  0.10182835852E+01 0.  0.
     999903    2    3    3    0    0 -0.55183387535E-01 -0.36702732519E-01 -0.11019351324E+00  0.13026053830E+00  0.20806264562E-01 0.  0.
         14    1    1    2    0    0  0.18979812027E-01  0.16315807511E-01 -0.39038719075E-02  0.25331384786E-01  0.00000000000E+00 0.  1.
     999901    1    3    3    0    0  0.36203575508E-01  0.20386925008E-01  0.11409738515E+00  0.88833807691E+00  0.88000000000E+00 0. -1.
        -11    1    4    4    0    0 -0.36670872787E-01 -0.29047887728E-01 -0.91917738103E-01  0.10313905367E+00  0.51100000000E-03 0.  1.
         11    1    4    4    0    0 -0.18512514748E-01 -0.76548447914E-02 -0.18275775136E-01  0.27121484637E-01  0.51100000000E-03 0. -1.
</event>
<event>
 8    1  0.1143506E+005  0.1043930E+01  0.7957747E-01            NaN
         13   -1    0    0    0    0  0.00000000000E+00  0.00000000000E+00  0.74505805969E-08  0.10566000000E+00  0.10566000000E+00 0. -1.
     999900   -1    0    0    0    0 -0.00000000000E+00 -0.00000000000E+00 -0.74505805969E-08  0.93827000000E+00  0.93827000000E+00 0.  1.
     999902    2    1    2    0    0  0.12068654694E-01 -0.15983549067E-01  0.11979791992E-01  0.10205924405E+01  0.10203255794E+01 0.  0.
     999903    2    3    3    0    0  0.20191138813E-01  0.91420143005E-01  0.88959023941E-01  0.13068945143E+00  0.20017495865E-01 0.  0.
         14    1    1    2    0    0 -0.12068654694E-01  0.15983549067E-01 -0.11979791992E-01  0.23337559493E-01  0.00000000000E+00 0.  1.
     999901    1    3    3    0    0 -0.81224841193E-02 -0.10740369207E+00 -0.76979231948E-01  0.88990298908E+00  0.88000000000E+00 0.  1.
        -11    1    4    4    0    0 -0.26794947029E-02  0.19562050660E-01  0.24601398845E-01  0.31549064392E-01  0.51100000000E-03 0.  1.
         11    1    4    4    0    0  0.22870633516E-01  0.71858092345E-01  0.64357625096E-01  0.99140387037E-01  0.51100000000E-03 0. -1.
</event>
<event>
 8    1  0.1143506E+005  0.1043930E+01  0.7957747E-01            NaN
         13   -1    0    0    0    0  0.00000000000E+00  0.00000000000E+00  0.74505805969E-08  0.10566000000E+00  0.10566000000E+00 0.  1.
     999900   -1    0    0    0    0 -0.00000000000E+00 -0.00000000000E+00 -0.74505805969E-08  0.93827000000E+00  0.93827000000E+00 0. -1.
     999902    2    1    2    0    0  0.22941610004E-02  0.21499630715E-01 -0.81994762289E-02  0.10208057983E+01  0.10205438497E+01 0.  0.
     999903    2    3    3    0    0 -0.25356502442E-01 -0.12421827569E+00 -0.50608366544E-02  0.12838878896E+00  0.19619807109E-01 0.  0.
         14    1    1    2    0    0 -0.22941610004E-02 -0.21499630715E-01  0.81994762289E-02  0.23124201738E-01  0.00000000000E+00 0.  1.
     999901    1    3    3    0    0  0.27650663442E-01  0.14571790641E+00 -0.31386395745E-02  0.89241700930E+00  0.88000000000E+00 0.  1.
        -11    1    4    4    0    0 -0.16407696293E-01 -0.46117035686E-01  0.46751537632E-02  0.49174298793E-01  0.51100000000E-03 0.  1.
         11    1    4    4    0    0 -0.89488061493E-02 -0.78101240005E-01 -0.97359904176E-02  0.79214490165E-01  0.51100000000E-03 0. -1.
</event>
<event>
 8    1  0.1143506E+005  0.1043930E+01  0.7957747E-01            NaN
         13   -1    0    0    0    0  0.00000000000E+00  0.00000000000E+00  0.74505805969E-08  0.10566000000E+00  0.10566000000E+00 0.  1.
     999900   -1    0    0    0    0 -0.00000000000E+00 -0.00000000000E+00 -0.74505805969E-08  0.93827000000E+00  0.93827000000E+00 0.  1.
     999902    2    1    2    0    0 -0.63996811900E-02 -0.88630643264E-02  0.21048195675E-01  0.10202121508E+01  0.10199364178E+01 0.  0.
     999903    2    3    3    0    0 -0.36398554487E-01 -0.10044043547E+00 -0.71504166116E-01  0.13012660045E+00  0.20173014784E-01 0.  0.
         14    1    1    2    0    0  0.63996811900E-02  0.88630643264E-02 -0.21048195675E-01  0.23717849180E-01  0.00000000000E+00 0. -1.
     999901    1    3    3    0    0  0.29998873297E-01  0.91577371148E-01  0.92552361790E-01  0.89008555037E+00  0.88000000000E+00 0. -1.
        -11    1    4    4    0    0 -0.21313448984E-01 -0.31015206108E-01 -0.26387929821E-01  0.45965096309E-01  0.51100000000E-03 0.  1.
         11    1    4    4    0    0 -0.15085105503E-01 -0.69425229366E-01 -0.45116236295E-01  0.84161504140E-01  0.51100000000E-03 0. -1.
</event>
<event>
 8    1  0.1143506E+005  0.1043930E+01  0.7957747E-01            NaN
         13   -1    0    0    0    0  0.00000000000E+00  0.00000000000E+00  0.74505805969E-08  0.10566000000E+00  0.10566000000E+00 0. -1.
     999900   -1    0    0    0    0 -0.00000000000E+00 -0.00000000000E+00 -0.74505805969E-08  0.93827000000E+00  0.93827000000E+00 0. -1.
     999902    2    1    2    0    0  0.18685092842E-02  0.10089225759E-01 -0.23929050591E-01  0.10178938085E+01  0.10175607708E+01 0.  0.
     999903    2    3    3    0    0  0.61949718699E-02 -0.27330948781E-01  0.12069570162E+00  0.12529350231E+00  0.18591688794E-01 0.  0.
         14    1    1    2    0    0 -0.18685092842E-02 -0.10089225759E-01  0.23929050591E-01  0.26036191456E-01  0.00000000000E+00 0. -1.
     999901    1    3    3    0    0 -0.43264625857E-02  0.37420174540E-01 -0.14462475221E+00  0.89260030624E+00  0.88000000000E+00 0. -1.
        -11    1    4    4    0    0 -0.57472083765E-02 -0.57262517428E-02  0.43243330177E-01  0.44000762367E-01  0.51100000000E-03 0. -1.
         11    1    4    4    0    0  0.11942180246E-01 -0.21604697038E-01  0.77452371447E-01  0.81292739940E-01  0.51100000000E-03 0.  1.
</event>
<event>
 8    1  0.1143506E+005  0.1043930E+01  0.7957747E-01            NaN
         13   -1    0    0    0    0  0.00000000000E+00  0.00000000000E+00  0.74505805969E-08  0.10566000000E+00  0.10566000000E+00 0.  1.
     999900   -1    0    0    0    0 -0.00000000000E+00 -0.00000000000E+00 -0.74505805969E-08  0.93827000000E+00  0.93827000000E+00 0.  1.
     999902    2    1    2    0    0 -0.72660243544E-03 -0.16845077416E-02  0.23714236458E-01  0.10201449095E+01  0.10198675924E+01 0.  0.
     999903    2    3    3    0    0  0.21770992003E-01  0.49336013592E-01  0.12010087968E+00  0.13312764908E+00  0.19766924919E-01 0.  0.
         14    1    1    2    0    0  0.72660243544E-03  0.16845077416E-02 -0.23714236458E-01  0.23785090461E-01  0.00000000000E+00 0. -1.
     999901    1    3    3    0    0 -0.22497594438E-01 -0.51020521334E-01 -0.96386643222E-01  0.88701726045E+00  0.88000000000E+00 0.  1.
        -11    1    4    4    0    0  0.21913876874E-01  0.50863144930E-01  0.11297737910E+00  0.12582299798E+00  0.51100000000E-03 0. -1.
         11    1    4    4    0    0 -0.14288487079E-03 -0.15271313375E-02  0.71235005853E-02  0.73046511072E-02  0.51100000000E-03 0.  1.
</event>
<event>
 8    1  0.1143506E+005  0.1043930E+01  0.7957747E-01            NaN
         13   -1    0    0    0    0  0.00000000000E+00  0.00000000000E+00  0.74505805969E-08  0.10566000000E+00  0.10566000000E+00 0. -1.
     999900   -1    0    0    0    0 -0.00000000000E+00 -0.00000000000E+00 -0.74505805969E-08  0.93827000000E+00  0.93827000000E+00 0.  1.
     999902    2    1    2    0    0 -0.83461628802E-02  0.18180659679E-01 -0.12674887335E-01  0.10202477790E+01  0.10199728835E+01 0.  0.
     999903    2    3    3    0    0  0.63313877161E-01 -0.95340792680E-01 -0.55945610453E-01  0.12901568975E+00  0.20411346900E-01 0.  0.
         14    1    1    2    0    0  0.83461628802E-02 -0.18180659679E-01  0.12674887335E-01  0.23682220971E-01  0.00000000000E+00 0.  1.
     999901    1    3    3    0    0 -0.71660040041E-01  0.11352145236E+00  0.43270723118E-01  0.89123208928E+00  0.88000000000E+00 0.  1.
        -11    1    4    4    0    0  0.42077685529E-01 -0.64923782764E-01 -0.48079182829E-01  0.91090603963E-01  0.51100000000E-03 0.  1.
         11    1    4    4    0    0  0.21236191631E-01 -0.30417009916E-01 -0.78664276241E-02  0.37925085785E-01  0.51100000000E-03 0. -1.
</event>
<event>
 8    1  0.1143506E+005  0.1043930E+01  0.7957747E-01            NaN
         13   -1    0    0    0    0  0.00000000000E+00  0.00000000000E+00  0.74505805969E-08  0.10566000000E+00  0.10566000000E+00 0.  1.
     999900   -1    0    0    0    0 -0.00000000000E+00 -0.00000000000E+00 -0.74505805969E-08  0.93827000000E+00  0.93827000000E+00 0.  1.
     999902    2    1    2    0    0  0.18136370954E-01  0.80198551051E-02  0.14304067217E-01  0.10194789803E+01  0.10191857234E+01 0.  0.
     999903    2    3    3    0    0  0.45084800536E-01  0.67214756036E-01 -0.99319202833E-01  0.12979336070E+00  0.20773775849E-01 0.  0.
         14    1    1    2    0    0 -0.18136370954E-01 -0.80198551051E-02 -0.14304067217E-01  0.24451019738E-01  0.00000000000E+00 0.  1.
     999901    1    3    3    0    0 -0.26948429583E-01 -0.59194900931E-01  0.11362327005E+00  0.88968561956E+00  0.88000000000E+00 0. -1.
        -11    1    4    4    0    0  0.89647180997E-02  0.12231025238E-01 -0.33285834177E-01  0.36581033704E-01  0.51100000000E-03 0.  1.
         11    1    4    4    0    0  0.36120082436E-01  0.54983730798E-01 -0.66033368655E-01  0.93212326999E-01  0.51100000000E-03 0. -1.
</event>
<event>
 8    1  0.1143506E+005  0.1043930E+01  0.7957747E-01            NaN
         13   -1    0    0    0    0  0.00000000000E+00  0.00000000000E+00  0.74505805969E-08  0.10566000000E+00  0.10566000000E+00 0. -1.
     999900   -1    0    0    0    0 -0.00000000000E+00 -0.00000000000E+00 -0.74505805969E-08  0.93827000000E+00  0.93827000000E+00 0. -1.
     999902    2    1    2    0    0  0.22291720322E-01  0.39671252802E-02 -0.71061209467E-02  0.10201990954E+01  0.10199230552E+01 0.  0.
     999903    2    3    3    0    0  0.41423548725E-01 -0.11429259722E+00  0.43572983466E-01  0.13063754023E+00  0.19719377818E-01 0.  0.
         14    1    1    2    0    0 -0.22291720322E-01 -0.39671252802E-02  0.71061209467E-02  0.23730904593E-01  0.00000000000E+00 0.  1.
     999901    1    3    3    0    0 -0.19131828403E-01  0.11825972250E+00 -0.50679104413E-01  0.88956155518E+00  0.88000000000E+00 0.  1.
        -11    1    4    4    0    0  0.11559470434E-01 -0.12802430160E-01  0.42526598737E-02  0.17772726626E-01  0.51100000000E-03 0.  1.
         11    1    4    4    0    0  0.29864078291E-01 -0.10149016706E+00  0.39320323593E-01  0.11286481361E+00  0.51100000000E-03 0. -1.
</event>
<event>
 8    1  0.1143506E+005  0.1043930E+01  0.7957747E-01            NaN
         13   -1    0    0    0    0  0.00000000000E+00  0.00000000000E+00  0.74505805969E-08  0.10566000000E+00  0.10566000000E+00 0. -1.
     999900   -1    0    0    0    0 -0.00000000000E+00 -0.00000000000E+00 -0.74505805969E-08  0.93827000000E+00  0.93827000000E+00 0.  1.
     999902    2    1    2    0    0 -0.52596122871E-02 -0.11542997050E-01 -0.18311093820E-01  0.10216544426E+01  0.10214115721E+01 0.  0.
     999903    2    3    3    0    0 -0.10548778398E+00 -0.52323272014E-01  0.54672031519E-01  0.13202797386E+00  0.24019939407E-01 0.  0.
         14    1    1    2    0    0  0.52596122871E-02  0.11542997050E-01  0.18311093820E-01  0.22275557439E-01  0.00000000000E+00 0. -1.
     999901    1    3    3    0    0  0.10022817169E+00  0.40780274964E-01 -0.72983125340E-01  0.88962646870E+00  0.88000000000E+00 0.  1.
        -11    1    4    4    0    0 -0.21441101692E-01 -0.20243657305E-01  0.74200706851E-02  0.30411265558E-01  0.51100000000E-03 0. -1.
         11    1    4    4    0    0 -0.84046682284E-01 -0.32079614709E-01  0.47251960834E-01  0.10161670830E+00  0.51100000000E-03 0.  1.
</event>
<event>
 8    1  0.1143506E+005  0.1043930E+01  0.7957747E-01            NaN
         13   -1    0    0    0    0  0.00000000000E+00  0.00000000000E+00  0.74505805969E-08  0.10566000000E+00  0.10566000000E+00 0. -1.
     999900   -1    0    0    0    0 -0.00000000000E+00 -0.00000000000E+00 -0.74505805969E-08  0.93827000000E+00  0.93827000000E+00 0. -1.
     999902    2    1    2    0    0  0.18770406825E-01  0.12166339492E-01  0.24789272520E-02  0.10214245991E+01  0.10211766344E+01 0.  0.
     999903    2    3    3    0    0 -0.53093897165E-01 -0.51167293136E-01  0.10552072547E+00  0.13024939782E+00  0.19829985541E-01 0.  0.
         14    1    1    2    0    0 -0.18770406825E-01 -0.12166339492E-01 -0.24789272520E-02  0.22505400892E-01  0.00000000000E+00 0. -1.
     999901    1    3    3    0    0  0.71864303990E-01  0.63333632627E-01 -0.10304179821E+00  0.89117520129E+00  0.88000000000E+00 0. -1.
        -11    1    4    4    0    0 -0.18299139076E-01 -0.16043468056E-01  0.51827687652E-01  0.57259249790E-01  0.51100000000E-03 0.  1.
         11    1    4    4    0    0 -0.34794758089E-01 -0.35123825080E-01  0.53693037815E-01  0.72990148030E-01  0.51100000000E-03 0. -1.
</event>
<event>
 8    1  0.1143506E+005  0.1043930E+01  0.7957747E-01            NaN
         13   -1    0    0    0    0  0.00000000000E+00  0.00000000000E+00  0.74505805969E-08  0.10566000000E+00  0.10566000000E+00 0. -1.
     999900   -1    0    0    0    0 -0.00000000000E+00 -0.00000000000E+00 -0.74505805969E-08  0.93827000000E+00  0.93827000000E+00 0.  1.
     999902    2    1    2    0    0 -0.13480819073E-01 -0.15365016717E-01 -0.75517976523E-02  0.10221390416E+01  0.10219067347E+01 0.  0.
     999903    2    3    3    0    0 -0.11606443995E-01 -0.28439906330E-01 -0.12861769755E+00  0.13375206612E+00  0.20088933642E-01 0.  0.
         14    1    1    2    0    0  0.13480819073E-01  0.15365016717E-01  0.75517976523E-02  0.21790958432E-01  0.00000000000E+00 0. -1.
     999901    1    3    3    0    0 -0.18743750780E-02  0.13074889613E-01  0.12106589990E+00  0.88838697544E+00  0.88000000000E+00 0. -1.
        -11    1    4    4    0    0 -0.47983344462E-04 -0.21724611506E-01 -0.97296892165E-01  0.99694068998E-01  0.51100000000E-03 0. -1.
         11    1    4    4    0    0 -0.11558460651E-01 -0.67152948246E-02 -0.31320805386E-01  0.34057997126E-01  0.51100000000E-03 0.  1.
</event>
<event>
 8    1  0.1143506E+005  0.1043930E+01  0.7957747E-01            NaN
         13   -1    0    0    0    0  0.00000000000E+00  0.00000000000E+00  0.74505805969E-08  0.10566000000E+00  0.10566000000E+00 0. -1.
     999900   -1    0    0    0    0 -0.00000000000E+00 -0.00000000000E+00 -0.74505805969E-08  0.93827000000E+00  0.93827000000E+00 0.  1.
     999902    2    1    2    0    0  0.13188715423E-01  0.16764657531E-01  0.10134083090E-01  0.10203144205E+01  0.10200410879E+01 0.  0.
     999903    2    3    3    0    0 -0.69885990052E-01  0.25549445917E-01 -0.10348937297E+00  0.12908556716E+00  0.20401165161E-01 0.  0.
         14    1    1    2    0    0 -0.13188715423E-01 -0.16764657531E-01 -0.10134083090E-01  0.23615579534E-01  0.00000000000E+00 0.  1.
     999901    1    3    3    0    0  0.83074705475E-01 -0.87847883860E-02  0.11362345606E+00  0.89122885330E+00  0.88000000000E+00 0. -1.
        -11    1    4    4    0    0 -0.13222346936E-01 -0.18324778978E-02 -0.26242091321E-01  0.29446509329E-01  0.51100000000E-03 0.  1.
         11    1    4    4    0    0 -0.56663643116E-01  0.27381923815E-01 -0.77247281646E-01  0.99639057832E-01  0.51100000000E-03 0. -1.
</event>
<event>
 8    1  0.1143506E+005  0.1043930E+01  0.7957747E-01            NaN
         13   -1    0    0    0    0  0.00000000000E+00  0.00000000000E+00  0.74505805969E-08  0.10566000000E+00  0.10566000000E+00 0.  1.
     999900   -1    0    0    0    0 -0.00000000000E+00 -0.00000000000E+00 -0.74505805969E-08  0.93827000000E+00  0.93827000000E+00 0.  1.
     999902    2    1    2    0    0 -0.12870608779E-01  0.76729223327E-02  0.18400685191E-01  0.10202000290E+01  0.10199240107E+01 0.  0.
     999903    2    3    3    0    0  0.73925474322E-01 -0.72987630455E-01  0.77560074192E-01  0.13029019194E+00  0.12953727400E-01 0.  0.
         14    1    1    2    0    0  0.12870608779E-01 -0.76729223327E-02 -0.18400685191E-01  0.23729970986E-01  0.00000000000E+00 0. -1.
     999901    1    3    3    0    0 -0.86796083101E-01  0.80660552788E-01 -0.59159389001E-01  0.88990983708E+00  0.88000000000E+00 0. -1.
        -11    1    4    4    0    0  0.45671075735E-01 -0.45412365829E-01  0.40144449100E-01  0.75894453312E-01  0.51100000000E-03 0. -1.
         11    1    4    4    0    0  0.28254398587E-01 -0.27575264626E-01  0.37415625092E-01  0.54395738627E-01  0.51100000000E-03 0.  1.
</event>
<event>
 8    1  0.1143506E+005  0.1043930E+01  0.7957747E-01            NaN
         13   -1    0    0    0    0  0.00000000000E+00  0.00000000000E+00  0.74505805969E-08  0.10566000000E+00  0.10566000000E+00 0. -1.
     999900   -1    0    0    0    0 -0.00000000000E+00 -0.00000000000E+00 -0.74505805969E-08  0.93827000000E+00  0.93827000000E+00 0. -1.
     999902    2    1    2    0    0  0.46917921880E-02  0.14544900496E-01 -0.10493248465E-01  0.10253915182E+01  0.10252239220E+01 0.  0.
     999903    2    3    3    0    0  0.12903590814E+00 -0.29885805234E-01  0.18658765190E-01  0.13506271001E+00  0.18717883768E-01 0.  0.
         14    1    1    2    0    0 -0.46917921880E-02 -0.14544900496E-01  0.10493248465E-01  0.18538481808E-01  0.00000000000E+00 0. -1.
     999901    1    3    3    0    0 -0.12434411595E+00  0.44430705731E-01 -0.29152013655E-01  0.89032880818E+00  0.88000000000E+00 0. -1.
        -11    1    4    4    0    0  0.49712509816E-01 -0.18614264193E-01  0.14053583819E-02  0.53104242927E-01  0.51100000000E-03 0. -1.
         11    1    4    4    0    0  0.79323398322E-01 -0.11271541041E-01  0.17253406808E-01  0.81958467081E-01  0.51100000000E-03 0.  1.
</event>
<event>
 8    1  0.1143506E+005  0.1043930E+01  0.7957747E-01            NaN
         13   -1    0    0    0    0  0.00000000000E+00  0.00000000000E+00  0.74505805969E-08  0.10566000000E+00  0.10566000000E+00 0. -1.
     999900   -1    0    0    0    0 -0.00000000000E+00 -0.00000000000E+00 -0.74505805969E-08  0.93827000000E+00  0.93827000000E+00 0.  1.
     999902    2    1    2    0    0 -0.16350931854E-01  0.11911336402E-01 -0.11524369032E-01  0.10206481618E+01  0.10203825882E+01 0.  0.
     999903    2    3    3    0    0 -0.26372586378E-02 -0.71331340682E-01  0.10523238818E+00  0.12893657814E+00  0.21346436756E-01 0.  0.
         14    1    1    2    0    0  0.16350931854E-01 -0.11911336402E-01  0.11524369032E-01  0.23281838178E-01  0.00000000000E+00 0.  1.
     999901    1    3    3    0    0 -0.13713673216E-01  0.83242677085E-01 -0.11675675722E+00  0.89171158368E+00  0.88000000000E+00 0.  1.
        -11    1    4    4    0    0 -0.36057373740E-03 -0.46288788032E-01  0.49400590425E-01  0.67701265617E-01  0.51100000000E-03 0. -1.
         11    1    4    4    0    0 -0.22766849004E-02 -0.25042552651E-01  0.55831797759E-01  0.61235312520E-01  0.51100000000E-03 0.  1.
</event>
<event>
 8    1  0.1143506E+005  0.1043930E+01  0.7957747E-01            NaN
         13   -1    0    0    0    0  0.00000000000E+00  0.00000000000E+00  0.74505805969E-08  0.10566000000E+00  0.10566000000E+00 0.  1.
     999900   -1    0    0    0    0 -0.00000000000E+00 -0.00000000000E+00 -0.74505805969E-08  0.93827000000E+00  0.93827000000E+00 0.  1.
     999902    2    1    2    0    0 -0.45416159831E-03  0.23466936393E-01  0.41896713862E-02  0.10200876697E+01  0.10198090004E+01 0.  0.
     999903    2    3    3    0    0 -0.97075169381E-02  0.12511410599E+00 -0.39752797902E-01  0.13309910595E+00  0.19680235284E-01 0.  0.
         14    1    1    2    0    0  0.45416159831E-03 -0.23466936393E-01 -0.41896713862E-02  0.23842330271E-01  0.00000000000E+00 0. -1.
     999901    1    3    3    0    0  0.92533553398E-02 -0.10164716959E+00  0.43942469288E-01  0.88698856378E+00  0.88000000000E+00 0. -1.
        -11    1    4    4    0    0 -0.12030923802E-01  0.65920915115E-01 -0.13776201672E-01  0.68413120311E-01  0.51100000000E-03 0.  1.
         11    1    4    4    0    0  0.23234068635E-02  0.59193190872E-01 -0.25976596230E-01  0.64685985637E-01  0.51100000000E-03 0. -1.
</event>
<event>
 8    1  0.1143506E+005  0.1043930E+01  0.7957747E-01            NaN
         13   -1    0    0    0    0  0.00000000000E+00  0.00000000000E+00  0.74505805969E-08  0.10566000000E+00  0.10566000000E+00 0. -1.
     999900   -1    0    0    0    0 -0.00000000000E+00 -0.00000000000E+00 -0.74505805969E-08  0.93827000000E+00  0.93827000000E+00 0. -1.
     999902    2    1    2    0    0 -0.98807842456E-04  0.23334328389E-01 -0.64122467283E-02  0.10197304638E+01  0.10194432801E+01 0.  0.
     999903    2    3    3    0    0  0.25824640265E-02  0.13166388429E+00  0.36058379018E-02  0.13302710646E+00  0.18470555992E-01 0.  0.
         14    1    1    2    0    0  0.98807842456E-04 -0.23334328389E-01  0.64122467283E-02  0.24199536204E-01  0.00000000000E+00 0. -1.
     999901    1    3    3    0    0 -0.26812718689E-02 -0.10832955590E+00 -0.10018084630E-01  0.88670335734E+00  0.88000000000E+00 0. -1.
        -11    1    4    4    0    0  0.10236184014E-01  0.81680788861E-01 -0.12532495556E-03  0.82321367575E-01  0.51100000000E-03 0. -1.
         11    1    4    4    0    0 -0.76537199873E-02  0.49983095428E-01  0.37311628574E-02  0.50705738881E-01  0.51100000000E-03 0.  1.
</event>
<event>
 8    1  0.1143506E+005  0.1043930E+01  0.7957747E-01            NaN
         13   -1    0    0    0    0  0.00000000000E+00  0.00000000000E+00  0.74505805969E-08  0.10566000000E+00  0.10566000000E+00 0.  1.
     999900   -1    0    0    0    0 -0.00000000000E+00 -0.00000000000E+00 -0.74505805969E-08  0.93827000000E+00  0.93827000000E+00 0. -1.
     999902    2    1    2    0    0  0.21682008938E-01  0.33471801633E-02 -0.11288157378E-01  0.10192574318E+01  0.10189587708E+01 0.  0.
     999903    2    3    3    0    0 -0.12364986150E+00  0.20765977306E-01  0.55931906013E-02  0.12700760858E+00  0.19471383953E-01 0.  0.
         14    1    1    2    0    0 -0.21682008938E-01 -0.33471801633E-02  0.11288157378E-01  0.24672568241E-01  0.00000000000E+00 0.  1.
     999901    1    3    3    0    0  0.14533187044E+00 -0.17418797143E-01 -0.16881347979E-01  0.89224982318E+00  0.88000000000E+00 0. -1.
        -11    1    4    4    0    0 -0.85404173959E-01  0.78955345777E-02 -0.26805909332E-02  0.85811765421E-01  0.51100000000E-03 0. -1.
         11    1    4    4    0    0 -0.38245687541E-01  0.12870442729E-01  0.82737815345E-02  0.41195843157E-01  0.51100000000E-03 0.  1.
</event>
<event>
 8    1  0.1143506E+005  0.1043930E+01  0.7957747E-01            NaN
         13   -1    0    0    0    0  0.00000000000E+00  0.00000000000E+00  0.74505805969E-08  0.10566000000E+00  0.10566000000E+00 0.  1.
     999900   -1    0    0    0    0 -0.00000000000E+00 -0.00000000000E+00 -0.74505805969E-08  0.93827000000E+00  0.93827000000E+00 0. -1.
     999902    2    1    2    0    0  0.15547576707E-02  0.23220163955E-01  0.37023777200E-02  0.10203651769E+01  0.10200930317E+01 0.  0.
     999903    2    3    3    0    0  0.82966111937E-01 -0.93088895749E-01  0.24938196082E-01  0.12873376993E+00  0.20038753808E-01 0.  0.
         14    1    1    2    0    0 -0.15547576707E-02 -0.23220163955E-01 -0.37023777200E-02  0.23564823070E-01  0.00000000000E+00 0. -1.
     999901    1    3    3    0    0 -0.81411354266E-01  0.11630905970E+00 -0.21235818362E-01  0.89163140700E+00  0.88000000000E+00 0. -1.
        -11    1    4    4    0    0  0.63715501225E-01 -0.63507526183E-01  0.10405035778E-01  0.90561563970E-01  0.51100000000E-03 0.  1.
         11    1    4    4    0    0  0.19250610712E-01 -0.29581369567E-01  0.14533160304E-01  0.38172205957E-01  0.51100000000E-03 0. -1.
</event>
<event>
 8    1  0.1143506E+005  0.1043930E+01  0.7957747E-01            NaN
         13   -1    0    0    0    0  0.00000000000E+00  0.00000000000E+00  0.74505805969E-08  0.10566000000E+00  0.10566000000E+00 0. -1.
     999900   -1    0    0    0    0 -0.00000000000E+00 -0.00000000000E+00 -0.74505805969E-08  0.93827000000E+00  0.93827000000E+00 0. -1.
     999902    2    1    2    0    0 -0.14230489058E-01 -0.68841041485E-02  0.18070856376E-01  0.10199205527E+01  0.10196379163E+01 0.  0.
     999903    2    3    3    0    0 -0.11634802750E+00 -0.58451113791E-01 -0.10271838593E-01  0.13206332517E+00  0.19540086492E-01 0.  0.
         14    1    1    2    0    0  0.14230489058E-01  0.68841041485E-02 -0.18070856376E-01  0.24009447284E-01  0.00000000000E+00 0. -1.
     999901    1    3    3    0    0  0.10211753845E+00  0.51567009643E-01  0.28342694969E-01  0.88785722754E+00  0.88000000000E+00 0. -1.
        -11    1    4    4    0    0 -0.94332422501E-01 -0.39528663890E-01 -0.11971013040E-01  0.10297906330E+00  0.51100000000E-03 0. -1.
         11    1    4    4    0    0 -0.22015605003E-01 -0.18922449901E-01  0.16991744470E-02  0.29084261873E-01  0.51100000000E-03 0.  1.
</event>
<event>
 8    1  0.1143506E+005  0.1043930E+01  0.7957747E-01            NaN
         13   -1    0    0    0    0  0.00000000000E+00  0.00000000000E+00  0.74505805969E-08  0.10566000000E+00  0.10566000000E+00 0. -1.
     999900   -1    0    0    0    0 -0.00000000000E+00 -0.00000000000E+00 -0.74505805969E-08  0.93827000000E+00  0.93827000000E+00 0. -1.
     999902    2    1    2    0    0  0.11364163333E-01 -0.17490129910E-01  0.12054447551E-01  0.10198393678E+01  0.10195547938E+01 0.  0.
     999903    2    3    3    0    0  0.43914139417E-01 -0.93922663526E-01 -0.77880790788E-01  0.13136326785E+00  0.20999338153E-01 0.  0.
         14    1    1    2    0    0 -0.11364163333E-01  0.17490129910E-01 -0.12054447551E-01  0.24090632169E-01  0.00000000000E+00 0.  1.
     999901    1    3    3    0    0 -0.32549976084E-01  0.76432533615E-01  0.89935238338E-01  0.88847609998E+00  0.88000000000E+00 0. -1.
        -11    1    4    4    0    0  0.17136450263E-01 -0.31495710128E-01 -0.15251077449E-01  0.38967860711E-01  0.51100000000E-03 0. -1.
         11    1    4    4    0    0  0.26777689154E-01 -0.62426953398E-01 -0.62629713339E-01  0.92395407142E-01  0.51100000000E-03 0.  1.
</event>
<event>
 8    1  0.1143506E+005  0.1043930E+01  0.7957747E-01            NaN
         13   -1    0    0    0    0  0.00000000000E+00  0.00000000000E+00  0.74505805969E-08  0.10566000000E+00  0.10566000000E+00 0.  1.
     999900   -1    0    0    0    0 -0.00000000000E+00 -0.00000000000E+00 -0.74505805969E-08  0.93827000000E+00  0.93827000000E+00 0.  1.
     999902    2    1    2    0    0  0.19601446402E-01  0.99442208100E-02  0.73747057101E-02  0.10207461584E+01  0.10204828413E+01 0.  0.
     999903    2    3    3    0    0 -0.69554057342E-01  0.85372438750E-01  0.68064331723E-01  0.13095890817E+00  0.19780348458E-01 0.  0.
         14    1    1    2    0    0 -0.19601446402E-01 -0.99442208100E-02 -0.73747057101E-02  0.23183841633E-01  0.00000000000E+00 0. -1.
     999901    1    3    3    0    0  0.89155503744E-01 -0.75428217940E-01 -0.60689626012E-01  0.88978725020E+00  0.88000000000E+00 0.  1.
        -11    1    4    4    0    0 -0.23593321881E-01  0.16410980439E-01  0.13685622955E-01  0.31835868341E-01  0.51100000000E-03 0. -1.
         11    1    4    4    0    0 -0.45960735460E-01  0.68961458311E-01  0.54378708768E-01  0.99123039828E-01  0.51100000000E-03 0.  1.
</event>
<event>
 8    1  0.1143506E+005  0.1043930E+01  0.7957747E-01            NaN
         13   -1    0    0    0    0  0.00000000000E+00  0.00000000000E+00  0.74505805969E-08  0.10566000000E+00  0.10566000000E+00 0.  1.
     999900   -1    0    0    0    0 -0.00000000000E+00 -0.00000000000E+00 -0.74505805969E-08  0.93827000000E+00  0.93827000000E+00 0. -1.
     999902    2    1    2    0    0 -0.20563007138E-01 -0.89084759020E-02 -0.72849364487E-02  0.10203658640E+01  0.10200937349E+01 0.  0.
     999903    2    3    3    0    0 -0.37987959262E-01 -0.80698162364E-01  0.94532364240E-01  0.13142033658E+00  0.19484827934E-01 0.  0.
         14    1    1    2    0    0  0.20563007138E-01  0.89084759020E-02  0.72849364487E-02  0.23564135981E-01  0.00000000000E+00 0.  1.
     999901    1    3    3    0    0  0.17424952124E-01  0.71789686462E-01 -0.10181730069E+00  0.88894552744E+00  0.88000000000E+00 0. -1.
        -11    1    4    4    0    0 -0.24754272313E-01 -0.61302257826E-01  0.57776160093E-01  0.87801404365E-01  0.51100000000E-03 0.  1.
         11    1    4    4    0    0 -0.13233686949E-01 -0.19395904537E-01  0.36756204147E-01  0.43618932213E-01  0.51100000000E-03 0. -1.
</event>
<event>
 8    1  0.1143506E+005  0.1043930E+01  0.7957747E-01            NaN
         13   -1    0    0    0    0  0.00000000000E+00  0.00000000000E+00  0.74505805969E-08  0.10566000000E+00  0.10566000000E+00 0.  1.
     999900   -1    0    0    0    0 -0.00000000000E+00 -0.00000000000E+00 -0.74505805969E-08  0.93827000000E+00  0.93827000000E+00 0.  1.
     999902    2    1    2    0    0  0.29624344779E-02 -0.21367334414E-01  0.94661562657E-02  0.10203726845E+01  0.10201007147E+01 0.  0.
     999903    2    3    3    0    0  0.10312336263E+00  0.56377133531E-01  0.54150391055E-01  0.13016310546E+00  0.14048489806E-01 0.  0.
         14    1    1    2    0    0 -0.29624344779E-02  0.21367334414E-01 -0.94661562657E-02  0.23557315476E-01  0.00000000000E+00 0. -1.
     999901    1    3    3    0    0 -0.10016092815E+00 -0.77744467945E-01 -0.44684234790E-01  0.89020957907E+00  0.88000000000E+00 0. -1.
        -11    1    4    4    0    0  0.68894799352E-01  0.38117408257E-01  0.43383722664E-01  0.89899047287E-01  0.51100000000E-03 0. -1.
         11    1    4    4    0    0  0.34228563276E-01  0.18259725274E-01  0.10766668391E-01  0.40264058169E-01  0.51100000000E-03 0.  1.
</event>
<event>
 8    1  0.1143506E+005  0.1043930E+01  0.7957747E-01            NaN
         13   -1    0    0    0    0  0.00000000000E+00  0.00000000000E+00  0.74505805969E-08  0.10566000000E+00  0.10566000000E+00 0.  1.
     999900   -1    0    0    0    0 -0.00000000000E+00 -0.00000000000E+00 -0.74505805969E-08  0.93827000000E+00  0.93827000000E+00 0. -1.
     999902    2    1    2    0    0  0.10065269497E-01 -0.91776930581E-02  0.18476430910E-01  0.10209753012E+01  0.10207172220E+01 0.  0.
     999903    2    3    3    0    0  0.69070347714E-01  0.10941536284E+00  0.38197388667E-02  0.13094118339E+00  0.19712142075E-01 0.  0.
         14    1    1    2    0    0 -0.10065269497E-01  0.91776930581E-02 -0.18476430910E-01  0.22954698845E-01  0.00000000000E+00 0. -1.
     999901    1    3    3    0    0 -0.59005078216E-01 -0.11859305589E+00  0.14656692043E-01  0.89003411776E+00  0.88000000000E+00 0.  1.
        -11    1    4    4    0    0  0.33598002678E-01  0.56614649505E-01  0.11619511290E-01  0.66852961686E-01  0.51100000000E-03 0.  1.
         11    1    4    4    0    0  0.35472345036E-01  0.52800713330E-01 -0.77997724230E-02  0.64088221705E-01  0.51100000000E-03 0. -1.
</event>
<event>
 8    1  0.1143506E+005  0.1043930E+01  0.7957747E-01            NaN
         13   -1    0    0    0    0  0.00000000000E+00  0.00000000000E+00  0.74505805969E-08  0.10566000000E+00  0.10566000000E+00 0. -1.
     999900   -1    0    0    0    0 -0.00000000000E+00 -0.00000000000E+00 -0.74505805969E-08  0.93827000000E+00  0.93827000000E+00 0.  1.
     999902    2    1    2    0    0  0.15158698107E-02 -0.20395469444E-01  0.73601780381E-02  0.10221941942E+01  0.10219630743E+01 0.  0.
     999903    2    3    3    0    0 -0.69885846860E-01  0.87585903739E-01 -0.62638088263E-01  0.12997340344E+00  0.20352724010E-01 0.  0.
         14    1    1    2    0    0 -0.15158698107E-02  0.20395469444E-01 -0.73601780381E-02  0.21735805848E-01  0.00000000000E+00 0.  1.
     999901    1    3    3    0    0  0.71401716671E-01 -0.10798137318E+00  0.69998266301E-01  0.89222079071E+00  0.88000000000E+00 0.  1.
        -11    1    4    4    0    0 -0.53186590304E-01  0.74628942035E-01 -0.43451350475E-01  0.10142274576E+00  0.51100000000E-03 0. -1.
         11    1    4    4    0    0 -0.16699256556E-01  0.12956961704E-01 -0.19186737787E-01  0.28550657682E-01  0.51100000000E-03 0.  1.
</event>
<event>
 8    1  0.1143506E+005  0.1043930E+01  0.7957747E-01            NaN
         13   -1    0    0    0    0  0.00000000000E+00  0.00000000000E+00  0.74505805969E-08  0.10566000000E+00  0.10566000000E+00 0. -1.
     999900   -1    0    0    0    0 -0.00000000000E+00 -0.00000000000E+00 -0.74505805969E-08  0.93827000000E+00  0.93827000000E+00 0.  1.
     999902    2    1    2    0    0 -0.13388902494E-01  0.55222388629E-02  0.17717523185E-01  0.10210461966E+01  0.10207897271E+01 0.  0.
     999903    2    3    3    0    0  0.16502733340E-01 -0.21338921536E-01  0.12923740086E+00  0.13309816039E+00  0.16885637031E-01 0.  0.
         14    1    1    2    0    0  0.13388902494E-01 -0.55222388629E-02 -0.17717523185E-01  0.22883803439E-01  0.00000000000E+00 0.  1.
     999901    1    3    3    0    0 -0.29891635834E-01  0.26861160399E-01 -0.11151987767E+00  0.88794803617E+00  0.88000000000E+00 0.  1.
        -11    1    4    4    0    0 -0.11122056271E-03 -0.10600225512E-01  0.27980977288E-01  0.29926131757E-01  0.51100000000E-03 0. -1.
         11    1    4    4    0    0  0.16613953903E-01 -0.10738696023E-01  0.10125642357E+00  0.10317202863E+00  0.51100000000E-03 0.  1.
</event>
<event>
 8    1  0.1143506E+005  0.1043930E+01  0.7957747E-01            NaN
         13   -1    0    0    0    0  0.00000000000E+00  0.00000000000E+00  0.74505805969E-08  0.10566000000E+00  0.10566000000E+00 0.  1.
     999900   -1    0    0    0    0 -0.00000000000E+00 -0.00000000000E+00 -0.74505805969E-08  0.93827000000E+00  0.93827000000E+00 0.  1.
     999902    2    1    2    0    0  0.74362795419E-02  0.28464895423E-02 -0.23167103055E-01  0.10194327467E+01  0.10191383663E+01 0.  0.
     999903    2    3    3    0    0  0.91625549982E-01 -0.64396811864E-01  0.60360737161E-01  0.12893491124E+00  0.20942825918E-01 0.  0.
         14    1    1    2    0    0 -0.74362795419E-02 -0.28464895423E-02  0.23167103055E-01  0.24497253317E-01  0.00000000000E+00 0.  1.
     999901    1    3    3    0    0 -0.84189270440E-01  0.67243301406E-01 -0.83527840216E-01  0.89049783545E+00  0.88000000000E+00 0.  1.
        -11    1    4    4    0    0  0.35006329986E-01 -0.31940124551E-01  0.15988212014E-01  0.50014985152E-01  0.51100000000E-03 0. -1.
         11    1    4    4    0    0  0.56619219996E-01 -0.32456687313E-01  0.44372525147E-01  0.78919926085E-01  0.51100000000E-03 0.  1.
</event>
<event>
 8    1  0.1143506E+005  0.1043930E+01  0.7957747E-01            NaN
         13   -1    0    0    0    0  0.00000000000E+00  0.00000000000E+00  0.74505805969E-08  0.10566000000E+00  0.10566000000E+00 0. -1.
     999900   -1    0    0    0    0 -0.00000000000E+00 -0.00000000000E+00 -0.74505805969E-08  0.93827000000E+00  0.93827000000E+00 0.  1.
     999902    2    1    2    0    0 -0.10743225522E-01  0.72160252284E-02  0.19609726052E-01  0.10204346968E+01  0.10201641737E+01 0.  0.
     999903    2    3    3    0    0 -0.23153167469E-01 -0.11355836042E+00 -0.53466154965E-01  0.12909831630E+00  0.19395235513E-01 0.  0.
         14    1    1    2    0    0  0.10743225522E-01 -0.72160252284E-02 -0.19609726052E-01  0.23495303159E-01  0.00000000000E+00 0.  1.
     999901    1    3    3    0    0  0.12409941947E-01  0.12077438565E+00  0.73075881017E-01  0.89133638054E+00  0.88000000000E+00 0. -1.
        -11    1    4    4    0    0 -0.74967434616E-02 -0.62675782324E-01 -0.37907561837E-01  0.73632188735E-01  0.51100000000E-03 0. -1.
         11    1    4    4    0    0 -0.15656424007E-01 -0.50882578093E-01 -0.15558593129E-01  0.55466127566E-01  0.51100000000E-03 0.  1.
</event>
<event>
 8    1  0.1143506E+005  0.1043930E+01  0.7957747E-01            NaN
         13   -1    0    0    0    0  0.00000000000E+00  0.00000000000E+00  0.74505805969E-08  0.10566000000E+00  0.10566000000E+00 0. -1.
     999900   -1    0    0    0    0 -0.00000000000E+00 -0.00000000000E+00 -0.74505805969E-08  0.93827000000E+00  0.93827000000E+00 0.  1.
     999902    2    1    2    0    0 -0.13188174384E-01  0.57225467994E-02  0.19702140007E-01  0.10195404570E+01  0.10192486908E+01 0.  0.
     999903    2    3    3    0    0  0.61369055269E-01  0.83475622136E-01 -0.72474540087E-01  0.12819267890E+00  0.21129683573E-01 0.  0.
         14    1    1    2    0    0  0.13188174384E-01 -0.57225467994E-02 -0.19702140007E-01  0.24389542970E-01  0.00000000000E+00 0.  1.
     999901    1    3    3    0    0 -0.74557229653E-01 -0.77753075337E-01  0.92176680094E-01  0.89134777813E+00  0.88000000000E+00 0. -1.
        -11    1    4    4    0    0  0.18288348557E-01  0.42396847557E-01 -0.33289459367E-01  0.56924560619E-01  0.51100000000E-03 0. -1.
         11    1    4    4    0    0  0.43080706712E-01  0.41078774579E-01 -0.39185080720E-01  0.71268118284E-01  0.51100000000E-03 0.  1.
</event>
<event>
 8    1  0.1143506E+005  0.1043930E+01  0.7957747E-01            NaN
         13   -1    0    0    0    0  0.00000000000E+00  0.00000000000E+00  0.74505805969E-08  0.10566000000E+00  0.10566000000E+00 0.  1.
     999900   -1    0    0    0    0 -0.00000000000E+00 -0.00000000000E+00 -0.74505805969E-08  0.93827000000E+00  0.93827000000E+00 0. -1.
     999902    2    1    2    0    0 -0.95034791140E-02  0.20980043644E-01 -0.89819070939E-03  0.10208803776E+01  0.10206201351E+01 0.  0.
     999903    2    3    3    0    0  0.79453834199E-01 -0.69161257792E-01  0.71493561288E-01  0.12887173213E+00  0.20010064697E-01 0.  0.
         14    1    1    2    0    0  0.95034791140E-02 -0.20980043644E-01  0.89819070939E-03  0.23049622407E-01  0.00000000000E+00 0. -1.
     999901    1    3    3    0    0 -0.88957313313E-01  0.90141301436E-01 -0.72391751998E-01  0.89200864546E+00  0.88000000000E+00 0. -1.
        -11    1    4    4    0    0  0.57062227704E-02 -0.13996372664E-01  0.10009125301E-01  0.18135686818E-01  0.51100000000E-03 0.  1.
         11    1    4    4    0    0  0.73747611428E-01 -0.55164885128E-01  0.61484435987E-01  0.11073604532E+00  0.51100000000E-03 0. -1.
</event>
<event>
 8    1  0.1143506E+005  0.1043930E+01  0.7957747E-01            NaN
         13   -1    0    0    0    0  0.00000000000E+00  0.00000000000E+00  0.74505805969E-08  0.10566000000E+00  0.10566000000E+00 0.  1.
     999900   -1    0    0    0    0 -0.00000000000E+00 -0.00000000000E+00 -0.74505805969E-08  0.93827000000E+00  0.93827000000E+00 0.  1.
     999902    2    1    2    0    0 -0.83458940768E-02  0.17098053026E-01 -0.10811029826E-01  0.10220467706E+01  0.10218124708E+01 0.  0.
     999903    2    3    3    0    0  0.68275789464E-01  0.24509841092E-01 -0.10943054875E+00  0.13319828712E+00  0.22459362259E-01 0.  0.
         14    1    1    2    0    0  0.83458940768E-02 -0.17098053026E-01  0.10811029826E-01  0.21883229449E-01  0.00000000000E+00 0.  1.
     999901    1    3    3    0    0 -0.76621683541E-01 -0.74117880654E-02  0.98619518927E-01  0.88884848343E+00  0.88000000000E+00 0. -1.
        -11    1    4    4    0    0  0.35808416293E-01  0.17239178210E-02 -0.45020458745E-01  0.57552735788E-01  0.51100000000E-03 0.  1.
         11    1    4    4    0    0  0.32467373170E-01  0.22785923271E-01 -0.64410090008E-01  0.75645551328E-01  0.51100000000E-03 0. -1.
</event>
<event>
 8    1  0.1143506E+005  0.1043930E+01  0.7957747E-01            NaN
         13   -1    0    0    0    0  0.00000000000E+00  0.00000000000E+00  0.74505805969E-08  0.10566000000E+00  0.10566000000E+00 0.  1.
     999900   -1    0    0    0    0 -0.00000000000E+00 -0.00000000000E+00 -0.74505805969E-08  0.93827000000E+00  0.93827000000E+00 0. -1.
     999902    2    1    2    0    0 -0.19798988869E-01 -0.50207931139E-02  0.84908163820E-02  0.10218098217E+01  0.10215703644E+01 0.  0.
     999903    2    3    3    0    0  0.43121827127E-01 -0.12004182196E+00 -0.23173040517E-01  0.13153376005E+00  0.22239811867E-01 0.  0.
         14    1    1    2    0    0  0.19798988869E-01  0.50207931139E-02 -0.84908163820E-02  0.22120178267E-01  0.00000000000E+00 0. -1.
     999901    1    3    3    0    0 -0.62920815996E-01  0.11502102885E+00  0.31663856899E-01  0.89027606168E+00  0.88000000000E+00 0.  1.
        -11    1    4    4    0    0  0.27798568176E-01 -0.90085827166E-01 -0.79932995643E-02  0.94616967864E-01  0.51100000000E-03 0. -1.
         11    1    4    4    0    0  0.15323258951E-01 -0.29955994799E-01 -0.15179740952E-01  0.36916792191E-01  0.51100000000E-03 0.  1.
</event>
<event>
 8    1  0.1143506E+005  0.1043930E+01  0.7957747E-01            NaN
         13   -1    0    0    0    0  0.00000000000E+00  0.00000000000E+00  0.74505805969E-08  0.10566000000E+00  0.10566000000E+00 0. -1.
     999900   -1    0    0    0    0 -0.00000000000E+00 -0.00000000000E+00 -0.74505805969E-08  0.93827000000E+00  0.93827000000E+00 0. -1.
     999902    2    1    2    0    0 -0.15461817448E-01  0.15594457530E-01 -0.78458358408E-02  0.10206102220E+01  0.10203437721E+01 0.  0.
     999903    2    3    3    0    0 -0.30849806349E-03  0.96020582736E-01 -0.89510026127E-01  0.13304781596E+00  0.21670926916E-01 0.  0.
         14    1    1    2    0    0  0.15461817448E-01 -0.15594457530E-01  0.78458358408E-02  0.23319777968E-01  0.00000000000E+00 0. -1.
     999901    1    3    3    0    0 -0.15153319385E-01 -0.80426125206E-01  0.81664190286E-01  0.88756240608E+00  0.88000000000E+00 0.  1.
        -11    1    4    4    0    0 -0.10975622680E-01  0.49267355809E-01 -0.46208315494E-01  0.68433954901E-01  0.51100000000E-03 0. -1.
         11    1    4    4    0    0  0.10667124617E-01  0.46753226927E-01 -0.43301710633E-01  0.64613861055E-01  0.51100000000E-03 0.  1.
</event>
<event>
 8    1  0.1143506E+005  0.1043930E+01  0.7957747E-01            NaN
         13   -1    0    0    0    0  0.00000000000E+00  0.00000000000E+00  0.74505805969E-08  0.10566000000E+00  0.10566000000E+00 0.  1.
     999900   -1    0    0    0    0 -0.00000000000E+00 -0.00000000000E+00 -0.74505805969E-08  0.93827000000E+00  0.93827000000E+00 0.  1.
     999902    2    1    2    0    0  0.17944408526E-01  0.60398197645E-03 -0.17491874486E-01  0.10188634433E+01  0.10185550470E+01 0.  0.
     999903    2    3    3    0    0 -0.42680440338E-01  0.99188624120E-01  0.64944470758E-01  0.12746563369E+00  0.19227593398E-01 0.  0.
         14    1    1    2    0    0 -0.17944408526E-01 -0.60398197645E-03  0.17491874486E-01  0.25066556696E-01  0.00000000000E+00 0. -1.
     999901    1    3    3    0    0  0.60624848864E-01 -0.98584642143E-01 -0.82436345244E-01  0.89139780961E+00  0.88000000000E+00 0.  1.
        -11    1    4    4    0    0 -0.17331476686E-01  0.39005614861E-01  0.36779168759E-01  0.56345243370E-01  0.51100000000E-03 0. -1.
         11    1    4    4    0    0 -0.25348963652E-01  0.60183009258E-01  0.28165301999E-01  0.71120390320E-01  0.51100000000E-03 0.  1.
</event>
<event>
 8    1  0.1143506E+005  0.1043930E+01  0.7957747E-01            NaN
         13   -1    0    0    0    0  0.00000000000E+00  0.00000000000E+00  0.74505805969E-08  0.10566000000E+00  0.10566000000E+00 0.  1.
     999900   -1    0    0    0    0 -0.00000000000E+00 -0.00000000000E+00 -0.74505805969E-08  0.93827000000E+00  0.93827000000E+00 0.  1.
     999902    2    1    2    0    0 -0.22592286575E-01 -0.77749710129E-03  0.80652467794E-02  0.10199286642E+01  0.10196462210E+01 0.  0.
     999903    2    3    3    0    0 -0.35361805128E-01 -0.78042514549E-01 -0.95581202106E-01  0.13039197025E+00  0.22917425037E-01 0.  0.
         14    1    1    2    0    0  0.22592286575E-01  0.77749710129E-03 -0.80652467794E-02  0.24001335797E-01  0.00000000000E+00 0.  1.
     999901    1    3    3    0    0  0.12769518553E-01  0.77265017447E-01  0.10364644889E+00  0.88953669395E+00  0.88000000000E+00 0.  1.
        -11    1    4    4    0    0 -0.12001977295E-01 -0.52773450620E-01 -0.62118951419E-01  0.82389986016E-01  0.51100000000E-03 0.  1.
         11    1    4    4    0    0 -0.23359827833E-01 -0.25269063929E-01 -0.33462250687E-01  0.48001984233E-01  0.51100000000E-03 0. -1.
</event>
<event>
 8    1  0.1143506E+005  0.1043930E+01  0.7957747E-01            NaN
         13   -1    0    0    0    0  0.00000000000E+00  0.00000000000E+00  0.74505805969E-08  0.10566000000E+00  0.10566000000E+00 0. -1.
     999900   -1    0    0    0    0 -0.00000000000E+00 -0.00000000000E+00 -0.74505805969E-08  0.93827000000E+00  0.93827000000E+00 0. -1.
     999902    2    1    2    0    0  0.21599962459E-01  0.10713702307E-01  0.10545245932E-02  0.10197959200E+01  0.10195103063E+01 0.  0.
     999903    2    3    3    0    0 -0.10045861570E+00  0.39587066130E-01  0.66711903979E-01  0.12848067885E+00  0.19943355554E-01 0.  0.
         14    1    1    2    0    0 -0.21599962459E-01 -0.10713702307E-01 -0.10545245932E-02  0.24134080001E-01  0.00000000000E+00 0.  1.
     999901    1    3    3    0    0  0.12205857816E+00 -0.28873363823E-01 -0.65657379386E-01  0.89131524115E+00  0.88000000000E+00 0. -1.
        -11    1    4    4    0    0 -0.73434815566E-01  0.22286872710E-01  0.54577944291E-01  0.94172129403E-01  0.51100000000E-03 0.  1.
         11    1    4    4    0    0 -0.27023800138E-01  0.17300193420E-01  0.12133959689E-01  0.34308549444E-01  0.51100000000E-03 0. -1.
</event>
<event>
 8    1  0.1143506E+005  0.1043930E+01  0.7957747E-01            NaN
         13   -1    0    0    0    0  0.00000000000E+00  0.00000000000E+00  0.74505805969E-08  0.10566000000E+00  0.10566000000E+00 0.  1.
     999900   -1    0    0    0    0 -0.00000000000E+00 -0.00000000000E+00 -0.74505805969E-08  0.93827000000E+00  0.93827000000E+00 0. -1.
     999902    2    1    2    0    0  0.21165958451E-01  0.10713230461E-01  0.19906512745E-02  0.10201238286E+01  0.10198460138E+01 0.  0.
     999903    2    3    3    0    0  0.82644417887E-01  0.10263734164E+00  0.23486719560E-02  0.13320231496E+00  0.19308463004E-01 0.  0.
         14    1    1    2    0    0 -0.21165958451E-01 -0.10713230461E-01 -0.19906512745E-02  0.23806171396E-01  0.00000000000E+00 0.  1.
     999901    1    3    3    0    0 -0.61478459436E-01 -0.91924111177E-01 -0.35802068141E-03  0.88692151365E+00  0.88000000000E+00 0.  1.
        -11    1    4    4    0    0  0.35051113360E-01  0.48475855555E-01 -0.80188945893E-02  0.60357707966E-01  0.51100000000E-03 0.  1.
         11    1    4    4    0    0  0.47593304527E-01  0.54161486083E-01  0.10367566545E-01  0.72844606991E-01  0.51100000000E-03 0. -1.
</event>
<event>
 8    1  0.1143506E+005  0.1043930E+01  0.7957747E-01            NaN
         13   -1    0    0    0    0  0.00000000000E+00  0.00000000000E+00  0.74505805969E-08  0.10566000000E+00  0.10566000000E+00 0. -1.
     999900   -1    0    0    0    0 -0.00000000000E+00 -0.00000000000E+00 -0.74505805969E-08  0.93827000000E+00  0.93827000000E+00 0.  1.
     999902    2    1    2    0    0  0.14670337106E-01  0.55673271993E-02  0.17088951213E-01  0.10207298669E+01  0.10204661753E+01 0.  0.
     999903    2    3    3    0    0 -0.10373617763E+00 -0.73337789954E-01  0.11386411196E-01  0.12928237028E+00  0.21086842325E-01 0.  0.
         14    1    1    2    0    0 -0.14670337106E-01 -0.55673271993E-02 -0.17088951213E-01  0.23200133114E-01  0.00000000000E+00 0.  1.
     999901    1    3    3    0    0  0.11840651474E+00  0.78905117153E-01  0.57025400173E-02  0.89144749661E+00  0.88000000000E+00 0. -1.
        -11    1    4    4    0    0 -0.66067163282E-01 -0.45094173985E-01  0.17262949002E-01  0.81832909766E-01  0.51100000000E-03 0.  1.
         11    1    4    4    0    0 -0.37669014352E-01 -0.28243615969E-01 -0.58765378066E-02  0.47449460512E-01  0.51100000000E-03 0. -1.
</event>
<event>
 8    1  0.1143506E+005  0.1043930E+01  0.7957747E-01            NaN
         13   -1    0    0    0    0  0.00000000000E+00  0.00000000000E+00  0.74505805969E-08  0.10566000000E+00  0.10566000000E+00 0. -1.
     999900   -1    0    0    0    0 -0.00000000000E+00 -0.00000000000E+00 -0.74505805969E-08  0.93827000000E+00  0.93827000000E+00 0.  1.
     999902    2    1    2    0    0 -0.18579860942E-01 -0.10824653766E-01 -0.84323235095E-02  0.10208326313E+01  0.10205712972E+01 0.  0.
     999903    2    3    3    0    0  0.58841455934E-01 -0.11551948946E+00 -0.25288898876E-02  0.13123164238E+00  0.20205922314E-01 0.  0.
         14    1    1    2    0    0  0.18579860942E-01  0.10824653766E-01  0.84323235095E-02  0.23097368714E-01  0.00000000000E+00 0. -1.
     999901    1    3    3    0    0 -0.77421316876E-01  0.10469483570E+00 -0.59034336220E-02  0.88960098890E+00  0.88000000000E+00 0.  1.
        -11    1    4    4    0    0  0.20447057223E-01 -0.53961326608E-01  0.66988998259E-02  0.58095122844E-01  0.51100000000E-03 0. -1.
         11    1    4    4    0    0  0.38394398711E-01 -0.61558162853E-01 -0.92277897135E-02  0.73136519539E-01  0.51100000000E-03 0.  1.
</event>
<event>
 8    1  0.1143506E+005  0.1043930E+01  0.7957747E-01            NaN
         13   -1    0    0    0    0  0.00000000000E+00  0.00000000000E+00  0.74505805969E-08  0.10566000000E+00  0.10566000000E+00 0. -1.
     999900   -1    0    0    0    0 -0.00000000000E+00 -0.00000000000E+00 -0.74505805969E-08  0.93827000000E+00  0.93827000000E+00 0. -1.
     999902    2    1    2    0    0  0.21935384554E-01  0.78736326798E-02 -0.32537459838E-02  0.10203982757E+01  0.10201269033E+01 0.  0.
     999903    2    3    3    0    0 -0.51072064714E-01 -0.11115853288E+00  0.34083001372E-01  0.12860638470E+00  0.20331649636E-01 0.  0.
         14    1    1    2    0    0 -0.21935384554E-01 -0.78736326798E-02  0.32537459838E-02  0.23531724332E-01  0.00000000000E+00 0. -1.
     999901    1    3    3    0    0  0.73007449269E-01  0.11903216556E+00 -0.37336747356E-01  0.89179189096E+00  0.88000000000E+00 0.  1.
        -11    1    4    4    0    0 -0.20770328035E-01 -0.68942617154E-01  0.21301132519E-01  0.75089881837E-01  0.51100000000E-03 0. -1.
         11    1    4    4    0    0 -0.30301736679E-01 -0.42215915729E-01  0.12781868853E-01  0.53516502866E-01  0.51100000000E-03 0.  1.
</event>
<event>
 8    1  0.1143506E+005  0.1043930E+01  0.7957747E-01            NaN
         13   -1    0    0    0    0  0.00000000000E+00  0.00000000000E+00  0.74505805969E-08  0.10566000000E+00  0.10566000000E+00 0.  1.
     999900   -1    0    0    0    0 -0.00000000000E+00 -0.00000000000E+00 -0.74505805969E-08  0.93827000000E+00  0.93827000000E+00 0. -1.
     999902    2    1    2    0    0  0.77282979717E-02  0.14443816854E-01  0.16945153639E-01  0.10203611929E+01  0.10200889546E+01 0.  0.
     999903    2    3    3    0    0 -0.76463877369E-01 -0.72936913175E-01  0.73751344346E-01  0.13022038515E+00  0.18750201879E-01 0.  0.
         14    1    1    2    0    0 -0.77282979717E-02 -0.14443816854E-01 -0.16945153639E-01  0.23568807070E-01  0.00000000000E+00 0. -1.
     999901    1    3    3    0    0  0.84192175341E-01  0.87380730029E-01 -0.56806190707E-01  0.89014080778E+00  0.88000000000E+00 0. -1.
        -11    1    4    4    0    0 -0.19267660966E-01 -0.24584206117E-01  0.30856909824E-01  0.43909406218E-01  0.51100000000E-03 0. -1.
         11    1    4    4    0    0 -0.57196216403E-01 -0.48352707057E-01  0.42894434522E-01  0.86310978934E-01  0.51100000000E-03 0.  1.
</event>
<event>
 8    1  0.1143506E+005  0.1043930E+01  0.7957747E-01            NaN
         13   -1    0    0    0    0  0.00000000000E+00  0.00000000000E+00  0.74505805969E-08  0.10566000000E+00  0.10566000000E+00 0. -1.
     999900   -1    0    0    0    0 -0.00000000000E+00 -0.00000000000E+00 -0.74505805969E-08  0.93827000000E+00  0.93827000000E+00 0.  1.
     999902    2    1    2    0    0 -0.11433762606E-01  0.17132623605E-01  0.12375288975E-01  0.10199007367E+01  0.10196176279E+01 0.  0.
     999903    2    3    3    0    0  0.95136833658E-01 -0.37547619609E-01 -0.73559963319E-01  0.12763839376E+00  0.20485372881E-01 0.  0.
         14    1    1    2    0    0  0.11433762606E-01 -0.17132623605E-01 -0.12375288975E-01  0.24029263329E-01  0.00000000000E+00 0.  1.
     999901    1    3    3    0    0 -0.10657059626E+00  0.54680243214E-01  0.85935252293E-01  0.89226234291E+00  0.88000000000E+00 0.  1.
        -11    1    4    4    0    0  0.50045303383E-01 -0.29121302789E-01 -0.47387635997E-01  0.74822669246E-01  0.51100000000E-03 0. -1.
         11    1    4    4    0    0  0.45091530276E-01 -0.84263168199E-02 -0.26172327322E-01  0.52815724517E-01  0.51100000000E-03 0.  1.
</event>
<event>
 8    1  0.1143506E+005  0.1043930E+01  0.7957747E-01            NaN
         13   -1    0    0    0    0  0.00000000000E+00  0.00000000000E+00  0.74505805969E-08  0.10566000000E+00  0.10566000000E+00 0.  1.
     999900   -1    0    0    0    0 -0.00000000000E+00 -0.00000000000E+00 -0.74505805969E-08  0.93827000000E+00  0.93827000000E+00 0.  1.
     999902    2    1    2    0    0 -0.10996937693E-01 -0.17807284234E-01 -0.12633656901E-01  0.10194832968E+01  0.10191901448E+01 0.  0.
     999903    2    3    3    0    0 -0.16894594682E-01 -0.70817229921E-01 -0.10914358986E+00  0.13260167908E+00  0.19245121584E-01 0.  0.
         14    1    1    2    0    0  0.10996937693E-01  0.17807284234E-01  0.12633656901E-01  0.24446703195E-01  0.00000000000E+00 0. -1.
     999901    1    3    3    0    0  0.58976569893E-02  0.53009945687E-01  0.96509932956E-01  0.88688161773E+00  0.88000000000E+00 0. -1.
        -11    1    4    4    0    0 -0.19003751762E-01 -0.44526363613E-01 -0.63064820404E-01  0.79505800614E-01  0.51100000000E-03 0. -1.
         11    1    4    4    0    0  0.21091570796E-02 -0.26290866307E-01 -0.46078769453E-01  0.53095878466E-01  0.51100000000E-03 0.  1.
</event>
<event>
 8    1  0.1143506E+005  0.1043930E+01  0.7957747E-01            NaN
         13   -1    0    0    0    0  0.00000000000E+00  0.00000000000E+00  0.74505805969E-08  0.10566000000E+00  0.10566000000E+00 0. -1.
     999900   -1    0    0    0    0 -0.00000000000E+00 -0.00000000000E+00 -0.74505805969E-08  0.93827000000E+00  0.93827000000E+00 0.  1.
     999902    2    1    2    0    0 -0.15016445266E-01  0.10476998472E-01  0.15796996350E-01  0.10197472330E+01  0.10194604519E+01 0.  0.
     999903    2    3    3    0    0  0.42137716528E-01  0.11589021803E+00  0.40090212671E-01  0.13128299320E+00  0.20539458698E-01 0.  0.
         14    1    1    2    0    0  0.15016445266E-01 -0.10476998472E-01 -0.15796996350E-01  0.24182766986E-01  0.00000000000E+00 0.  1.
     999901    1    3    3    0    0 -0.57154161794E-01 -0.10541321955E+00 -0.24293216322E-01  0.88846423981E+00  0.88000000000E+00 0. -1.
        -11    1    4    4    0    0  0.23773191660E-01  0.63594518893E-01  0.32715423969E-01  0.75365692204E-01  0.51100000000E-03 0. -1.
         11    1    4    4    0    0  0.18364524867E-01  0.52295699133E-01  0.73747887028E-02  0.55917300997E-01  0.51100000000E-03 0.  1.
</event>
<event>
 8    1  0.1143506E+005  0.1043930E+01  0.7957747E-01            NaN
         13   -1    0    0    0    0  0.00000000000E+00  0.00000000000E+00  0.74505805969E-08  0.10566000000E+00  0.10566000000E+00 0.  1.
     999900   -1    0    0    0    0 -0.00000000000E+00 -0.00000000000E+00 -0.74505805969E-08  0.93827000000E+00  0.93827000000E+00 0. -1.
     999902    2    1    2    0    0  0.99426144798E-02 -0.54710762579E-02  0.20555360149E-01  0.10204499853E+01  0.10201798182E+01 0.  0.
     999903    2    3    3    0    0  0.84856125070E-02  0.10424758067E+00 -0.72222667489E-01  0.12879530500E+00  0.20797913273E-01 0.  0.
         14    1    1    2    0    0 -0.99426144798E-02  0.54710762579E-02 -0.20555360149E-01  0.23480014672E-01  0.00000000000E+00 0. -1.
     999901    1    3    3    0    0  0.14570019728E-02 -0.10971865693E+00  0.92778027638E-01  0.89165468032E+00  0.88000000000E+00 0. -1.
        -11    1    4    4    0    0  0.12890659467E-01  0.45447092634E-01 -0.37899205035E-01  0.60565817039E-01  0.51100000000E-03 0. -1.
         11    1    4    4    0    0 -0.44050469598E-02  0.58800488036E-01 -0.34323462454E-01  0.68229487964E-01  0.51100000000E-03 0.  1.
</event>
<event>
 8    1  0.1143506E+005  0.1043930E+01  0.7957747E-01            NaN
         13   -1    0    0    0    0  0.00000000000E+00  0.00000000000E+00  0.74505805969E-08  0.10566000000E+00  0.10566000000E+00 0. -1.
     999900   -1    0    0    0    0 -0.00000000000E+00 -0.00000000000E+00 -0.74505805969E-08  0.93827000000E+00  0.93827000000E+00 0.  1.
     999902    2    1    2    0    0  0.49313031146E-02 -0.19750357470E-01 -0.10026880382E-01  0.10212378714E+01  0.10209857282E+01 0.  0.
     999903    2    3    3    0    0 -0.87013945353E-01 -0.52939579952E-01  0.80336077576E-01  0.13122612013E+00  0.19808670669E-01 0.  0.
         14    1    1    2    0    0 -0.49313031146E-02  0.19750357470E-01  0.10026880382E-01  0.22692128609E-01  0.00000000000E+00 0. -1.
     999901    1    3    3    0    0  0.91945248468E-01  0.33189222482E-01 -0.90362957959E-01  0.89001175126E+00  0.88000000000E+00 0.  1.
        -11    1    4    4    0    0 -0.88606664349E-02 -0.13661851730E-01  0.12625383092E-01  0.20611138289E-01  0.51100000000E-03 0.  1.
         11    1    4    4    0    0 -0.78153278919E-01 -0.39277728222E-01  0.67710694485E-01  0.11061498185E+00  0.51100000000E-03 0. -1.
</event>
<event>
 8    1  0.1143506E+005  0.1043930E+01  0.7957747E-01            NaN
         13   -1    0    0    0    0  0.00000000000E+00  0.00000000000E+00  0.74505805969E-08  0.10566000000E+00  0.10566000000E+00 0. -1.
     999900   -1    0    0    0    0 -0.00000000000E+00 -0.00000000000E+00 -0.74505805969E-08  0.93827000000E+00  0.93827000000E+00 0.  1.
     999902    2    1    2    0    0 -0.35015317578E-02 -0.15321489583E-01 -0.17333122125E-01  0.10205324384E+01  0.10202641873E+01 0.  0.
     999903    2    3    3    0    0 -0.52272625121E-01  0.11155701359E+00  0.32144282827E-01  0.12872260005E+00  0.18943553733E-01 0.  0.
         14    1    1    2    0    0  0.35015317578E-02  0.15321489583E-01  0.17333122125E-01  0.23397561632E-01  0.00000000000E+00 0. -1.
     999901    1    3    3    0    0  0.48771093363E-01 -0.12687850317E+00 -0.49477404952E-01  0.89180983832E+00  0.88000000000E+00 0.  1.
        -11    1    4    4    0    0 -0.24303819863E-02  0.11073464867E-01  0.82719107060E-02  0.14043290515E-01  0.51100000000E-03 0.  1.
         11    1    4    4    0    0 -0.49842243135E-01  0.10048354872E+00  0.23872372121E-01  0.11467930954E+00  0.51100000000E-03 0. -1.
</event>
<event>
 8    1  0.1143506E+005  0.1043930E+01  0.7957747E-01            NaN
         13   -1    0    0    0    0  0.00000000000E+00  0.00000000000E+00  0.74505805969E-08  0.10566000000E+00  0.10566000000E+00 0.  1.
     999900   -1    0    0    0    0 -0.00000000000E+00 -0.00000000000E+00 -0.74505805969E-08  0.93827000000E+00  0.93827000000E+00 0. -1.
     999902    2    1    2    0    0  0.86752958039E-02 -0.93524316765E-02 -0.19618326761E-01  0.10205289855E+01  0.10202606543E+01 0.  0.
     999903    2    3    3    0    0  0.21107043227E-01 -0.10261794007E+00 -0.79864689097E-01  0.13346493617E+00  0.21414287902E-01 0.  0.
         14    1    1    2    0    0 -0.86752958039E-02  0.93524316765E-02  0.19618326761E-01  0.23401014518E-01  0.00000000000E+00 0. -1.
     999901    1    3    3    0    0 -0.12431747423E-01  0.93265508390E-01  0.60246362336E-01  0.88706404931E+00  0.88000000000E+00 0.  1.
        -11    1    4    4    0    0  0.15513681914E-01 -0.27782095239E-01 -0.25875655509E-01  0.41016214007E-01  0.51100000000E-03 0. -1.
         11    1    4    4    0    0  0.55933613122E-02 -0.74835844827E-01 -0.53989033588E-01  0.92448722168E-01  0.51100000000E-03 0.  1.
</event>
<event>
 8    1  0.1143506E+005  0.1043930E+01  0.7957747E-01            NaN
         13   -1    0    0    0    0  0.00000000000E+00  0.00000000000E+00  0.74505805969E-08  0.10566000000E+00  0.10566000000E+00 0. -1.
     999900   -1    0    0    0    0 -0.00000000000E+00 -0.00000000000E+00 -0.74505805969E-08  0.93827000000E+00  0.93827000000E+00 0.  1.
     999902    2    1    2    0    0 -0.93923134107E-02  0.19943618466E-01  0.95323998274E-02  0.10199127122E+01  0.10196298889E+01 0.  0.
     999903    2    3    3    0    0 -0.11620984071E-01  0.22116196700E-01  0.12808463416E+00  0.13195757853E+00  0.19569251319E-01 0.  0.
         14    1    1    2    0    0  0.93923134107E-02 -0.19943618466E-01 -0.95323998274E-02  0.24017287840E-01  0.00000000000E+00 0. -1.
     999901    1    3    3    0    0  0.22286706602E-02 -0.21725782343E-02 -0.11855223433E+00  0.88795513363E+00  0.88000000000E+00 0.  1.
        -11    1    4    4    0    0 -0.26520898933E-02  0.20794244086E-01  0.67084021290E-01  0.70284857554E-01  0.51100000000E-03 0. -1.
         11    1    4    4    0    0 -0.89688941776E-02  0.13219526138E-02  0.61000612870E-01  0.61672720979E-01  0.51100000000E-03 0.  1.
</event>
<event>
 8    1  0.1143506E+005  0.1043930E+01  0.7957747E-01            NaN
         13   -1    0    0    0    0  0.00000000000E+00  0.00000000000E+00  0.74505805969E-08  0.10566000000E+00  0.10566000000E+00 0.  1.
     999900   -1    0    0    0    0 -0.00000000000E+00 -0.00000000000E+00 -0.74505805969E-08  0.93827000000E+00  0.93827000000E+00 0. -1.
     999902    2    1    2    0    0 -0.71101036287E-02  0.19371149404E-01 -0.13093298170E-01  0.10194917214E+01  0.10191987738E+01 0.  0.
     999903    2    3    3    0    0  0.12580279511E-01  0.12955750313E+00  0.99494159187E-02  0.13210245486E+00  0.20215282700E-01 0.  0.
         14    1    1    2    0    0  0.71101036287E-02 -0.19371149404E-01  0.13093298170E-01  0.24438278577E-01  0.00000000000E+00 0.  1.
     999901    1    3    3    0    0 -0.19690383140E-01 -0.11018635372E+00 -0.23042714089E-01  0.88738926656E+00  0.88000000000E+00 0.  1.
        -11    1    4    4    0    0  0.14235117498E-01  0.49668918645E-01  0.69752679536E-02  0.52139769213E-01  0.51100000000E-03 0. -1.
         11    1    4    4    0    0 -0.16548379865E-02  0.79888584481E-01  0.29741479650E-02  0.79962685649E-01  0.51100000000E-03 0.  1.
</event>
<event>
 8    1  0.1143506E+005  0.1043930E+01  0.7957747E-01            NaN
         13   -1    0    0    0    0  0.00000000000E+00  0.00000000000E+00  0.74505805969E-08  0.10566000000E+00  0.10566000000E+00 0. -1.
     999900   -1    0    0    0    0 -0.00000000000E+00 -0.00000000000E+00 -0.74505805969E-08  0.93827000000E+00  0.93827000000E+00 0.  1.
     999902    2    1    2    0    0  0.20360048055E-01  0.70188471623E-04 -0.11461407830E-01  0.10205654895E+01  0.10202980045E+01 0.  0.
     999903    2    3    3    0    0  0.44893986990E-01 -0.10412563951E+00  0.62646489784E-01  0.13098656367E+00  0.19372101298E-01 0.  0.
         14    1    1    2    0    0 -0.20360048055E-01 -0.70188471623E-04  0.11461407830E-01  0.23364510538E-01  0.00000000000E+00 0. -1.
     999901    1    3    3    0    0 -0.24533938935E-01  0.10419582798E+00 -0.74107897614E-01  0.88957892579E+00  0.88000000000E+00 0.  1.
        -11    1    4    4    0    0  0.25765302070E-01 -0.49969212240E-01  0.20906238886E-01  0.59984205488E-01  0.51100000000E-03 0. -1.
         11    1    4    4    0    0  0.19128684920E-01 -0.54156427267E-01  0.41740250898E-01  0.71002358180E-01  0.51100000000E-03 0.  1.
</event>
<event>
 8    1  0.1143506E+005  0.1043930E+01  0.7957747E-01            NaN
         13   -1    0    0    0    0  0.00000000000E+00  0.00000000000E+00  0.74505805969E-08  0.10566000000E+00  0.10566000000E+00 0. -1.
     999900   -1    0    0    0    0 -0.00000000000E+00 -0.00000000000E+00 -0.74505805969E-08  0.93827000000E+00  0.93827000000E+00 0. -1.
     999902    2    1    2    0    0 -0.15723175529E-01 -0.83329589307E-02 -0.15345689837E-01  0.10204321990E+01  0.10201616177E+01 0.  0.
     999903    2    3    3    0    0 -0.53577643705E-01 -0.13454442872E-01 -0.11917795404E+00  0.13350473332E+00  0.23844142912E-01 0.  0.
         14    1    1    2    0    0  0.15723175529E-01  0.83329589307E-02  0.15345689837E-01  0.23497800957E-01  0.00000000000E+00 0. -1.
     999901    1    3    3    0    0  0.37854468176E-01  0.51214839417E-02  0.10383226421E+00  0.88692746572E+00  0.88000000000E+00 0.  1.
        -11    1    4    4    0    0 -0.96893540035E-02 -0.12235327803E-01 -0.40462499076E-01  0.43371209113E-01  0.51100000000E-03 0. -1.
         11    1    4    4    0    0 -0.43888289701E-01 -0.12191150694E-02 -0.78715454969E-01  0.90133524210E-01  0.51100000000E-03 0.  1.
</event>
<event>
 8    1  0.1143506E+005  0.1043930E+01  0.7957747E-01            NaN
         13   -1    0    0    0    0  0.00000000000E+00  0.00000000000E+00  0.74505805969E-08  0.10566000000E+00  0.10566000000E+00 0. -1.
     999900   -1    0    0    0    0 -0.00000000000E+00 -0.00000000000E+00 -0.74505805969E-08  0.93827000000E+00  0.93827000000E+00 0.  1.
     999902    2    1    2    0    0 -0.46522627948E-02 -0.69831213447E-02 -0.21861032996E-01  0.10205139308E+01  0.10202452503E+01 0.  0.
     999903    2    3    3    0    0 -0.37219080483E-01  0.69764664320E-03 -0.12645196964E+00  0.13368877564E+00  0.22289940414E-01 0.  0.
         14    1    1    2    0    0  0.46522627948E-02  0.69831213447E-02  0.21861032996E-01  0.23416069194E-01  0.00000000000E+00 0. -1.
     999901    1    3    3    0    0  0.32566817688E-01 -0.76807679879E-02  0.10459093664E+00  0.88682515517E+00  0.88000000000E+00 0. -1.
        -11    1    4    4    0    0 -0.18560449546E-01  0.11227548346E-01 -0.56310048642E-01  0.60345926360E-01  0.51100000000E-03 0. -1.
         11    1    4    4    0    0 -0.18658630937E-01 -0.10529901703E-01 -0.70141920995E-01  0.73342849278E-01  0.51100000000E-03 0.  1.
</event>
<event>
 8    1  0.1143506E+005  0.1043930E+01  0.7957747E-01            NaN
         13   -1    0    0    0    0  0.00000000000E+00  0.00000000000E+00  0.74505805969E-08  0.10566000000E+00  0.10566000000E+00 0. -1.
     999900   -1    0    0    0    0 -0.00000000000E+00 -0.00000000000E+00 -0.74505805969E-08  0.93827000000E+00  0.93827000000E+00 0. -1.
     999902    2    1    2    0    0 -0.18592564154E-01  0.14324280564E-01  0.57516399417E-02  0.10197649464E+01  0.10194785903E+01 0.  0.
     999903    2    3    3    0    0  0.64660123432E-01  0.93202269503E-01  0.61888957975E-01  0.13054948000E+00  0.18583030083E-01 0.  0.
         14    1    1    2    0    0  0.18592564154E-01 -0.14324280564E-01 -0.57516399417E-02  0.24165053642E-01  0.00000000000E+00 0.  1.
     999901    1    3    3    0    0 -0.83252687586E-01 -0.78877988940E-01 -0.56137318033E-01  0.88921546636E+00  0.88000000000E+00 0.  1.
        -11    1    4    4    0    0  0.60695107436E-01  0.89224103033E-01  0.62770934490E-01  0.12484105081E+00  0.51100000000E-03 0. -1.
         11    1    4    4    0    0  0.39650159966E-02  0.39781664699E-02 -0.88197651574E-03  0.57084291964E-02  0.51100000000E-03 0.  1.
</event>
<event>
 8    1  0.1143506E+005  0.1043930E+01  0.7957747E-01            NaN
         13   -1    0    0    0    0  0.00000000000E+00  0.00000000000E+00  0.74505805969E-08  0.10566000000E+00  0.10566000000E+00 0. -1.
     999900   -1    0    0    0    0 -0.00000000000E+00 -0.00000000000E+00 -0.74505805969E-08  0.93827000000E+00  0.93827000000E+00 0.  1.
     999902    2    1    2    0    0  0.11986946144E-01 -0.10058951482E-01 -0.18798208617E-01  0.10194710133E+01  0.10191775630E+01 0.  0.
     999903    2    3    3    0    0 -0.10949445872E+00 -0.35600734088E-01  0.51618082462E-01  0.12797307812E+00  0.21359623806E-01 0.  0.
         14    1    1    2    0    0 -0.11986946144E-01  0.10058951482E-01  0.18798208617E-01  0.24458986692E-01  0.00000000000E+00 0. -1.
     999901    1    3    3    0    0  0.12148140487E+00  0.25541782606E-01 -0.70416291079E-01  0.89149793518E+00  0.88000000000E+00 0.  1.
        -11    1    4    4    0    0 -0.59563355301E-01 -0.97114970845E-02  0.20789464757E-01  0.63832354149E-01  0.51100000000E-03 0. -1.
         11    1    4    4    0    0 -0.49931103421E-01 -0.25889237004E-01  0.30828617704E-01  0.64140723975E-01  0.51100000000E-03 0.  1.
</event>
<event>
 8    1  0.1143506E+005  0.1043930E+01  0.7957747E-01            NaN
         13   -1    0    0    0    0  0.00000000000E+00  0.00000000000E+00  0.74505805969E-08  0.10566000000E+00  0.10566000000E+00 0. -1.
     999900   -1    0    0    0    0 -0.00000000000E+00 -0.00000000000E+00 -0.74505805969E-08  0.93827000000E+00  0.93827000000E+00 0. -1.
     999902    2    1    2    0    0 -0.17281064015E-01  0.10988107457E-01 -0.12383325482E-01  0.10199984219E+01  0.10197176375E+01 0.  0.
     999903    2    3    3    0    0 -0.49424156633E-01 -0.55200812726E-01  0.10422891660E+00  0.12926133021E+00  0.18840049031E-01 0.  0.
         14    1    1    2    0    0  0.17281064015E-01 -0.10988107457E-01  0.12383325482E-01  0.23931578071E-01  0.00000000000E+00 0.  1.
     999901    1    3    3    0    0  0.32143092619E-01  0.66188920183E-01 -0.11661224208E+00  0.89073709172E+00  0.88000000000E+00 0. -1.
        -11    1    4    4    0    0 -0.40993219886E-01 -0.51349762102E-01  0.98326799225E-01  0.11826099404E+00  0.51100000000E-03 0.  1.
         11    1    4    4    0    0 -0.84309367472E-02 -0.38510506241E-02  0.59021173766E-02  0.11000336171E-01  0.51100000000E-03 0. -1.
</event>
<event>
 8    1  0.1143506E+005  0.1043930E+01  0.7957747E-01            NaN
         13   -1    0    0    0    0  0.00000000000E+00  0.00000000000E+00  0.74505805969E-08  0.10566000000E+00  0.10566000000E+00 0. -1.
     999900   -1    0    0    0    0 -0.00000000000E+00 -0.00000000000E+00 -0.74505805969E-08  0.93827000000E+00  0.93827000000E+00 0. -1.
     999902    2    1    2    0    0  0.10120326658E-01  0.37847512097E-02  0.22324156566E-01  0.10191285218E+01  0.10188266931E+01 0.  0.
     999903    2    3    3    0    0 -0.78122408169E-01  0.27959744431E-01 -0.93762623135E-01  0.12680159128E+00  0.20058815706E-01 0.  0.
         14    1    1    2    0    0 -0.10120326658E-01 -0.37847512097E-02 -0.22324156566E-01  0.24801478177E-01  0.00000000000E+00 0.  1.
     999901    1    3    3    0    0  0.88242734827E-01 -0.24174993222E-01  0.11608677970E+00  0.89232693054E+00  0.88000000000E+00 0.  1.
        -11    1    4    4    0    0 -0.27873144871E-01  0.12053302033E-01 -0.49002358989E-01  0.57651423247E-01  0.51100000000E-03 0. -1.
         11    1    4    4    0    0 -0.50249263299E-01  0.15906442399E-01 -0.44760264147E-01  0.69150168035E-01  0.51100000000E-03 0.  1.
</event>
<event>
 8    1  0.1143506E+005  0.1043930E+01  0.7957747E-01            NaN
         13   -1    0    0    0    0  0.00000000000E+00  0.00000000000E+00  0.74505805969E-08  0.10566000000E+00  0.10566000000E+00 0.  1.
     999900   -1    0    0    0    0 -0.00000000000E+00 -0.00000000000E+00 -0.74505805969E-08  0.93827000000E+00  0.93827000000E+00 0.  1.
     999902    2    1    2    0    0 -0.59350356906E-02  0.22687755094E-01 -0.10470678038E-02  0.10204554344E+01  0.10201853941E+01 0.  0.
     999903    2    3    3    0    0  0.10164597337E+00  0.80404952787E-01  0.14615659788E-01  0.13188902187E+00  0.19601944842E-01 0.  0.
         14    1    1    2    0    0  0.59350356906E-02 -0.22687755094E-01  0.10470678038E-02  0.23474565616E-01  0.00000000000E+00 0. -1.
     999901    1    3    3    0    0 -0.10758100907E+00 -0.57717197693E-01 -0.15662727592E-01  0.88856641252E+00  0.88000000000E+00 0. -1.
        -11    1    4    4    0    0  0.61140550000E-01  0.59288388119E-01  0.58079444696E-02  0.85365526766E-01  0.51100000000E-03 0.  1.
         11    1    4    4    0    0  0.40505423374E-01  0.21116564668E-01  0.88077153183E-02  0.46523495099E-01  0.51100000000E-03 0. -1.
</event>
<event>
 8    1  0.1143506E+005  0.1043930E+01  0.7957747E-01            NaN
         13   -1    0    0    0    0  0.00000000000E+00  0.00000000000E+00  0.74505805969E-08  0.10566000000E+00  0.10566000000E+00 0.  1.
     999900   -1    0    0    0    0 -0.00000000000E+00 -0.00000000000E+00 -0.74505805969E-08  0.93827000000E+00  0.93827000000E+00 0.  1.
     999902    2    1    2    0    0 -0.78910880585E-02 -0.19782824701E-01  0.11253671316E-01  0.10198411116E+01  0.10195565793E+01 0.  0.
     999903    2    3    3    0    0  0.11287324503E+00  0.50340513491E-01  0.29653606054E-01  0.12863975152E+00  0.19857305339E-01 0.  0.
         14    1    1    2    0    0  0.78910880585E-02  0.19782824701E-01 -0.11253671316E-01  0.24088888351E-01  0.00000000000E+00 0. -1.
     999901    1    3    3    0    0 -0.12076433309E+00 -0.70123338192E-01 -0.18399934739E-01  0.89120136013E+00  0.88000000000E+00 0.  1.
        -11    1    4    4    0    0  0.29565641186E-01  0.19187184334E-01  0.15780804949E-01  0.38620850680E-01  0.51100000000E-03 0. -1.
         11    1    4    4    0    0  0.83307603846E-01  0.31153329156E-01  0.13872801106E-01  0.90018900835E-01  0.51100000000E-03 0.  1.
</event>
<event>
 8    1  0.1143506E+005  0.1043930E+01  0.7957747E-01            NaN
         13   -1    0    0    0    0  0.00000000000E+00  0.00000000000E+00  0.74505805969E-08  0.10566000000E+00  0.10566000000E+00 0. -1.
     999900   -1    0    0    0    0 -0.00000000000E+00 -0.00000000000E+00 -0.74505805969E-08  0.93827000000E+00  0.93827000000E+00 0.  1.
     999902    2    1    2    0    0 -0.12440240869E-03 -0.43819796153E-02 -0.23162400060E-01  0.10203564131E+01  0.10200840631E+01 0.  0.
     999903    2    3    3    0    0  0.12287056519E+00 -0.34709246620E-01 -0.23926598810E-01  0.13128493728E+00  0.19009077697E-01 0.  0.
         14    1    1    2    0    0  0.12440240869E-03  0.43819796153E-02  0.23162400060E-01  0.23573586868E-01  0.00000000000E+00 0. -1.
     999901    1    3    3    0    0 -0.12299496760E+00  0.30327267005E-01  0.76419875049E-03  0.88907147585E+00  0.88000000000E+00 0. -1.
        -11    1    4    4    0    0  0.46637873124E-01 -0.17452120972E-01 -0.17790190662E-01  0.52881185130E-01  0.51100000000E-03 0.  1.
         11    1    4    4    0    0  0.76232692063E-01 -0.17257125648E-01 -0.61364081488E-02  0.78403752147E-01  0.51100000000E-03 0. -1.
</event>
<event>
 8    1  0.1143506E+005  0.1043930E+01  0.7957747E-01            NaN
         13   -1    0    0    0    0  0.00000000000E+00  0.00000000000E+00  0.74505805969E-08  0.10566000000E+00  0.10566000000E+00 0. -1.
     999900   -1    0    0    0    0 -0.00000000000E+00 -0.00000000000E+00 -0.74505805969E-08  0.93827000000E+00  0.93827000000E+00 0.  1.
     999902    2    1    2    0    0 -0.89179409625E-02 -0.11118445273E-02  0.22199002770E-01  0.10199808540E+01  0.10196996523E+01 0.  0.
     999903    2    3    3    0    0  0.90472384696E-01  0.47158138032E-01 -0.74248739609E-01  0.12784263880E+00  0.20535885313E-01 0.  0.
         14    1    1    2    0    0  0.89179409625E-02  0.11118445273E-02 -0.22199002770E-01  0.23949145982E-01  0.00000000000E+00 0.  1.
     999901    1    3    3    0    0 -0.99390325658E-01 -0.48269982559E-01  0.96447742379E-01  0.89213821522E+00  0.88000000000E+00 0.  1.
        -11    1    4    4    0    0  0.62359354017E-01  0.36390288066E-01 -0.62591632253E-01  0.95555824773E-01  0.51100000000E-03 0. -1.
         11    1    4    4    0    0  0.28113030678E-01  0.10767849966E-01 -0.11657107355E-01  0.32286814022E-01  0.51100000000E-03 0.  1.
</event>
<event>
 8    1  0.1143506E+005  0.1043930E+01  0.7957747E-01            NaN
         13   -1    0    0    0    0  0.00000000000E+00  0.00000000000E+00  0.74505805969E-08  0.10566000000E+00  0.10566000000E+00 0. -1.
     999900   -1    0    0    0    0 -0.00000000000E+00 -0.00000000000E+00 -0.74505805969E-08  0.93827000000E+00  0.93827000000E+00 0. -1.
     999902    2    1    2    0    0  0.48899109337E-02  0.13231627109E-01  0.18556694826E-01  0.10206203859E+01  0.10203541709E+01 0.  0.
     999903    2    3    3    0    0  0.75175003261E-01  0.77995901002E-01 -0.70035625592E-01  0.13102328353E+00  0.22966721277E-01 0.  0.
         14    1    1    2    0    0 -0.48899109337E-02 -0.13231627109E-01 -0.18556694826E-01  0.23309614063E-01  0.00000000000E+00 0.  1.
     999901    1    3    3    0    0 -0.70285092327E-01 -0.64764273892E-01  0.88592320418E-01  0.88959710241E+00  0.88000000000E+00 0.  1.
        -11    1    4    4    0    0  0.60294334810E-01  0.49233255964E-01 -0.55014711453E-01  0.95321560521E-01  0.51100000000E-03 0.  1.
         11    1    4    4    0    0  0.14880668451E-01  0.28762645038E-01 -0.15020914139E-01  0.35701723007E-01  0.51100000000E-03 0. -1.
</event>
<event>
 8    1  0.1143506E+005  0.1043930E+01  0.7957747E-01            NaN
         13   -1    0    0    0    0  0.00000000000E+00  0.00000000000E+00  0.74505805969E-08  0.10566000000E+00  0.10566000000E+00 0.  1.
     999900   -1    0    0    0    0 -0.00000000000E+00 -0.00000000000E+00 -0.74505805969E-08  0.93827000000E+00  0.93827000000E+00 0.  1.
     999902    2    1    2    0    0 -0.21368873107E-02 -0.15129742217E-01 -0.19473322867E-01  0.10191775114E+01  0.10188768886E+01 0.  0.
     999903    2    3    3    0    0 -0.12134367750E-01  0.12534076816E+00  0.47335510813E-02  0.12765191637E+00  0.20372879120E-01 0.  0.
         14    1    1    2    0    0  0.21368873107E-02  0.15129742217E-01  0.19473322867E-01  0.24752488570E-01  0.00000000000E+00 0.  1.
     999901    1    3    3    0    0  0.99974804388E-02 -0.14047051038E+00 -0.24206873949E-01  0.89152559506E+00  0.88000000000E+00 0.  1.
        -11    1    4    4    0    0  0.37963097960E-02  0.94130529260E-02 -0.23099449709E-02  0.10421828065E-01  0.51100000000E-03 0.  1.
         11    1    4    4    0    0 -0.15930677546E-01  0.11592771523E+00  0.70434960523E-02  0.11723008830E+00  0.51100000000E-03 0. -1.
</event>
<event>
 8    1  0.1143506E+005  0.1043930E+01  0.7957747E-01            NaN
         13   -1    0    0    0    0  0.00000000000E+00  0.00000000000E+00  0.74505805969E-08  0.10566000000E+00  0.10566000000E+00 0.  1.
     999900   -1    0    0    0    0 -0.00000000000E+00 -0.00000000000E+00 -0.74505805969E-08  0.93827000000E+00  0.93827000000E+00 0. -1.
     999902    2    1    2    0    0 -0.22717761977E-01 -0.21094509513E-02 -0.10514748459E-01  0.10188081683E+01  0.10184983934E+01 0.  0.
     999903    2    3    3    0    0 -0.10229632609E+00 -0.33735305149E-01 -0.73131452007E-01  0.13243703042E+00  0.24264142411E-01 0.  0.
         14    1    1    2    0    0  0.22717761977E-01  0.21094509513E-02  0.10514748459E-01  0.25121831695E-01  0.00000000000E+00 0.  1.
     999901    1    3    3    0    0  0.79578564117E-01  0.31625854198E-01  0.62616703547E-01  0.88637113789E+00  0.88000000000E+00 0.  1.
        -11    1    4    4    0    0 -0.69060689189E-01 -0.11104595571E-01 -0.42079368749E-01  0.81631031044E-01  0.51100000000E-03 0. -1.
         11    1    4    4    0    0 -0.33235636905E-01 -0.22630709578E-01 -0.31052083258E-01  0.50805999371E-01  0.51100000000E-03 0.  1.
</event>
<event>
 8    1  0.1163121E+005  0.1043930E+01  0.7957747E-01            NaN
         13   -1    0    0    0    0  0.00000000000E+00  0.00000000000E+00  0.74505805969E-08  0.10566000000E+00  0.10566000000E+00 0. -1.
     999900   -1    0    0    0    0 -0.00000000000E+00 -0.00000000000E+00 -0.74505805969E-08  0.93827000000E+00  0.93827000000E+00 0.  1.
     999902    2    1    2    0    0 -0.70183147905E-02  0.13001190877E-01 -0.18702347104E-01  0.10200958754E+01  0.10198174001E+01 0.  0.
     999903    2    3    3    0    0 -0.63980912042E-01  0.11375594023E+00 -0.99250060554E-02  0.13247360289E+00  0.20415157949E-01 0.  0.
         14    1    1    2    0    0  0.70183147905E-02 -0.13001190877E-01  0.18702347104E-01  0.23834124568E-01  0.00000000000E+00 0. -1.
     999901    1    3    3    0    0  0.56962597252E-01 -0.10075474935E+00 -0.87773410487E-02  0.88762227255E+00  0.88000000000E+00 0.  1.
        -11    1    4    4    0    0 -0.39400835139E-01  0.74238667466E-01  0.32274501493E-02  0.84109946571E-01  0.51100000000E-03 0.  1.
         11    1    4    4    0    0 -0.24580076903E-01  0.39517272761E-01 -0.13152456205E-01  0.48363656316E-01  0.51100000000E-03 0. -1.
</event>
<event>
 8    1  0.1143506E+005  0.1043930E+01  0.7957747E-01            NaN
         13   -1    0    0    0    0  0.00000000000E+00  0.00000000000E+00  0.74505805969E-08  0.10566000000E+00  0.10566000000E+00 0.  1.
     999900   -1    0    0    0    0 -0.00000000000E+00 -0.00000000000E+00 -0.74505805969E-08  0.93827000000E+00  0.93827000000E+00 0. -1.
     999902    2    1    2    0    0  0.15198494520E-01 -0.12899322966E-01  0.13154293711E-01  0.10200464866E+01  0.10197668423E+01 0.  0.
     999903    2    3    3    0    0  0.61778143039E-01 -0.44722518319E-01 -0.10371947621E+00  0.13052871978E+00  0.21526131531E-01 0.  0.
         14    1    1    2    0    0 -0.15198494520E-01  0.12899322966E-01 -0.13154293711E-01  0.23883513387E-01  0.00000000000E+00 0. -1.
     999901    1    3    3    0    0 -0.46579648519E-01  0.31823195353E-01  0.11687376993E+00  0.88951776684E+00  0.88000000000E+00 0.  1.
        -11    1    4    4    0    0  0.35426754214E-01 -0.16975642152E-01 -0.65916729804E-01  0.76736586644E-01  0.51100000000E-03 0.  1.
         11    1    4    4    0    0  0.26351388825E-01 -0.27746876167E-01 -0.37802746409E-01  0.53792133135E-01  0.51100000000E-03 0. -1.
</event>
<event>
 8    1  0.1143506E+005  0.1043930E+01  0.7957747E-01            NaN
         13   -1    0    0    0    0  0.00000000000E+00  0.00000000000E+00  0.74505805969E-08  0.10566000000E+00  0.10566000000E+00 0. -1.
     999900   -1    0    0    0    0 -0.00000000000E+00 -0.00000000000E+00 -0.74505805969E-08  0.93827000000E+00  0.93827000000E+00 0. -1.
     999902    2    1    2    0    0  0.64573490650E-02  0.16617906014E-01 -0.15853847753E-01  0.10200721576E+01  0.10197931212E+01 0.  0.
     999903    2    3    3    0    0  0.21573936813E-01  0.99903467091E-01  0.79294319549E-01  0.13090503623E+00  0.20059957933E-01 0.  0.
         14    1    1    2    0    0 -0.64573490650E-02 -0.16617906014E-01  0.15853847753E-01  0.23857842439E-01  0.00000000000E+00 0. -1.
     999901    1    3    3    0    0 -0.15116587748E-01 -0.83285561076E-01 -0.95148167302E-01  0.88916712133E+00  0.88000000000E+00 0. -1.
        -11    1    4    4    0    0  0.15041487750E-01  0.53862976121E-01  0.31357165306E-01  0.64117076411E-01  0.51100000000E-03 0. -1.
         11    1    4    4    0    0  0.65324490627E-02  0.46040490969E-01  0.47937154243E-01  0.66787959823E-01  0.51100000000E-03 0.  1.
</event>
<event>
 8    1  0.1143506E+005  0.1043930E+01  0.7957747E-01            NaN
         13   -1    0    0    0    0  0.00000000000E+00  0.00000000000E+00  0.74505805969E-08  0.10566000000E+00  0.10566000000E+00 0. -1.
     999900   -1    0    0    0    0 -0.00000000000E+00 -0.00000000000E+00 -0.74505805969E-08  0.93827000000E+00  0.93827000000E+00 0. -1.
     999902    2    1    2    0    0  0.17605689214E-01 -0.43168200987E-02  0.14539287874E-01  0.10206923986E+01  0.10204278448E+01 0.  0.
     999903    2    3    3    0    0  0.10515963977E+00  0.30508420539E-01 -0.70087079431E-01  0.13162540802E+00  0.20584843253E-01 0.  0.
         14    1    1    2    0    0 -0.17605689214E-01  0.43168200987E-02 -0.14539287874E-01  0.23237601433E-01  0.00000000000E+00 0. -1.
     999901    1    3    3    0    0 -0.87553950558E-01 -0.34825240638E-01  0.84626367305E-01  0.88906699055E+00  0.88000000000E+00 0.  1.
        -11    1    4    4    0    0  0.74203412422E-01  0.22352023271E-01 -0.60149224001E-01  0.98101731015E-01  0.51100000000E-03 0. -1.
         11    1    4    4    0    0  0.30956227350E-01  0.81563972683E-02 -0.99378554297E-02  0.33523677001E-01  0.51100000000E-03 0.  1.
</event>
<event>
 8    1  0.1143506E+005  0.1043930E+01  0.7957747E-01            NaN
         13   -1    0    0    0    0  0.00000000000E+00  0.00000000000E+00  0.74505805969E-08  0.10566000000E+00  0.10566000000E+00 0. -1.
     999900   -1    0    0    0    0 -0.00000000000E+00 -0.00000000000E+00 -0.74505805969E-08  0.93827000000E+00  0.93827000000E+00 0. -1.
     999902    2    1    2    0    0 -0.12063962175E-02  0.36139017811E-02  0.25795228998E-01  0.10178549254E+01  0.10175208792E+01 0.  0.
     999903    2    3    3    0    0  0.22709424573E-01  0.12113254621E+00 -0.28434061350E-01  0.12806651558E+00  0.20092905511E-01 0.  0.
         14    1    1    2    0    0  0.12063962175E-02 -0.36139017811E-02 -0.25795228998E-01  0.26075074630E-01  0.00000000000E+00 0.  1.
     999901    1    3    3    0    0 -0.23915820790E-01 -0.11751864443E+00  0.54229290348E-01  0.88978840979E+00  0.88000000000E+00 0.  1.
        -11    1    4    4    0    0  0.68130441200E-03  0.55830182395E-01 -0.15448127408E-01  0.57934266227E-01  0.51100000000E-03 0.  1.
         11    1    4    4    0    0  0.22028120161E-01  0.65302363813E-01 -0.12985933943E-01  0.70132249349E-01  0.51100000000E-03 0. -1.
</event>
<event>
 8    1  0.1143506E+005  0.1043930E+01  0.7957747E-01            NaN
         13   -1    0    0    0    0  0.00000000000E+00  0.00000000000E+00  0.74505805969E-08  0.10566000000E+00  0.10566000000E+00 0.  1.
     999900   -1    0    0    0    0 -0.00000000000E+00 -0.00000000000E+00 -0.74505805969E-08  0.93827000000E+00  0.93827000000E+00 0. -1.
     999902    2    1    2    0    0 -0.22553978302E-01  0.76127341048E-02  0.53254916728E-02  0.10195374495E+01  0.10192456105E+01 0.  0.
     999903    2    3    3    0    0 -0.42388644512E-01  0.50547456115E-01  0.11231811226E+00  0.13179636947E+00  0.20076906096E-01 0.  0.
         14    1    1    2    0    0  0.22553978302E-01 -0.76127341048E-02 -0.53254916728E-02  0.24392550489E-01  0.00000000000E+00 0. -1.
     999901    1    3    3    0    0  0.19834666210E-01 -0.42934722011E-01 -0.10699262059E+00  0.88774108004E+00  0.88000000000E+00 0. -1.
        -11    1    4    4    0    0 -0.82470494882E-03  0.16274155812E-02  0.15588749542E-01  0.15703466273E-01  0.51100000000E-03 0.  1.
         11    1    4    4    0    0 -0.41563939564E-01  0.48920040534E-01  0.96729362723E-01  0.11609290319E+00  0.51100000000E-03 0. -1.
</event>
<event>
 8    1  0.1143506E+005  0.1043930E+01  0.7957747E-01            NaN
         13   -1    0    0    0    0  0.00000000000E+00  0.00000000000E+00  0.74505805969E-08  0.10566000000E+00  0.10566000000E+00 0.  1.
     999900   -1    0    0    0    0 -0.00000000000E+00 -0.00000000000E+00 -0.74505805969E-08  0.93827000000E+00  0.93827000000E+00 0.  1.
     999902    2    1    2    0    0  0.20263302178E-01 -0.79428729023E-02  0.10295262164E-01  0.10198533917E+01  0.10195691529E+01 0.  0.
     999903    2    3    3    0    0  0.18606071375E-01 -0.23472590215E-01  0.12716457647E+00  0.13198946339E+00  0.18794694829E-01 0.  0.
         14    1    1    2    0    0 -0.20263302178E-01  0.79428729023E-02 -0.10295262164E-01  0.24076608318E-01  0.00000000000E+00 0.  1.
     999901    1    3    3    0    0  0.16572308027E-02  0.15529717313E-01 -0.11686931431E+00  0.88786392829E+00  0.88000000000E+00 0.  1.
        -11    1    4    4    0    0  0.10114452464E-01 -0.21370422824E-01  0.64181750475E-01  0.68399965902E-01  0.51100000000E-03 0. -1.
         11    1    4    4    0    0  0.84916189110E-02 -0.21021673913E-02  0.62982825996E-01  0.63589497489E-01  0.51100000000E-03 0.  1.
</event>
<event>
 8    1  0.1143506E+005  0.1043930E+01  0.7957747E-01            NaN
         13   -1    0    0    0    0  0.00000000000E+00  0.00000000000E+00  0.74505805969E-08  0.10566000000E+00  0.10566000000E+00 0. -1.
     999900   -1    0    0    0    0 -0.00000000000E+00 -0.00000000000E+00 -0.74505805969E-08  0.93827000000E+00  0.93827000000E+00 0.  1.
     999902    2    1    2    0    0  0.23508535380E-01  0.94482447992E-02 -0.16446156761E-01  0.10137240960E+01  0.10132739739E+01 0.  0.
     999903    2    3    3    0    0 -0.48532228783E-02  0.10792530631E+00 -0.62840289164E-01  0.12656315427E+00  0.19947545231E-01 0.  0.
         14    1    1    2    0    0 -0.23508535380E-01 -0.94482447992E-02  0.16446156761E-01  0.30205904021E-01  0.00000000000E+00 0.  1.
     999901    1    3    3    0    0  0.28361758259E-01 -0.98477061515E-01  0.46394132402E-01  0.88716094171E+00  0.88000000000E+00 0. -1.
        -11    1    4    4    0    0 -0.79229189797E-02  0.22216314052E-01 -0.87346361923E-02  0.25157349734E-01  0.51100000000E-03 0. -1.
         11    1    4    4    0    0  0.30696961014E-02  0.85708992262E-01 -0.54105652971E-01  0.10140580453E+00  0.51100000000E-03 0.  1.
</event>
<event>
 8    1  0.1143506E+005  0.1043930E+01  0.7957747E-01            NaN
         13   -1    0    0    0    0  0.00000000000E+00  0.00000000000E+00  0.74505805969E-08  0.10566000000E+00  0.10566000000E+00 0.  1.
     999900   -1    0    0    0    0 -0.00000000000E+00 -0.00000000000E+00 -0.74505805969E-08  0.93827000000E+00  0.93827000000E+00 0. -1.
     999902    2    1    2    0    0  0.91786500922E-02  0.90854141304E-02 -0.17299402339E-01  0.10223415381E+01  0.10221135743E+01 0.  0.
     999903    2    3    3    0    0 -0.22321260321E-01 -0.11765556804E+00  0.46072789784E-01  0.13044941698E+00  0.23521842617E-01 0.  0.
         14    1    1    2    0    0 -0.91786500922E-02 -0.90854141304E-02  0.17299402339E-01  0.21588461935E-01  0.00000000000E+00 0.  1.
     999901    1    3    3    0    0  0.31499910413E-01  0.12674098217E+00 -0.63372192123E-01  0.89189212108E+00  0.88000000000E+00 0.  1.
        -11    1    4    4    0    0 -0.24576166043E-01 -0.89185817256E-01  0.28029946045E-01  0.96664558827E-01  0.51100000000E-03 0. -1.
         11    1    4    4    0    0  0.22549057225E-02 -0.28469750781E-01  0.18042843739E-01  0.33784858154E-01  0.51100000000E-03 0.  1.
</event>
<event>
 8    1  0.1143506E+005  0.1043930E+01  0.7957747E-01            NaN
         13   -1    0    0    0    0  0.00000000000E+00  0.00000000000E+00  0.74505805969E-08  0.10566000000E+00  0.10566000000E+00 0. -1.
     999900   -1    0    0    0    0 -0.00000000000E+00 -0.00000000000E+00 -0.74505805969E-08  0.93827000000E+00  0.93827000000E+00 0.  1.
     999902    2    1    2    0    0  0.17174263442E-01 -0.13757581309E-01  0.72936186356E-02  0.10207476092E+01  0.10204843255E+01 0.  0.
     999903    2    3    3    0    0  0.10390896409E+00  0.57349303405E-01 -0.53292701929E-01  0.13156270182E+00  0.19560598461E-01 0.  0.
         14    1    1    2    0    0 -0.17174263442E-01  0.13757581309E-01 -0.72936186356E-02  0.23182390754E-01  0.00000000000E+00 0.  1.
     999901    1    3    3    0    0 -0.86734700651E-01 -0.71106884714E-01  0.60586320564E-01  0.88918490742E+00  0.88000000000E+00 0.  1.
        -11    1    4    4    0    0  0.75324852577E-01  0.41169259618E-01 -0.47809122488E-01  0.98258407616E-01  0.51100000000E-03 0.  1.
         11    1    4    4    0    0  0.28584111516E-01  0.16180043787E-01 -0.54835794406E-02  0.33304294206E-01  0.51100000000E-03 0. -1.
</event>
<event>
 8    1  0.1143506E+005  0.1043930E+01  0.7957747E-01            NaN
         13   -1    0    0    0    0  0.00000000000E+00  0.00000000000E+00  0.74505805969E-08  0.10566000000E+00  0.10566000000E+00 0.  1.
     999900   -1    0    0    0    0 -0.00000000000E+00 -0.00000000000E+00 -0.74505805969E-08  0.93827000000E+00  0.93827000000E+00 0. -1.
     999902    2    1    2    0    0 -0.81751126308E-02  0.42661190577E-02 -0.22024730743E-01  0.10200527932E+01  0.10197732983E+01 0.  0.
     999903    2    3    3    0    0  0.12101357807E+00  0.33854004910E-01  0.21239587682E-01  0.12907750624E+00  0.20481767650E-01 0.  0.
         14    1    1    2    0    0  0.81751126308E-02 -0.42661190577E-02  0.22024730743E-01  0.23877206759E-01  0.00000000000E+00 0.  1.
     999901    1    3    3    0    0 -0.12918869070E+00 -0.29587885852E-01 -0.43264318425E-01  0.89097528700E+00  0.88000000000E+00 0. -1.
        -11    1    4    4    0    0  0.70559966160E-01  0.21448195908E-01  0.23355832184E-02  0.73786516398E-01  0.51100000000E-03 0. -1.
         11    1    4    4    0    0  0.50453611913E-01  0.12405809002E-01  0.18904004464E-01  0.55290989843E-01  0.51100000000E-03 0.  1.
</event>
<event>
 8    1  0.1143506E+005  0.1043930E+01  0.7957747E-01            NaN
         13   -1    0    0    0    0  0.00000000000E+00  0.00000000000E+00  0.74505805969E-08  0.10566000000E+00  0.10566000000E+00 0.  1.
     999900   -1    0    0    0    0 -0.00000000000E+00 -0.00000000000E+00 -0.74505805969E-08  0.93827000000E+00  0.93827000000E+00 0. -1.
     999902    2    1    2    0    0 -0.91803399256E-02  0.52774407853E-02  0.20734605039E-01  0.10206479496E+01  0.10203823711E+01 0.  0.
     999903    2    3    3    0    0 -0.30316159171E-01  0.11660212304E+00  0.54682334758E-01  0.13273333884E+00  0.10623412814E-01 0.  0.
         14    1    1    2    0    0  0.91803399256E-02 -0.52774407853E-02 -0.20734605039E-01  0.23282050350E-01  0.00000000000E+00 0. -1.
     999901    1    3    3    0    0  0.21135819245E-01 -0.11132468226E+00 -0.33947729719E-01  0.88791461081E+00  0.88000000000E+00 0. -1.
        -11    1    4    4    0    0 -0.52260456382E-02  0.39291950044E-01  0.16696407093E-01  0.43013951482E-01  0.51100000000E-03 0. -1.
         11    1    4    4    0    0 -0.25090113533E-01  0.77310173001E-01  0.37985927665E-01  0.89719387359E-01  0.51100000000E-03 0.  1.
</event>
<event>
 8    1  0.1143506E+005  0.1043930E+01  0.7957747E-01            NaN
         13   -1    0    0    0    0  0.00000000000E+00  0.00000000000E+00  0.74505805969E-08  0.10566000000E+00  0.10566000000E+00 0. -1.
     999900   -1    0    0    0    0 -0.00000000000E+00 -0.00000000000E+00 -0.74505805969E-08  0.93827000000E+00  0.93827000000E+00 0.  1.
     999902    2    1    2    0    0  0.16407250537E-03 -0.78397381696E-02  0.21416614163E-01  0.10211229884E+01  0.10208682568E+01 0.  0.
     999903    2    3    3    0    0 -0.81248308690E-01 -0.50964126632E-01  0.88250434842E-01  0.13379303386E+00  0.30229237376E-01 0.  0.
         14    1    1    2    0    0 -0.16407250537E-03  0.78397381696E-02 -0.21416614163E-01  0.22807011566E-01  0.00000000000E+00 0.  1.
     999901    1    3    3    0    0  0.81412381195E-01  0.43124388462E-01 -0.66833820678E-01  0.88732995457E+00  0.88000000000E+00 0. -1.
        -11    1    4    4    0    0 -0.62734789376E-01 -0.27599427714E-01  0.73606316830E-01  0.10057600711E+00  0.51100000000E-03 0. -1.
         11    1    4    4    0    0 -0.18513519313E-01 -0.23364698918E-01  0.14644118012E-01  0.33217026752E-01  0.51100000000E-03 0.  1.
</event>
<event>
 8    1  0.1143506E+005  0.1043930E+01  0.7957747E-01            NaN
         13   -1    0    0    0    0  0.00000000000E+00  0.00000000000E+00  0.74505805969E-08  0.10566000000E+00  0.10566000000E+00 0.  1.
     999900   -1    0    0    0    0 -0.00000000000E+00 -0.00000000000E+00 -0.74505805969E-08  0.93827000000E+00  0.93827000000E+00 0.  1.
     999902    2    1    2    0    0  0.13614737358E-01 -0.92899873364E-02  0.16339002149E-01  0.10207216410E+01  0.10204577602E+01 0.  0.
     999903    2    3    3    0    0  0.91946123268E-01  0.91909351470E-01  0.32945574747E-02  0.13136947802E+00  0.18592126674E-01 0.  0.
         14    1    1    2    0    0 -0.13614737358E-01  0.92899873364E-02 -0.16339002149E-01  0.23208359039E-01  0.00000000000E+00 0.  1.
     999901    1    3    3    0    0 -0.78331385910E-01 -0.10119933881E+00  0.13044444675E-01  0.88935216294E+00  0.88000000000E+00 0. -1.
        -11    1    4    4    0    0  0.52438745913E-01  0.62900974525E-01 -0.30120806388E-02  0.81949303962E-01  0.51100000000E-03 0. -1.
         11    1    4    4    0    0  0.39507377355E-01  0.29008376945E-01  0.63066381134E-02  0.49420174056E-01  0.51100000000E-03 0.  1.
</event>
<event>
 8    1  0.1143506E+005  0.1043930E+01  0.7957747E-01            NaN
         13   -1    0    0    0    0  0.00000000000E+00  0.00000000000E+00  0.74505805969E-08  0.10566000000E+00  0.10566000000E+00 0. -1.
     999900   -1    0    0    0    0 -0.00000000000E+00 -0.00000000000E+00 -0.74505805969E-08  0.93827000000E+00  0.93827000000E+00 0.  1.
     999902    2    1    2    0    0 -0.66184146171E-02  0.13859534721E-01 -0.20242612991E-01  0.10185202874E+01  0.10182032814E+01 0.  0.
     999903    2    3    3    0    0  0.90138491508E-01 -0.85556079251E-01  0.17810633694E-01  0.12684018063E+00  0.18067163656E-01 0.  0.
         14    1    1    2    0    0  0.66184146171E-02 -0.13859534721E-01  0.20242612991E-01  0.25409712620E-01  0.00000000000E+00 0. -1.
     999901    1    3    3    0    0 -0.96756906125E-01  0.99415613972E-01 -0.38053246685E-01  0.89168010675E+00  0.88000000000E+00 0. -1.
        -11    1    4    4    0    0  0.48546559766E-01 -0.35740191649E-01  0.13629927206E-01  0.61807489845E-01  0.51100000000E-03 0.  1.
         11    1    4    4    0    0  0.41591931741E-01 -0.49815887602E-01  0.41807064883E-02  0.65032690789E-01  0.51100000000E-03 0. -1.
</event>
<event>
 8    1  0.1143506E+005  0.1043930E+01  0.7957747E-01            NaN
         13   -1    0    0    0    0  0.00000000000E+00  0.00000000000E+00  0.74505805969E-08  0.10566000000E+00  0.10566000000E+00 0.  1.
     999900   -1    0    0    0    0 -0.00000000000E+00 -0.00000000000E+00 -0.74505805969E-08  0.93827000000E+00  0.93827000000E+00 0. -1.
     999902    2    1    2    0    0  0.24379624753E-01  0.65337485416E-02  0.30212279043E-02  0.10185098546E+01  0.10181925850E+01 0.  0.
     999903    2    3    3    0    0  0.10573958177E+00 -0.45403416820E-01 -0.59451534222E-01  0.13103041387E+00  0.19802904430E-01 0.  0.
         14    1    1    2    0    0 -0.24379624753E-01 -0.65337485416E-02 -0.30212279043E-02  0.25420145380E-01  0.00000000000E+00 0. -1.
     999901    1    3    3    0    0 -0.81359957022E-01  0.51937165361E-01  0.62472762127E-01  0.88747944075E+00  0.88000000000E+00 0.  1.
        -11    1    4    4    0    0  0.69665489712E-01 -0.38650966766E-01 -0.35641016219E-01  0.87279555721E-01  0.51100000000E-03 0.  1.
         11    1    4    4    0    0  0.36074092063E-01 -0.67524500540E-02 -0.23810518004E-01  0.43750858146E-01  0.51100000000E-03 0. -1.
</event>
<event>
 8    1  0.1143506E+005  0.1043930E+01  0.7957747E-01            NaN
         13   -1    0    0    0    0  0.00000000000E+00  0.00000000000E+00  0.74505805969E-08  0.10566000000E+00  0.10566000000E+00 0.  1.
     999900   -1    0    0    0    0 -0.00000000000E+00 -0.00000000000E+00 -0.74505805969E-08  0.93827000000E+00  0.93827000000E+00 0.  1.
     999902    2    1    2    0    0  0.13158495025E-01 -0.16156158954E-01 -0.12702811589E-01  0.10195265395E+01  0.10192344361E+01 0.  0.
     999903    2    3    3    0    0  0.66704392510E-01  0.10640415424E+00  0.20897124034E-01  0.12878687538E+00  0.19443493987E-01 0.  0.
         14    1    1    2    0    0 -0.13158495025E-01  0.16156158954E-01  0.12702811589E-01  0.24403460528E-01  0.00000000000E+00 0.  1.
     999901    1    3    3    0    0 -0.53545897485E-01 -0.12256031319E+00 -0.33599935623E-01  0.89073966409E+00  0.88000000000E+00 0. -1.
        -11    1    4    4    0    0  0.21486328748E-01  0.51392091792E-01  0.59473670544E-02  0.56021796809E-01  0.51100000000E-03 0.  1.
         11    1    4    4    0    0  0.45218063762E-01  0.55012062448E-01  0.14949756979E-01  0.72765078574E-01  0.51100000000E-03 0. -1.
</event>
<event>
 8    1  0.1143506E+005  0.1043930E+01  0.7957747E-01            NaN
         13   -1    0    0    0    0  0.00000000000E+00  0.00000000000E+00  0.74505805969E-08  0.10566000000E+00  0.10566000000E+00 0.  1.
     999900   -1    0    0    0    0 -0.00000000000E+00 -0.00000000000E+00 -0.74505805969E-08  0.93827000000E+00  0.93827000000E+00 0.  1.
     999902    2    1    2    0    0  0.88840986164E-02  0.11952589234E-01  0.19168193492E-01  0.10196563262E+01  0.10193673589E+01 0.  0.
     999903    2    3    3    0    0  0.17817639073E-01 -0.80124914979E-01 -0.95679565596E-01  0.12738502066E+00  0.18300108048E-01 0.  0.
         14    1    1    2    0    0 -0.88840986164E-02 -0.11952589234E-01 -0.19168193492E-01  0.24273673793E-01  0.00000000000E+00 0. -1.
     999901    1    3    3    0    0 -0.89335404569E-02  0.92077504214E-01  0.11484775909E+00  0.89227130554E+00  0.88000000000E+00 0. -1.
        -11    1    4    4    0    0  0.14695046400E-01 -0.29004022600E-01 -0.31504996862E-01  0.45276966152E-01  0.51100000000E-03 0. -1.
         11    1    4    4    0    0  0.31225926738E-02 -0.51120892379E-01 -0.64174568734E-01  0.82108054513E-01  0.51100000000E-03 0.  1.
</event>
<event>
 8    1  0.1143506E+005  0.1043930E+01  0.7957747E-01            NaN
         13   -1    0    0    0    0  0.00000000000E+00  0.00000000000E+00  0.74505805969E-08  0.10566000000E+00  0.10566000000E+00 0. -1.
     999900   -1    0    0    0    0 -0.00000000000E+00 -0.00000000000E+00 -0.74505805969E-08  0.93827000000E+00  0.93827000000E+00 0. -1.
     999902    2    1    2    0    0 -0.89208328457E-02  0.49267657498E-03 -0.22407202415E-01  0.10198072574E+01  0.10195219152E+01 0.  0.
     999903    2    3    3    0    0  0.33958678201E-01 -0.12328465130E+00  0.80099214346E-02  0.12959117086E+00  0.19427188481E-01 0.  0.
         14    1    1    2    0    0  0.89208328457E-02 -0.49267657498E-03  0.22407202415E-01  0.24122742566E-01  0.00000000000E+00 0. -1.
     999901    1    3    3    0    0 -0.42879511047E-01  0.12377732788E+00 -0.30417123849E-01  0.89021608657E+00  0.88000000000E+00 0. -1.
        -11    1    4    4    0    0  0.88356870790E-02 -0.67915115458E-01  0.24566763737E-02  0.68533412681E-01  0.51100000000E-03 0. -1.
         11    1    4    4    0    0  0.25122991122E-01 -0.55369535846E-01  0.55532450609E-02  0.61057758183E-01  0.51100000000E-03 0.  1.
</event>
<event>
 8    1  0.1143506E+005  0.1043930E+01  0.7957747E-01            NaN
         13   -1    0    0    0    0  0.00000000000E+00  0.00000000000E+00  0.74505805969E-08  0.10566000000E+00  0.10566000000E+00 0.  1.
     999900   -1    0    0    0    0 -0.00000000000E+00 -0.00000000000E+00 -0.74505805969E-08  0.93827000000E+00  0.93827000000E+00 0.  1.
     999902    2    1    2    0    0  0.16569507408E-01  0.13758779275E-01 -0.77585369114E-02  0.10210379167E+01  0.10207812596E+01 0.  0.
     999903    2    3    3    0    0  0.12154297891E-01  0.11536334640E+00 -0.63640728167E-01  0.13341986740E+00  0.17154885218E-01 0.  0.
         14    1    1    2    0    0 -0.16569507408E-01 -0.13758779275E-01  0.77585369114E-02  0.22892083302E-01  0.00000000000E+00 0.  1.
     999901    1    3    3    0    0  0.44152095174E-02 -0.10160456712E+00  0.55882191255E-01  0.88761804930E+00  0.88000000000E+00 0.  1.
        -11    1    4    4    0    0  0.10217442100E-01  0.61532825130E-01 -0.25360516327E-01  0.67335737917E-01  0.51100000000E-03 0. -1.
         11    1    4    4    0    0  0.19368557911E-02  0.53830521269E-01 -0.38280211839E-01  0.66084129485E-01  0.51100000000E-03 0.  1.
</event>
<event>
 8    1  0.1143506E+005  0.1043930E+01  0.7957747E-01            NaN
         13   -1    0    0    0    0  0.00000000000E+00  0.00000000000E+00  0.74505805969E-08  0.10566000000E+00  0.10566000000E+00 0.  1.
     999900   -1    0    0    0    0 -0.00000000000E+00 -0.00000000000E+00 -0.74505805969E-08  0.93827000000E+00  0.93827000000E+00 0. -1.
     999902    2    1    2    0    0  0.19321248028E-01 -0.15488942054E-02  0.13218383566E-01  0.10204686411E+01  0.10201989081E+01 0.  0.
     999903    2    3    3    0    0  0.43798795116E-01 -0.92411973466E-02 -0.12040280352E+00  0.13001204838E+00  0.20063983765E-01 0.  0.
         14    1    1    2    0    0 -0.19321248028E-01  0.15488942054E-02 -0.13218383566E-01  0.23461358927E-01  0.00000000000E+00 0. -1.
     999901    1    3    3    0    0 -0.24477547087E-01  0.76923031412E-02  0.13362118709E+00  0.89045659270E+00  0.88000000000E+00 0.  1.
        -11    1    4    4    0    0  0.25304326406E-01 -0.12942063084E-01 -0.88434635333E-01  0.92891074809E-01  0.51100000000E-03 0. -1.
         11    1    4    4    0    0  0.18494468710E-01  0.37008657374E-02 -0.31968168191E-01  0.37120973566E-01  0.51100000000E-03 0.  1.
</event>
<event>
 7    1  0.1143506E+005  0.1043930E+01  0.7957747E-01            NaN
         13   -1    0    0    0    0  0.00000000000E+00  0.00000000000E+00  0.74505805969E-08  0.10566000000E+00  0.10566000000E+00 0. -1.
     999900   -1    0    0    0    0 -0.00000000000E+00 -0.00000000000E+00 -0.74505805969E-08  0.93827000000E+00  0.93827000000E+00 0. -1.
     999903    2    1    2    0    0 -0.65046349200E-01 -0.22340029854E-01  0.27152435088E-02  0.71502627887E-01  0.19368757559E-01 0.  0.
         14    1    1    2    0    0  0.15610439714E-01  0.13024431209E-01 -0.84775399605E-01  0.87179068673E-01  0.00000000000E+00 0.  1.
     999901    1    1    2    0    0  0.49435909486E-01  0.93155986443E-02  0.82060156097E-01  0.88524830344E+00  0.88000000000E+00 0.  1.
        -11    1    3    3    0    0 -0.17760854018E-01 -0.20546495733E-02  0.83496594797E-02  0.19739489728E-01  0.51100000000E-03 0. -1.
         11    1    3    3    0    0 -0.47285495182E-01 -0.20285380280E-01 -0.56344159709E-02  0.51763138159E-01  0.51100000000E-03 0.  1.
</event>
<event>
 8    1  0.1143506E+005  0.1043930E+01  0.7957747E-01            NaN
         13   -1    0    0    0    0  0.00000000000E+00  0.00000000000E+00  0.74505805969E-08  0.10566000000E+00  0.10566000000E+00 0.  1.
     999900   -1    0    0    0    0 -0.00000000000E+00 -0.00000000000E+00 -0.74505805969E-08  0.93827000000E+00  0.93827000000E+00 0.  1.
     999902    2    1    2    0    0 -0.78925186804E-02  0.58574159762E-02  0.22149255966E-01  0.10196979817E+01  0.10194100172E+01 0.  0.
     999903    2    3    3    0    0 -0.92674139998E-01  0.66316525439E-01  0.64934660883E-01  0.13252617299E+00  0.18981532382E-01 0.  0.
         14    1    1    2    0    0  0.78925186804E-02 -0.58574159762E-02 -0.22149255966E-01  0.24232018341E-01  0.00000000000E+00 0. -1.
     999901    1    3    3    0    0  0.84781621318E-01 -0.60459109463E-01 -0.42785404918E-01  0.88717180867E+00  0.88000000000E+00 0. -1.
        -11    1    4    4    0    0 -0.81756335598E-01  0.56464797766E-01  0.63084709446E-01  0.11769585160E+00  0.51100000000E-03 0.  1.
         11    1    4    4    0    0 -0.10917804401E-01  0.98517276734E-02  0.18499514376E-02  0.14830321386E-01  0.51100000000E-03 0. -1.
</event>
<event>
 8    1  0.1143506E+005  0.1043930E+01  0.7957747E-01            NaN
         13   -1    0    0    0    0  0.00000000000E+00  0.00000000000E+00  0.74505805969E-08  0.10566000000E+00  0.10566000000E+00 0. -1.
     999900   -1    0    0    0    0 -0.00000000000E+00 -0.00000000000E+00 -0.74505805969E-08  0.93827000000E+00  0.93827000000E+00 0.  1.
     999902    2    1    2    0    0 -0.69083788410E-02 -0.14581558761E-01 -0.16455383124E-01  0.10208838032E+01  0.10206236390E+01 0.  0.
     999903    2    3    3    0    0  0.62808938103E-01 -0.10710665081E+00  0.38448400222E-01  0.13159429893E+00  0.20542216951E-01 0.  0.
         14    1    1    2    0    0  0.69083788410E-02  0.14581558761E-01  0.16455383124E-01  0.23046196820E-01  0.00000000000E+00 0. -1.
     999901    1    3    3    0    0 -0.69717316944E-01  0.92525092053E-01 -0.54903783346E-01  0.88928950425E+00  0.88000000000E+00 0.  1.
        -11    1    4    4    0    0  0.46423265058E-01 -0.61463639361E-01  0.28190355112E-01  0.82023507268E-01  0.51100000000E-03 0.  1.
         11    1    4    4    0    0  0.16385673045E-01 -0.45643011453E-01  0.10258045110E-01  0.49570791663E-01  0.51100000000E-03 0. -1.
</event>
<event>
 8    1  0.1143506E+005  0.1043930E+01  0.7957747E-01            NaN
         13   -1    0    0    0    0  0.00000000000E+00  0.00000000000E+00  0.74505805969E-08  0.10566000000E+00  0.10566000000E+00 0.  1.
     999900   -1    0    0    0    0 -0.00000000000E+00 -0.00000000000E+00 -0.74505805969E-08  0.93827000000E+00  0.93827000000E+00 0.  1.
     999902    2    1    2    0    0  0.58737531081E-02 -0.20666822591E-01 -0.10973654818E-01  0.10198045025E+01  0.10195190943E+01 0.  0.
     999903    2    3    3    0    0 -0.14405334909E-01 -0.82830188839E-01 -0.10063764107E+00  0.13283485476E+00  0.21185135850E-01 0.  0.
         14    1    1    2    0    0 -0.58737531081E-02  0.20666822591E-01  0.10973654818E-01  0.24125497542E-01  0.00000000000E+00 0. -1.
     999901    1    3    3    0    0  0.20279088017E-01  0.62163366248E-01  0.89663986252E-01  0.88696964770E+00  0.88000000000E+00 0. -1.
        -11    1    4    4    0    0 -0.68242134503E-02 -0.58346233401E-01 -0.83124412607E-01  0.10178792627E+00  0.51100000000E-03 0.  1.
         11    1    4    4    0    0 -0.75811214583E-02 -0.24483955438E-01 -0.17513228463E-01  0.31046928490E-01  0.51100000000E-03 0. -1.
</event>
<event>
 8    1  0.1143506E+005  0.1043930E+01  0.7957747E-01            NaN
         13   -1    0    0    0    0  0.00000000000E+00  0.00000000000E+00  0.74505805969E-08  0.10566000000E+00  0.10566000000E+00 0. -1.
     999900   -1    0    0    0    0 -0.00000000000E+00 -0.00000000000E+00 -0.74505805969E-08  0.93827000000E+00  0.93827000000E+00 0. -1.
     999902    2    1    2    0    0  0.15573556485E-01  0.16859330879E-01 -0.10217621401E-01  0.10188068536E+01  0.10184970458E+01 0.  0.
     999903    2    3    3    0    0  0.48251859836E-01  0.10274180635E+00 -0.65116020447E-01  0.13232081007E+00  0.19610709041E-01 0.  0.
         14    1    1    2    0    0 -0.15573556485E-01 -0.16859330879E-01  0.10217621401E-01  0.25123146426E-01  0.00000000000E+00 0. -1.
     999901    1    3    3    0    0 -0.32678303352E-01 -0.85882475475E-01  0.54898399046E-01  0.88648604350E+00  0.88000000000E+00 0.  1.
        -11    1    4    4    0    0  0.13106080649E-01  0.15724267062E-01 -0.57368850037E-02  0.21264874680E-01  0.51100000000E-03 0.  1.
         11    1    4    4    0    0  0.35145779188E-01  0.87017539291E-01 -0.59379135443E-01  0.11105593539E+00  0.51100000000E-03 0. -1.
</event>
<event>
 8    1  0.1143506E+005  0.1043930E+01  0.7957747E-01            NaN
         13   -1    0    0    0    0  0.00000000000E+00  0.00000000000E+00  0.74505805969E-08  0.10566000000E+00  0.10566000000E+00 0.  1.
     999900   -1    0    0    0    0 -0.00000000000E+00 -0.00000000000E+00 -0.74505805969E-08  0.93827000000E+00  0.93827000000E+00 0.  1.
     999902    2    1    2    0    0 -0.86293759272E-02  0.17515175366E-01  0.96230436534E-02  0.10221618934E+01  0.10219300787E+01 0.  0.
     999903    2    3    3    0    0 -0.13114757909E+00  0.16259385722E-01  0.37562898206E-02  0.13365375840E+00  0.19625552080E-01 0.  0.
         14    1    1    2    0    0  0.86293759272E-02 -0.17515175366E-01 -0.96230436534E-02  0.21768106628E-01  0.00000000000E+00 0.  1.
     999901    1    3    3    0    0  0.12251820317E+00  0.12557896442E-02  0.58667538328E-02  0.88850813497E+00  0.88000000000E+00 0.  1.
        -11    1    4    4    0    0 -0.43460094162E-01  0.14699225703E-01  0.28819433733E-03  0.45882362601E-01  0.51100000000E-03 0.  1.
         11    1    4    4    0    0 -0.87687484931E-01  0.15601600194E-02  0.34680954833E-02  0.87771395797E-01  0.51100000000E-03 0. -1.
</event>
<event>
 8    1  0.1143506E+005  0.1043930E+01  0.7957747E-01            NaN
         13   -1    0    0    0    0  0.00000000000E+00  0.00000000000E+00  0.74505805969E-08  0.10566000000E+00  0.10566000000E+00 0. -1.
     999900   -1    0    0    0    0 -0.00000000000E+00 -0.00000000000E+00 -0.74505805969E-08  0.93827000000E+00  0.93827000000E+00 0. -1.
     999902    2    1    2    0    0  0.20017574906E-01 -0.90880560206E-02 -0.76841343228E-02  0.10206417629E+01  0.10203760416E+01 0.  0.
     999903    2    3    3    0    0  0.79701323822E-01  0.10166924248E+00  0.13600542651E-01  0.13143854285E+00  0.20054423479E-01 0.  0.
         14    1    1    2    0    0 -0.20017574906E-01  0.90880560206E-02  0.76841343228E-02  0.23288237109E-01  0.00000000000E+00 0.  1.
     999901    1    3    3    0    0 -0.59683748916E-01 -0.11075729850E+00 -0.21284676974E-01  0.88920322004E+00  0.88000000000E+00 0.  1.
        -11    1    4    4    0    0  0.76416671017E-01  0.10192493018E+00  0.13482787592E-01  0.12810248117E+00  0.51100000000E-03 0.  1.
         11    1    4    4    0    0  0.32846528057E-02 -0.25568769824E-03  0.11775505923E-03  0.33360616761E-02  0.51100000000E-03 0. -1.
</event>
<event>
 8    1  0.1143506E+005  0.1043930E+01  0.7957747E-01            NaN
         13   -1    0    0    0    0  0.00000000000E+00  0.00000000000E+00  0.74505805969E-08  0.10566000000E+00  0.10566000000E+00 0. -1.
     999900   -1    0    0    0    0 -0.00000000000E+00 -0.00000000000E+00 -0.74505805969E-08  0.93827000000E+00  0.93827000000E+00 0. -1.
     999902    2    1    2    0    0  0.52806258120E-02 -0.18676673795E-01  0.11534314583E-01  0.10213524987E+01  0.10211029248E+01 0.  0.
     999903    2    3    3    0    0  0.32191219591E-01  0.51274849667E-01  0.11578188771E+00  0.13203537178E+00  0.19039670457E-01 0.  0.
         14    1    1    2    0    0 -0.52806258120E-02  0.18676673795E-01 -0.11534314583E-01  0.22577501321E-01  0.00000000000E+00 0.  1.
     999901    1    3    3    0    0 -0.26910593779E-01 -0.69951523462E-01 -0.10424757313E+00  0.88931712690E+00  0.88000000000E+00 0. -1.
        -11    1    4    4    0    0 -0.40675588811E-05  0.11144034798E-01  0.13272215644E-01  0.17337887911E-01  0.51100000000E-03 0.  1.
         11    1    4    4    0    0  0.32195287150E-01  0.40130814869E-01  0.10250967207E+00  0.11469748387E+00  0.51100000000E-03 0. -1.
</event>
<event>
 8    1  0.1143506E+005  0.1043930E+01  0.7957747E-01            NaN
         13   -1    0    0    0    0  0.00000000000E+00  0.00000000000E+00  0.74505805969E-08  0.10566000000E+00  0.10566000000E+00 0.  1.
     999900   -1    0    0    0    0 -0.00000000000E+00 -0.00000000000E+00 -0.74505805969E-08  0.93827000000E+00  0.93827000000E+00 0.  1.
     999902    2    1    2    0    0 -0.22441417457E-01  0.48011987977E-02  0.46581865853E-02  0.10205127536E+01  0.10202440457E+01 0.  0.
     999903    2    3    3    0    0  0.83095444976E-02  0.47826007928E-01  0.12002959684E+00  0.13140796889E+00  0.22462738168E-01 0.  0.
         14    1    1    2    0    0  0.22441417457E-01 -0.48011987977E-02 -0.46581865853E-02  0.23417246414E-01  0.00000000000E+00 0.  1.
     999901    1    3    3    0    0 -0.30750961954E-01 -0.43024809131E-01 -0.11537141026E+00  0.88910478469E+00  0.88000000000E+00 0.  1.
        -11    1    4    4    0    0  0.59807893053E-02  0.25375818522E-01  0.90827116728E-01  0.94496181195E-01  0.51100000000E-03 0. -1.
         11    1    4    4    0    0  0.23287551923E-02  0.22450189406E-01  0.29202480114E-01  0.36911787697E-01  0.51100000000E-03 0.  1.
</event>
<event>
 8    1  0.1143506E+005  0.1043930E+01  0.7957747E-01            NaN
         13   -1    0    0    0    0  0.00000000000E+00  0.00000000000E+00  0.74505805969E-08  0.10566000000E+00  0.10566000000E+00 0. -1.
     999900   -1    0    0    0    0 -0.00000000000E+00 -0.00000000000E+00 -0.74505805969E-08  0.93827000000E+00  0.93827000000E+00 0.  1.
     999902    2    1    2    0    0 -0.15529117779E-01 -0.15143998632E-01  0.10273260885E-01  0.10199292900E+01  0.10196468616E+01 0.  0.
     999903    2    3    3    0    0 -0.72710569869E-02  0.96180004807E-01  0.84382266290E-01  0.12978695639E+00  0.20514034018E-01 0.  0.
         14    1    1    2    0    0  0.15529117779E-01  0.15143998632E-01 -0.10273260885E-01  0.24000710047E-01  0.00000000000E+00 0.  1.
     999901    1    3    3    0    0 -0.82580607924E-02 -0.11132400344E+00 -0.74109005405E-01  0.89014233356E+00  0.88000000000E+00 0. -1.
        -11    1    4    4    0    0 -0.38525358585E-02  0.76889599033E-01  0.76884166044E-01  0.10880389966E+00  0.51100000000E-03 0. -1.
         11    1    4    4    0    0 -0.34185211284E-02  0.19290405774E-01  0.74981002457E-02  0.20983056735E-01  0.51100000000E-03 0.  1.
</event>
<event>
 8    1  0.1143506E+005  0.1043930E+01  0.7957747E-01            NaN
         13   -1    0    0    0    0  0.00000000000E+00  0.00000000000E+00  0.74505805969E-08  0.10566000000E+00  0.10566000000E+00 0.  1.
     999900   -1    0    0    0    0 -0.00000000000E+00 -0.00000000000E+00 -0.74505805969E-08  0.93827000000E+00  0.93827000000E+00 0.  1.
     999902    2    1    2    0    0  0.87578136287E-02 -0.14870458172E-01 -0.16449669084E-01  0.10200884095E+01  0.10198097576E+01 0.  0.
     999903    2    3    3    0    0  0.11758266729E+00 -0.50013528423E-01  0.22880011278E-01  0.13181778184E+00  0.22921518741E-01 0.  0.
         14    1    1    2    0    0 -0.87578136287E-02  0.14870458172E-01  0.16449669084E-01  0.23841590526E-01  0.00000000000E+00 0.  1.
     999901    1    3    3    0    0 -0.10882485366E+00  0.35143070251E-01 -0.39329680362E-01  0.88827062763E+00  0.88000000000E+00 0. -1.
        -11    1    4    4    0    0  0.59040400197E-01 -0.20304364559E-01  0.44177807044E-03  0.62437908072E-01  0.51100000000E-03 0.  1.
         11    1    4    4    0    0  0.58542267090E-01 -0.29709163864E-01  0.22438233207E-01  0.69379873768E-01  0.51100000000E-03 0. -1.
</event>
<event>
 8    1  0.1143506E+005  0.1043930E+01  0.7957747E-01            NaN
         13   -1    0    0    0    0  0.00000000000E+00  0.00000000000E+00  0.74505805969E-08  0.10566000000E+00  0.10566000000E+00 0.  1.
     999900   -1    0    0    0    0 -0.00000000000E+00 -0.00000000000E+00 -0.74505805969E-08  0.93827000000E+00  0.93827000000E+00 0. -1.
     999902    2    1    2    0    0 -0.22182959147E-02  0.68369342123E-02  0.22889242009E-01  0.10199387119E+01  0.10196565079E+01 0.  0.
     999903    2    3    3    0    0  0.87299695716E-01  0.64472677467E-01 -0.66635121906E-01  0.12901224944E+00  0.20638750521E-01 0.  0.
         14    1    1    2    0    0  0.22182959147E-02 -0.68369342123E-02 -0.22889242009E-01  0.23991288126E-01  0.00000000000E+00 0. -1.
     999901    1    3    3    0    0 -0.89517991630E-01 -0.57635743254E-01  0.89524363915E-01  0.89092646243E+00  0.88000000000E+00 0.  1.
        -11    1    4    4    0    0  0.70043664306E-01  0.56764773442E-01 -0.62374086004E-01  0.10963184820E+00  0.51100000000E-03 0.  1.
         11    1    4    4    0    0  0.17256031410E-01  0.77079040243E-02 -0.42610359017E-02  0.19380401245E-01  0.51100000000E-03 0. -1.
</event>
<event>
 8    1  0.1143506E+005  0.1043930E+01  0.7957747E-01            NaN
         13   -1    0    0    0    0  0.00000000000E+00  0.00000000000E+00  0.74505805969E-08  0.10566000000E+00  0.10566000000E+00 0.  1.
     999900   -1    0    0    0    0 -0.00000000000E+00 -0.00000000000E+00 -0.74505805969E-08  0.93827000000E+00  0.93827000000E+00 0.  1.
     999902    2    1    2    0    0  0.64323345598E-02  0.10944444271E-01 -0.20138247621E-01  0.10201244375E+01  0.10198466371E+01 0.  0.
     999903    2    3    3    0    0  0.10166973395E+00 -0.19293595551E-01  0.75116589335E-01  0.12936185115E+00  0.19570613402E-01 0.  0.
         14    1    1    2    0    0 -0.64323345598E-02 -0.10944444271E-01  0.20138247621E-01  0.23805562492E-01  0.00000000000E+00 0.  1.
     999901    1    3    3    0    0 -0.95237399387E-01  0.30238039823E-01 -0.95254836957E-01  0.89076258636E+00  0.88000000000E+00 0.  1.
        -11    1    4    4    0    0  0.66689099571E-01 -0.20916182819E-01  0.44616384710E-01  0.82920477633E-01  0.51100000000E-03 0.  1.
         11    1    4    4    0    0  0.34980634377E-01  0.16225872671E-02  0.30500204626E-01  0.46441373516E-01  0.51100000000E-03 0. -1.
</event>
<event>
 8    1  0.1143506E+005  0.1043930E+01  0.7957747E-01            NaN
         13   -1    0    0    0    0  0.00000000000E+00  0.00000000000E+00  0.74505805969E-08  0.10566000000E+00  0.10566000000E+00 0. -1.
     999900   -1    0    0    0    0 -0.00000000000E+00 -0.00000000000E+00 -0.74505805969E-08  0.93827000000E+00  0.93827000000E+00 0. -1.
     999902    2    1    2    0    0 -0.16620807210E-01 -0.15639033988E-01  0.31117874942E-02  0.10208971140E+01  0.10206372536E+01 0.  0.
     999903    2    3    3    0    0  0.87266584175E-01  0.78788849819E-02  0.91563259605E-01  0.13007202144E+00  0.29280824959E-01 0.  0.
         14    1    1    2    0    0  0.16620807210E-01  0.15639033988E-01 -0.31117874942E-02  0.23032886007E-01  0.00000000000E+00 0. -1.
     999901    1    3    3    0    0 -0.10388739139E+00 -0.23517918970E-01 -0.88451472110E-01  0.89082509255E+00  0.88000000000E+00 0.  1.
        -11    1    4    4    0    0  0.48405826695E-01  0.17115069102E-01  0.61261476129E-01  0.79932967084E-01  0.51100000000E-03 0.  1.
         11    1    4    4    0    0  0.38860757480E-01 -0.92361841200E-02  0.30301783476E-01  0.50139054358E-01  0.51100000000E-03 0. -1.
</event>
<event>
 8    1  0.1143506E+005  0.1043930E+01  0.7957747E-01            NaN
         13   -1    0    0    0    0  0.00000000000E+00  0.00000000000E+00  0.74505805969E-08  0.10566000000E+00  0.10566000000E+00 0.  1.
     999900   -1    0    0    0    0 -0.00000000000E+00 -0.00000000000E+00 -0.74505805969E-08  0.93827000000E+00  0.93827000000E+00 0.  1.
     999902    2    1    2    0    0  0.10759844691E-02  0.17312575772E-01  0.15305172050E-01  0.10207970946E+01  0.10205349465E+01 0.  0.
     999903    2    3    3    0    0 -0.67710025272E-01  0.10744918795E+00  0.35050584923E-01  0.13330286623E+00  0.20276467373E-01 0.  0.
         14    1    1    2    0    0 -0.10759844691E-02 -0.17312575772E-01 -0.15305172050E-01  0.23132905436E-01  0.00000000000E+00 0. -1.
     999901    1    3    3    0    0  0.68786009741E-01 -0.90136612178E-01 -0.19745412873E-01  0.88749422833E+00  0.88000000000E+00 0. -1.
        -11    1    4    4    0    0 -0.37471856224E-01  0.43172501448E-01  0.10370457023E-01  0.58101741712E-01  0.51100000000E-03 0.  1.
         11    1    4    4    0    0 -0.30238169048E-01  0.64276686502E-01  0.24680127900E-01  0.75201124521E-01  0.51100000000E-03 0. -1.
</event>
<event>
 8    1  0.1143506E+005  0.1043930E+01  0.7957747E-01            NaN
         13   -1    0    0    0    0  0.00000000000E+00  0.00000000000E+00  0.74505805969E-08  0.10566000000E+00  0.10566000000E+00 0.  1.
     999900   -1    0    0    0    0 -0.00000000000E+00 -0.00000000000E+00 -0.74505805969E-08  0.93827000000E+00  0.93827000000E+00 0. -1.
     999902    2    1    2    0    0 -0.22028758789E-01 -0.66586166082E-02  0.21099456701E-02  0.10208203644E+01  0.10205587494E+01 0.  0.
     999903    2    3    3    0    0 -0.51667555664E-01 -0.13040425005E-01  0.11980526207E+00  0.13246718388E+00  0.18832551441E-01 0.  0.
         14    1    1    2    0    0  0.22028758789E-01  0.66586166082E-02 -0.21099456701E-02  0.23109635645E-01  0.00000000000E+00 0. -1.
     999901    1    3    3    0    0  0.29638796875E-01  0.63818083964E-02 -0.11769531640E+00  0.88835318048E+00  0.88000000000E+00 0. -1.
        -11    1    4    4    0    0 -0.92770761556E-02 -0.51209840290E-03  0.41644386429E-01  0.42671330291E-01  0.51100000000E-03 0.  1.
         11    1    4    4    0    0 -0.42390479508E-01 -0.12528326602E-01  0.78160875638E-01  0.89795853589E-01  0.51100000000E-03 0. -1.
</event>
<event>
 8    1  0.1143506E+005  0.1043930E+01  0.7957747E-01            NaN
         13   -1    0    0    0    0  0.00000000000E+00  0.00000000000E+00  0.74505805969E-08  0.10566000000E+00  0.10566000000E+00 0.  1.
     999900   -1    0    0    0    0 -0.00000000000E+00 -0.00000000000E+00 -0.74505805969E-08  0.93827000000E+00  0.93827000000E+00 0.  1.
     999902    2    1    2    0    0 -0.14535390386E-01  0.17967637063E-01 -0.35019796194E-02  0.10205552825E+01  0.10202875611E+01 0.  0.
     999903    2    3    3    0    0  0.75247508709E-01  0.22912502854E-01  0.10124261751E+00  0.12979333269E+00  0.20225510030E-01 0.  0.
         14    1    1    2    0    0  0.14535390386E-01 -0.17967637063E-01  0.35019796194E-02  0.23374717465E-01  0.00000000000E+00 0.  1.
     999901    1    3    3    0    0 -0.89782899095E-01 -0.49448657911E-02 -0.10474459713E+00  0.89076194985E+00  0.88000000000E+00 0.  1.
        -11    1    4    4    0    0  0.70663676224E-01  0.22566126052E-01  0.84584557441E-01  0.11250508282E+00  0.51100000000E-03 0. -1.
         11    1    4    4    0    0  0.45838324850E-02  0.34637680260E-03  0.16658060068E-01  0.17288249865E-01  0.51100000000E-03 0.  1.
</event>
<event>
 8    1  0.1143506E+005  0.1043930E+01  0.7957747E-01            NaN
         13   -1    0    0    0    0  0.00000000000E+00  0.00000000000E+00  0.74505805969E-08  0.10566000000E+00  0.10566000000E+00 0.  1.
     999900   -1    0    0    0    0 -0.00000000000E+00 -0.00000000000E+00 -0.74505805969E-08  0.93827000000E+00  0.93827000000E+00 0.  1.
     999902    2    1    2    0    0 -0.20577498080E-01  0.10506422477E-01 -0.17097737312E-03  0.10208248583E+01  0.10205633463E+01 0.  0.
     999903    2    3    3    0    0  0.66415898364E-01  0.17588408332E-01  0.10836894423E+00  0.12987092001E+00  0.20055027461E-01 0.  0.
         14    1    1    2    0    0  0.20577498080E-01 -0.10506422477E-01  0.17097737312E-03  0.23105141717E-01  0.00000000000E+00 0.  1.
     999901    1    3    3    0    0 -0.86993396444E-01 -0.70819858551E-02 -0.10853992160E+00  0.89095393828E+00  0.88000000000E+00 0.  1.
        -11    1    4    4    0    0  0.57982647220E-01  0.21889905900E-01  0.91390687382E-01  0.11042497100E+00  0.51100000000E-03 0. -1.
         11    1    4    4    0    0  0.84332511436E-02 -0.43014975675E-02  0.16978256849E-01  0.19445949008E-01  0.51100000000E-03 0.  1.
</event>
<event>
 8    1  0.1143506E+005  0.1043930E+01  0.7957747E-01            NaN
         13   -1    0    0    0    0  0.00000000000E+00  0.00000000000E+00  0.74505805969E-08  0.10566000000E+00  0.10566000000E+00 0.  1.
     999900   -1    0    0    0    0 -0.00000000000E+00 -0.00000000000E+00 -0.74505805969E-08  0.93827000000E+00  0.93827000000E+00 0. -1.
     999902    2    1    2    0    0  0.11197206395E-01 -0.21536320250E-01  0.41410149229E-02  0.10193060579E+01  0.10190085874E+01 0.  0.
     999903    2    3    3    0    0 -0.73619005381E-01  0.14367431573E-01 -0.10196501582E+00  0.12815996495E+00  0.20048219919E-01 0.  0.
         14    1    1    2    0    0 -0.11197206395E-01  0.21536320250E-01 -0.41410149229E-02  0.24623942120E-01  0.00000000000E+00 0.  1.
     999901    1    3    3    0    0  0.84816211776E-01 -0.35903751822E-01  0.10610603075E+00  0.89114609293E+00  0.88000000000E+00 0.  1.
        -11    1    4    4    0    0 -0.15863445725E-01  0.11029890536E-01 -0.31873365175E-01  0.37275728351E-01  0.51100000000E-03 0.  1.
         11    1    4    4    0    0 -0.57755559656E-01  0.33375410365E-02 -0.70091650649E-01  0.90884236604E-01  0.51100000000E-03 0. -1.
</event>
<event>
 8    1  0.1143506E+005  0.1043930E+01  0.7957747E-01            NaN
         13   -1    0    0    0    0  0.00000000000E+00  0.00000000000E+00  0.74505805969E-08  0.10566000000E+00  0.10566000000E+00 0.  1.
     999900   -1    0    0    0    0 -0.00000000000E+00 -0.00000000000E+00 -0.74505805969E-08  0.93827000000E+00  0.93827000000E+00 0. -1.
     999902    2    1    2    0    0  0.20816264542E-01 -0.20832105035E-01  0.84072962774E-02  0.10133036045E+01  0.10128406680E+01 0.  0.
     999903    2    3    3    0    0  0.10672790094E+00 -0.32276612039E-02  0.65961306270E-01  0.12707384324E+00  0.19889823386E-01 0.  0.
         14    1    1    2    0    0 -0.20816264542E-01  0.20832105035E-01 -0.84072962774E-02  0.30626395484E-01  0.00000000000E+00 0. -1.
     999901    1    3    3    0    0 -0.85911636398E-01 -0.17604443831E-01 -0.57554009992E-01  0.88622976128E+00  0.88000000000E+00 0.  1.
        -11    1    4    4    0    0  0.44820412500E-01 -0.56171389341E-02  0.17613781587E-01  0.48486369727E-01  0.51100000000E-03 0.  1.
         11    1    4    4    0    0  0.61907488439E-01  0.23894777302E-02  0.48347524683E-01  0.78587473510E-01  0.51100000000E-03 0. -1.
</event>
<event>
 8    1  0.1143506E+005  0.1043930E+01  0.7957747E-01            NaN
         13   -1    0    0    0    0  0.00000000000E+00  0.00000000000E+00  0.74505805969E-08  0.10566000000E+00  0.10566000000E+00 0.  1.
     999900   -1    0    0    0    0 -0.00000000000E+00 -0.00000000000E+00 -0.74505805969E-08  0.93827000000E+00  0.93827000000E+00 0. -1.
     999902    2    1    2    0    0  0.19053249198E-01 -0.10922448060E-01 -0.91593615521E-02  0.10201346206E+01  0.10198570606E+01 0.  0.
     999903    2    3    3    0    0 -0.79530818153E-01  0.63006338945E-02 -0.10029706326E+00  0.12978551291E+00  0.20492179964E-01 0.  0.
         14    1    1    2    0    0 -0.19053249198E-01  0.10922448060E-01  0.91593615521E-02  0.23795379398E-01  0.00000000000E+00 0. -1.
     999901    1    3    3    0    0  0.98584067351E-01 -0.17223081955E-01  0.91137701711E-01  0.89034910769E+00  0.88000000000E+00 0.  1.
        -11    1    4    4    0    0 -0.16814447120E-01 -0.40380880125E-02 -0.32711818528E-01  0.37004810216E-01  0.51100000000E-03 0. -1.
         11    1    4    4    0    0 -0.62716371033E-01  0.10338721907E-01 -0.67585244736E-01  0.92780702698E-01  0.51100000000E-03 0.  1.
</event>
<event>
 8    1  0.1143506E+005  0.1043930E+01  0.7957747E-01            NaN
         13   -1    0    0    0    0  0.00000000000E+00  0.00000000000E+00  0.74505805969E-08  0.10566000000E+00  0.10566000000E+00 0. -1.
     999900   -1    0    0    0    0 -0.00000000000E+00 -0.00000000000E+00 -0.74505805969E-08  0.93827000000E+00  0.93827000000E+00 0.  1.
     999902    2    1    2    0    0  0.12048309199E-01  0.15352915784E-01  0.16212876428E-01  0.10185581428E+01  0.10182420926E+01 0.  0.
     999903    2    3    3    0    0 -0.74207519219E-01  0.95912269632E-01  0.43005412570E-01  0.13027456337E+00  0.20397964994E-01 0.  0.
         14    1    1    2    0    0 -0.12048309199E-01 -0.15352915784E-01 -0.16212876428E-01  0.25371857238E-01  0.00000000000E+00 0.  1.
     999901    1    3    3    0    0  0.86255828418E-01 -0.80559353848E-01 -0.26792536142E-01  0.88828357939E+00  0.88000000000E+00 0. -1.
        -11    1    4    4    0    0 -0.18057771204E-01  0.27501059961E-01  0.21136818648E-01  0.39107769348E-01  0.51100000000E-03 0. -1.
         11    1    4    4    0    0 -0.56149748015E-01  0.68411209671E-01  0.21868593922E-01  0.91166794020E-01  0.51100000000E-03 0.  1.
</event>
<event>
 8    1  0.1143506E+005  0.1043930E+01  0.7957747E-01            NaN
         13   -1    0    0    0    0  0.00000000000E+00  0.00000000000E+00  0.74505805969E-08  0.10566000000E+00  0.10566000000E+00 0.  1.
     999900   -1    0    0    0    0 -0.00000000000E+00 -0.00000000000E+00 -0.74505805969E-08  0.93827000000E+00  0.93827000000E+00 0. -1.
     999902    2    1    2    0    0  0.68188669645E-02 -0.42873662822E-02  0.22404671453E-01  0.10201214352E+01  0.10198435639E+01 0.  0.
     999903    2    3    3    0    0  0.10249923423E+00  0.20586702041E-01  0.79190258706E-01  0.13276690914E+00  0.20640973042E-01 0.  0.
         14    1    1    2    0    0 -0.68188669645E-02  0.42873662822E-02 -0.22404671453E-01  0.23808564829E-01  0.00000000000E+00 0. -1.
     999901    1    3    3    0    0 -0.95680367269E-01 -0.24874068323E-01 -0.56785587253E-01  0.88735452604E+00  0.88000000000E+00 0.  1.
        -11    1    4    4    0    0  0.75056990312E-01  0.21443894604E-01  0.66363084048E-01  0.10245834498E+00  0.51100000000E-03 0. -1.
         11    1    4    4    0    0  0.27442243921E-01 -0.85719256229E-03  0.12827174658E-01  0.30308564156E-01  0.51100000000E-03 0.  1.
</event>
<event>
 8    1  0.1143506E+005  0.1043930E+01  0.7957747E-01            NaN
         13   -1    0    0    0    0  0.00000000000E+00  0.00000000000E+00  0.74505805969E-08  0.10566000000E+00  0.10566000000E+00 0.  1.
     999900   -1    0    0    0    0 -0.00000000000E+00 -0.00000000000E+00 -0.74505805969E-08  0.93827000000E+00  0.93827000000E+00 0. -1.
     999902    2    1    2    0    0 -0.25543885322E-01  0.22597727285E-02  0.67390294504E-02  0.10174156422E+01  0.10170700949E+01 0.  0.
     999903    2    3    3    0    0 -0.11006809413E+00  0.66054645604E-01  0.17447125593E-01  0.13100219975E+00  0.19467218539E-01 0.  0.
         14    1    1    2    0    0  0.25543885322E-01 -0.22597727285E-02 -0.67390294504E-02  0.26514357772E-01  0.00000000000E+00 0. -1.
     999901    1    3    3    0    0  0.84524208805E-01 -0.63794872875E-01 -0.10708096142E-01  0.88641344248E+00  0.88000000000E+00 0. -1.
        -11    1    4    4    0    0 -0.55173850195E-01  0.22690048535E-01  0.11812034477E-01  0.60817574165E-01  0.51100000000E-03 0. -1.
         11    1    4    4    0    0 -0.54894243933E-01  0.43364597068E-01  0.56350911160E-02  0.70184625586E-01  0.51100000000E-03 0.  1.
</event>
<event>
 8    1  0.1143506E+005  0.1043930E+01  0.7957747E-01            NaN
         13   -1    0    0    0    0  0.00000000000E+00  0.00000000000E+00  0.74505805969E-08  0.10566000000E+00  0.10566000000E+00 0. -1.
     999900   -1    0    0    0    0 -0.00000000000E+00 -0.00000000000E+00 -0.74505805969E-08  0.93827000000E+00  0.93827000000E+00 0. -1.
     999902    2    1    2    0    0  0.10544378884E-01  0.15058532758E-01 -0.13704796050E-01  0.10210004390E+01  0.10207429312E+01 0.  0.
     999903    2    3    3    0    0 -0.52402263282E-01  0.10472464105E+00 -0.57542370415E-01  0.13312430815E+00  0.26414189095E-01 0.  0.
         14    1    1    2    0    0 -0.10544378884E-01 -0.15058532758E-01  0.13704796050E-01  0.22929561043E-01  0.00000000000E+00 0. -1.
     999901    1    3    3    0    0  0.62946642165E-01 -0.89666108297E-01  0.43837574365E-01  0.88787613081E+00  0.88000000000E+00 0.  1.
        -11    1    4    4    0    0 -0.31521873372E-01  0.86714226562E-01 -0.47475766329E-01  0.10376509576E+00  0.51100000000E-03 0.  1.
         11    1    4    4    0    0 -0.20880389910E-01  0.18010414492E-01 -0.10066604086E-01  0.29359212384E-01  0.51100000000E-03 0. -1.
</event>
<event>
 8    1  0.1143506E+005  0.1043930E+01  0.7957747E-01            NaN
         13   -1    0    0    0    0  0.00000000000E+00  0.00000000000E+00  0.74505805969E-08  0.10566000000E+00  0.10566000000E+00 0.  1.
     999900   -1    0    0    0    0 -0.00000000000E+00 -0.00000000000E+00 -0.74505805969E-08  0.93827000000E+00  0.93827000000E+00 0.  1.
     999902    2    1    2    0    0  0.10839506581E-01 -0.16472241008E-02 -0.20005918025E-01  0.10211167362E+01  0.10208618633E+01 0.  0.
     999903    2    3    3    0    0  0.70296915329E-01 -0.93778930312E-01 -0.59944623947E-01  0.13341265543E+00  0.21666439803E-01 0.  0.
         14    1    1    2    0    0 -0.10839506581E-01  0.16472241008E-02  0.20005918025E-01  0.22813263822E-01  0.00000000000E+00 0.  1.
     999901    1    3    3    0    0 -0.59457408748E-01  0.92131706211E-01  0.39938705921E-01  0.88770408075E+00  0.88000000000E+00 0. -1.
        -11    1    4    4    0    0  0.29795595413E-01 -0.54805955144E-01 -0.38159161659E-01  0.73129015888E-01  0.51100000000E-03 0.  1.
         11    1    4    4    0    0  0.40501319917E-01 -0.38972975168E-01 -0.21785462287E-01  0.60283639543E-01  0.51100000000E-03 0. -1.
</event>
<event>
 8    1  0.1143506E+005  0.1043930E+01  0.7957747E-01            NaN
         13   -1    0    0    0    0  0.00000000000E+00  0.00000000000E+00  0.74505805969E-08  0.10566000000E+00  0.10566000000E+00 0.  1.
     999900   -1    0    0    0    0 -0.00000000000E+00 -0.00000000000E+00 -0.74505805969E-08  0.93827000000E+00  0.93827000000E+00 0.  1.
     999902    2    1    2    0    0 -0.21963634946E-01  0.55091218385E-02 -0.27168360398E-02  0.10211235781E+01  0.10208688597E+01 0.  0.
     999903    2    3    3    0    0 -0.48030114084E-01  0.11649178698E+00  0.37179097228E-01  0.13287344506E+00  0.19895698979E-01 0.  0.
         14    1    1    2    0    0  0.21963634946E-01 -0.55091218385E-02  0.27168360398E-02  0.22806421937E-01  0.00000000000E+00 0.  1.
     999901    1    3    3    0    0  0.26066479138E-01 -0.11098266514E+00 -0.39895933268E-01  0.88825013301E+00  0.88000000000E+00 0. -1.
        -11    1    4    4    0    0 -0.14013257021E-01  0.15391071344E-01  0.44176111232E-02  0.21284568553E-01  0.51100000000E-03 0. -1.
         11    1    4    4    0    0 -0.34016857063E-01  0.10110071564E+00  0.32761486105E-01  0.11158887650E+00  0.51100000000E-03 0.  1.
</event>
<event>
 8    1  0.1143506E+005  0.1043930E+01  0.7957747E-01            NaN
         13   -1    0    0    0    0  0.00000000000E+00  0.00000000000E+00  0.74505805969E-08  0.10566000000E+00  0.10566000000E+00 0.  1.
     999900   -1    0    0    0    0 -0.00000000000E+00 -0.00000000000E+00 -0.74505805969E-08  0.93827000000E+00  0.93827000000E+00 0. -1.
     999902    2    1    2    0    0 -0.17632394887E-01  0.98421494265E-03 -0.19255950538E-01  0.10178022052E+01  0.10174667893E+01 0.  0.
     999903    2    3    3    0    0 -0.97731445448E-01 -0.16908238679E-01  0.79362174087E-01  0.12849824577E+00  0.19393827016E-01 0.  0.
         14    1    1    2    0    0  0.17632394887E-01 -0.98421494265E-03  0.19255950538E-01  0.26127794772E-01  0.00000000000E+00 0.  1.
     999901    1    3    3    0    0  0.80099050561E-01  0.17892453622E-01 -0.98618124625E-01  0.88930395945E+00  0.88000000000E+00 0. -1.
        -11    1    4    4    0    0 -0.56402499732E-01 -0.76140497990E-02  0.57177828433E-01  0.80677016031E-01  0.51100000000E-03 0.  1.
         11    1    4    4    0    0 -0.41328945716E-01 -0.92941888800E-02  0.22184345654E-01  0.47821229742E-01  0.51100000000E-03 0. -1.
</event>
<event>
 8    1  0.1143506E+005  0.1043930E+01  0.7957747E-01            NaN
         13   -1    0    0    0    0  0.00000000000E+00  0.00000000000E+00  0.74505805969E-08  0.10566000000E+00  0.10566000000E+00 0. -1.
     999900   -1    0    0    0    0 -0.00000000000E+00 -0.00000000000E+00 -0.74505805969E-08  0.93827000000E+00  0.93827000000E+00 0. -1.
     999902    2    1    2    0    0 -0.29111372485E-04 -0.22113753607E-01  0.69505549433E-02  0.10207496385E+01  0.10204864013E+01 0.  0.
     999903    2    3    3    0    0 -0.99553526979E-01 -0.72793816192E-01 -0.43661382987E-01  0.13224800860E+00  0.19322913966E-01 0.  0.
         14    1    1    2    0    0  0.29111372485E-04  0.22113753607E-01 -0.69505549433E-02  0.23180361517E-01  0.00000000000E+00 0. -1.
     999901    1    3    3    0    0  0.99524415607E-01  0.50680062586E-01  0.50611937930E-01  0.88850162988E+00  0.88000000000E+00 0.  1.
        -11    1    4    4    0    0 -0.13637173506E-01 -0.12392871111E-01  0.19309637064E-03  0.18435133925E-01  0.51100000000E-03 0.  1.
         11    1    4    4    0    0 -0.85916353473E-01 -0.60400945081E-01 -0.43854479357E-01  0.11381287467E+00  0.51100000000E-03 0. -1.
</event>
<event>
 8    1  0.1143506E+005  0.1043930E+01  0.7957747E-01            NaN
         13   -1    0    0    0    0  0.00000000000E+00  0.00000000000E+00  0.74505805969E-08  0.10566000000E+00  0.10566000000E+00 0. -1.
     999900   -1    0    0    0    0 -0.00000000000E+00 -0.00000000000E+00 -0.74505805969E-08  0.93827000000E+00  0.93827000000E+00 0.  1.
     999902    2    1    2    0    0  0.96730847022E-02 -0.21803420220E-01 -0.68358555705E-02  0.10191169667E+01  0.10188148532E+01 0.  0.
     999903    2    3    3    0    0  0.36369665790E-01 -0.12419649990E+00  0.19252397633E-01  0.13239398448E+00  0.20248188423E-01 0.  0.
         14    1    1    2    0    0 -0.96730847022E-02  0.21803420220E-01  0.68358555705E-02  0.24813033316E-01  0.00000000000E+00 0. -1.
     999901    1    3    3    0    0 -0.26696581087E-01  0.10239307968E+00 -0.26088253203E-01  0.88672298220E+00  0.88000000000E+00 0.  1.
        -11    1    4    4    0    0  0.34620263114E-01 -0.89565118866E-01  0.17965544566E-01  0.97690813530E-01  0.51100000000E-03 0.  1.
         11    1    4    4    0    0  0.17494026751E-02 -0.34631381039E-01  0.12868530667E-02  0.34703170953E-01  0.51100000000E-03 0. -1.
</event>
<event>
 8    1  0.1143506E+005  0.1043930E+01  0.7957747E-01            NaN
         13   -1    0    0    0    0  0.00000000000E+00  0.00000000000E+00  0.74505805969E-08  0.10566000000E+00  0.10566000000E+00 0. -1.
     999900   -1    0    0    0    0 -0.00000000000E+00 -0.00000000000E+00 -0.74505805969E-08  0.93827000000E+00  0.93827000000E+00 0. -1.
     999902    2    1    2    0    0  0.13338640577E-01  0.18837111270E-01 -0.41123734807E-02  0.10204850067E+01  0.10202156543E+01 0.  0.
     999903    2    3    3    0    0 -0.10248810123E+00 -0.73396637368E-01  0.97978207849E-02  0.12800733642E+00  0.19975074850E-01 0.  0.
         14    1    1    2    0    0 -0.13338640577E-01 -0.18837111270E-01  0.41123734807E-02  0.23444993262E-01  0.00000000000E+00 0.  1.
     999901    1    3    3    0    0  0.11582674181E+00  0.92233748638E-01 -0.13910194266E-01  0.89247767031E+00  0.88000000000E+00 0.  1.
        -11    1    4    4    0    0 -0.67671398304E-01 -0.52850352245E-01  0.15256673972E-01  0.87210120414E-01  0.51100000000E-03 0.  1.
         11    1    4    4    0    0 -0.34816702926E-01 -0.20546285123E-01 -0.54588531873E-02  0.40797216010E-01  0.51100000000E-03 0. -1.
</event>
<event>
 8    1  0.1143506E+005  0.1043930E+01  0.7957747E-01            NaN
         13   -1    0    0    0    0  0.00000000000E+00  0.00000000000E+00  0.74505805969E-08  0.10566000000E+00  0.10566000000E+00 0. -1.
     999900   -1    0    0    0    0 -0.00000000000E+00 -0.00000000000E+00 -0.74505805969E-08  0.93827000000E+00  0.93827000000E+00 0. -1.
     999902    2    1    2    0    0  0.18968799261E-01  0.11633898501E-01 -0.62631438839E-02  0.10208131250E+01  0.10205513442E+01 0.  0.
     999903    2    3    3    0    0 -0.12235283318E-01 -0.12709534275E+00 -0.52781590952E-02  0.12939825672E+00  0.20325392318E-01 0.  0.
         14    1    1    2    0    0 -0.18968799261E-01 -0.11633898501E-01  0.62631438839E-02  0.23116875027E-01  0.00000000000E+00 0. -1.
     999901    1    3    3    0    0  0.31204082578E-01  0.13872924125E+00 -0.98498478868E-03  0.89141486825E+00  0.88000000000E+00 0.  1.
        -11    1    4    4    0    0 -0.23784747833E-02 -0.90862023886E-01 -0.10437615185E-01  0.91491909252E-01  0.51100000000E-03 0.  1.
         11    1    4    4    0    0 -0.98568085343E-02 -0.36233318861E-01  0.51594560895E-02  0.37906347467E-01  0.51100000000E-03 0. -1.
</event>
<event>
 8    1  0.1143506E+005  0.1043930E+01  0.7957747E-01            NaN
         13   -1    0    0    0    0  0.00000000000E+00  0.00000000000E+00  0.74505805969E-08  0.10566000000E+00  0.10566000000E+00 0.  1.
     999900   -1    0    0    0    0 -0.00000000000E+00 -0.00000000000E+00 -0.74505805969E-08  0.93827000000E+00  0.93827000000E+00 0. -1.
     999902    2    1    2    0    0 -0.21947052795E-01 -0.50670690750E-02  0.14341288557E-02  0.10213599969E+01  0.10211105906E+01 0.  0.
     999903    2    3    3    0    0 -0.20417019369E-01  0.78802971220E-01 -0.10160331242E+00  0.13138626751E+00  0.17673574676E-01 0.  0.
         14    1    1    2    0    0  0.21947052795E-01  0.50670690750E-02 -0.14341288557E-02  0.22570003123E-01  0.00000000000E+00 0. -1.
     999901    1    3    3    0    0 -0.15300334252E-02 -0.83870040295E-01  0.10303744128E+00  0.88997372937E+00  0.88000000000E+00 0.  1.
        -11    1    4    4    0    0 -0.16247317752E-01  0.40730179580E-01 -0.43317093373E-01  0.61640526945E-01  0.51100000000E-03 0. -1.
         11    1    4    4    0    0 -0.41697016174E-02  0.38072791640E-01 -0.58286219048E-01  0.69745740564E-01  0.51100000000E-03 0.  1.
</event>
<event>
 8    1  0.1143506E+005  0.1043930E+01  0.7957747E-01            NaN
         13   -1    0    0    0    0  0.00000000000E+00  0.00000000000E+00  0.74505805969E-08  0.10566000000E+00  0.10566000000E+00 0.  1.
     999900   -1    0    0    0    0 -0.00000000000E+00 -0.00000000000E+00 -0.74505805969E-08  0.93827000000E+00  0.93827000000E+00 0. -1.
     999902    2    1    2    0    0 -0.18884144681E-01 -0.11365909173E-01 -0.63155588134E-02  0.10210022636E+01  0.10207447973E+01 0.  0.
     999903    2    3    3    0    0  0.28101605091E-01  0.11380064004E+00 -0.51853201058E-01  0.12974023562E+00  0.20087020592E-01 0.  0.
         14    1    1    2    0    0  0.18884144681E-01  0.11365909173E-01  0.63155588134E-02  0.22927736364E-01  0.00000000000E+00 0. -1.
     999901    1    3    3    0    0 -0.46985749773E-01 -0.12516654921E+00  0.45537642245E-01  0.89126202802E+00  0.88000000000E+00 0.  1.
        -11    1    4    4    0    0  0.18165160208E-01  0.38360989242E-01 -0.23631431974E-01  0.48582344933E-01  0.51100000000E-03 0. -1.
         11    1    4    4    0    0  0.99364448837E-02  0.75439650797E-01 -0.28221769084E-01  0.81157890686E-01  0.51100000000E-03 0.  1.
</event>
<event>
 8    1  0.1143506E+005  0.1043930E+01  0.7957747E-01            NaN
         13   -1    0    0    0    0  0.00000000000E+00  0.00000000000E+00  0.74505805969E-08  0.10566000000E+00  0.10566000000E+00 0. -1.
     999900   -1    0    0    0    0 -0.00000000000E+00 -0.00000000000E+00 -0.74505805969E-08  0.93827000000E+00  0.93827000000E+00 0. -1.
     999902    2    1    2    0    0  0.99401653003E-02 -0.12199378376E-01  0.16696957116E-01  0.10209861534E+01  0.10207283210E+01 0.  0.
     999903    2    3    3    0    0 -0.18308557697E-01 -0.12106879347E+00  0.49103886179E-01  0.13323576680E+00  0.18647302186E-01 0.  0.
         14    1    1    2    0    0 -0.99401653003E-02  0.12199378376E-01 -0.16696957116E-01  0.22943846580E-01  0.00000000000E+00 0.  1.
     999901    1    3    3    0    0  0.28248722998E-01  0.10886941510E+00 -0.32406929063E-01  0.88775038662E+00  0.88000000000E+00 0.  1.
        -11    1    4    4    0    0 -0.13096590000E-01 -0.80194627216E-01  0.22983476625E-01  0.84446434044E-01  0.51100000000E-03 0. -1.
         11    1    4    4    0    0 -0.52119676976E-02 -0.40874166256E-01  0.26120409554E-01  0.48789332755E-01  0.51100000000E-03 0.  1.
</event>
<event>
 8    1  0.1143506E+005  0.1043930E+01  0.7957747E-01            NaN
         13   -1    0    0    0    0  0.00000000000E+00  0.00000000000E+00  0.74505805969E-08  0.10566000000E+00  0.10566000000E+00 0.  1.
     999900   -1    0    0    0    0 -0.00000000000E+00 -0.00000000000E+00 -0.74505805969E-08  0.93827000000E+00  0.93827000000E+00 0. -1.
     999902    2    1    2    0    0  0.19806755691E-01  0.75314035324E-02 -0.10761591653E-01  0.10201636064E+01  0.10198867302E+01 0.  0.
     999903    2    3    3    0    0 -0.77447040467E-01 -0.10005323823E+00 -0.64408245270E-02  0.12828277072E+00  0.20156648668E-01 0.  0.
         14    1    1    2    0    0 -0.19806755691E-01 -0.75314035324E-02  0.10761591653E-01  0.23766393607E-01  0.00000000000E+00 0.  1.
     999901    1    3    3    0    0  0.97253796158E-01  0.10758464176E+00 -0.43207671262E-02  0.89188083567E+00  0.88000000000E+00 0.  1.
        -11    1    4    4    0    0 -0.47234924618E-01 -0.63105376159E-01  0.56995540152E-02  0.79032731453E-01  0.51100000000E-03 0.  1.
         11    1    4    4    0    0 -0.30212115849E-01 -0.36947862072E-01 -0.12140378542E-01  0.49250039268E-01  0.51100000000E-03 0. -1.
</event>
<event>
 8    1  0.1143506E+005  0.1043930E+01  0.7957747E-01            NaN
         13   -1    0    0    0    0  0.00000000000E+00  0.00000000000E+00  0.74505805969E-08  0.10566000000E+00  0.10566000000E+00 0.  1.
     999900   -1    0    0    0    0 -0.00000000000E+00 -0.00000000000E+00 -0.74505805969E-08  0.93827000000E+00  0.93827000000E+00 0. -1.
     999902    2    1    2    0    0 -0.14027339574E-01 -0.18535609287E-01  0.90654517661E-02  0.10189796997E+01  0.10186741928E+01 0.  0.
     999903    2    3    3    0    0 -0.88697351663E-01  0.58049613864E-01 -0.69799373092E-01  0.12900185299E+00  0.23076995676E-01 0.  0.
         14    1    1    2    0    0  0.14027339574E-01  0.18535609287E-01 -0.90654517661E-02  0.24950300256E-01  0.00000000000E+00 0. -1.
     999901    1    3    3    0    0  0.74670012089E-01 -0.76585223151E-01  0.78864824858E-01  0.88997784675E+00  0.88000000000E+00 0.  1.
        -11    1    4    4    0    0 -0.78732556676E-01  0.44902487069E-01 -0.51061705213E-01  0.10403176287E+00  0.51100000000E-03 0. -1.
         11    1    4    4    0    0 -0.99647949864E-02  0.13147126796E-01 -0.18737667879E-01  0.24970090121E-01  0.51100000000E-03 0.  1.
</event>
<event>
 8    1  0.1143506E+005  0.1043930E+01  0.7957747E-01            NaN
         13   -1    0    0    0    0  0.00000000000E+00  0.00000000000E+00  0.74505805969E-08  0.10566000000E+00  0.10566000000E+00 0.  1.
     999900   -1    0    0    0    0 -0.00000000000E+00 -0.00000000000E+00 -0.74505805969E-08  0.93827000000E+00  0.93827000000E+00 0. -1.
     999902    2    1    2    0    0 -0.14139889928E-02  0.49350606041E-02 -0.23443083272E-01  0.10199314096E+01  0.10196490317E+01 0.  0.
     999903    2    3    3    0    0 -0.30502231588E-01 -0.60281329495E-01 -0.11234996344E+00  0.13257368199E+00  0.19724148998E-01 0.  0.
         14    1    1    2    0    0  0.14139889928E-02 -0.49350606041E-02  0.23443083272E-01  0.23998590403E-01  0.00000000000E+00 0. -1.
     999901    1    3    3    0    0  0.29088242595E-01  0.65216390099E-01  0.88906880173E-01  0.88735772760E+00  0.88000000000E+00 0.  1.
        -11    1    4    4    0    0 -0.13552324405E-01 -0.27335943168E-01 -0.69630548025E-01  0.76023638593E-01  0.51100000000E-03 0. -1.
         11    1    4    4    0    0 -0.16949907184E-01 -0.32945386328E-01 -0.42719415419E-01  0.56550043400E-01  0.51100000000E-03 0.  1.
</event>
<event>
 8    1  0.1143506E+005  0.1043930E+01  0.7957747E-01            NaN
         13   -1    0    0    0    0  0.00000000000E+00  0.00000000000E+00  0.74505805969E-08  0.10566000000E+00  0.10566000000E+00 0. -1.
     999900   -1    0    0    0    0 -0.00000000000E+00 -0.00000000000E+00 -0.74505805969E-08  0.93827000000E+00  0.93827000000E+00 0.  1.
     999902    2    1    2    0    0  0.28511812178E-02  0.18510002351E-01 -0.13737801070E-01  0.10207033644E+01  0.10204390631E+01 0.  0.
     999903    2    3    3    0    0  0.12384141525E+00 -0.28352237577E-02 -0.40315378360E-01  0.13177107060E+00  0.19838112095E-01 0.  0.
         14    1    1    2    0    0 -0.28511812178E-02 -0.18510002351E-01  0.13737801070E-01  0.23226635564E-01  0.00000000000E+00 0. -1.
     999901    1    3    3    0    0 -0.12099023403E+00  0.21345226109E-01  0.26577577290E-01  0.88893229383E+00  0.88000000000E+00 0.  1.
        -11    1    4    4    0    0  0.60815028318E-01 -0.14972226329E-02 -0.30210132083E-01  0.67923652334E-01  0.51100000000E-03 0.  1.
         11    1    4    4    0    0  0.63026386927E-01 -0.13380011248E-02 -0.10105246277E-01  0.63847418268E-01  0.51100000000E-03 0. -1.
</event>
<event>
 8    1  0.1143506E+005  0.1043930E+01  0.7957747E-01            NaN
         13   -1    0    0    0    0  0.00000000000E+00  0.00000000000E+00  0.74505805969E-08  0.10566000000E+00  0.10566000000E+00 0.  1.
     999900   -1    0    0    0    0 -0.00000000000E+00 -0.00000000000E+00 -0.74505805969E-08  0.93827000000E+00  0.93827000000E+00 0.  1.
     999902    2    1    2    0    0 -0.14471704991E-01  0.76862918806E-02  0.17379069639E-01  0.10200439918E+01  0.10197642883E+01 0.  0.
     999903    2    3    3    0    0  0.75286235649E-01  0.56400064188E-02  0.10556349693E+00  0.13109114238E+00  0.18477250268E-01 0.  0.
         14    1    1    2    0    0  0.14471704991E-01 -0.76862918806E-02 -0.17379069639E-01  0.23886008242E-01  0.00000000000E+00 0. -1.
     999901    1    3    3    0    0 -0.89757940640E-01  0.20462854618E-02 -0.88184427289E-01  0.88895284937E+00  0.88000000000E+00 0.  1.
        -11    1    4    4    0    0  0.56533205394E-01  0.12221265393E-01  0.79071234709E-01  0.97968790537E-01  0.51100000000E-03 0. -1.
         11    1    4    4    0    0  0.18753030255E-01 -0.65812589743E-02  0.26492262219E-01  0.33122351847E-01  0.51100000000E-03 0.  1.
</event>
<event>
 8    1  0.1143506E+005  0.1043930E+01  0.7957747E-01            NaN
         13   -1    0    0    0    0  0.00000000000E+00  0.00000000000E+00  0.74505805969E-08  0.10566000000E+00  0.10566000000E+00 0. -1.
     999900   -1    0    0    0    0 -0.00000000000E+00 -0.00000000000E+00 -0.74505805969E-08  0.93827000000E+00  0.93827000000E+00 0. -1.
     999902    2    1    2    0    0  0.11147728573E-01  0.19310832718E-01 -0.80785318448E-02  0.10202141237E+01  0.10199384371E+01 0.  0.
     999903    2    3    3    0    0 -0.72189372296E-01  0.90827720719E-01 -0.59521134148E-01  0.13189769415E+00  0.19830683002E-01 0.  0.
         14    1    1    2    0    0 -0.11147728573E-01 -0.19310832718E-01  0.80785318448E-02  0.23715876315E-01  0.00000000000E+00 0. -1.
     999901    1    3    3    0    0  0.83337100868E-01 -0.71516888001E-01  0.51442602304E-01  0.88831642954E+00  0.88000000000E+00 0. -1.
        -11    1    4    4    0    0 -0.61059780405E-01  0.67463395499E-01 -0.39612078675E-01  0.99242049622E-01  0.51100000000E-03 0.  1.
         11    1    4    4    0    0 -0.11129591890E-01  0.23364325221E-01 -0.19909055474E-01  0.32655644528E-01  0.51100000000E-03 0. -1.
</event>
<event>
 8    1  0.1143506E+005  0.1043930E+01  0.7957747E-01            NaN
         13   -1    0    0    0    0  0.00000000000E+00  0.00000000000E+00  0.74505805969E-08  0.10566000000E+00  0.10566000000E+00 0.  1.
     999900   -1    0    0    0    0 -0.00000000000E+00 -0.00000000000E+00 -0.74505805969E-08  0.93827000000E+00  0.93827000000E+00 0. -1.
     999902    2    1    2    0    0  0.75412312452E-02 -0.19941704185E-01 -0.10490516643E-01  0.10201688411E+01  0.10198920882E+01 0.  0.
     999903    2    3    3    0    0  0.70337643859E-01 -0.65426261088E-01 -0.90045075558E-01  0.13318453331E+00  0.20050548573E-01 0.  0.
         14    1    1    2    0    0 -0.75412312452E-02  0.19941704185E-01  0.10490516643E-01  0.23761158935E-01  0.00000000000E+00 0.  1.
     999901    1    3    3    0    0 -0.62796412614E-01  0.45484556903E-01  0.79554558915E-01  0.88698430775E+00  0.88000000000E+00 0.  1.
        -11    1    4    4    0    0  0.33127632570E-01 -0.43089841155E-01 -0.55812124975E-01  0.77906539300E-01  0.51100000000E-03 0. -1.
         11    1    4    4    0    0  0.37210011289E-01 -0.22336419933E-01 -0.34232950583E-01  0.55277994014E-01  0.51100000000E-03 0.  1.
</event>
<event>
 8    1  0.1143506E+005  0.1043930E+01  0.7957747E-01            NaN
         13   -1    0    0    0    0  0.00000000000E+00  0.00000000000E+00  0.74505805969E-08  0.10566000000E+00  0.10566000000E+00 0. -1.
     999900   -1    0    0    0    0 -0.00000000000E+00 -0.00000000000E+00 -0.74505805969E-08  0.93827000000E+00  0.93827000000E+00 0.  1.
     999902    2    1    2    0    0  0.22167850676E-01 -0.17820596764E-01 -0.27291214432E-02  0.10153566667E+01  0.10149545434E+01 0.  0.
     999903    2    3    3    0    0  0.48811585787E-01  0.11296744369E+00 -0.13055022298E-01  0.12523194263E+00  0.19193530366E-01 0.  0.
         14    1    1    2    0    0 -0.22167850676E-01  0.17820596764E-01  0.27291214432E-02  0.28573333311E-01  0.00000000000E+00 0.  1.
     999901    1    3    3    0    0 -0.26643735111E-01 -0.13078804045E+00  0.10325900854E-01  0.89012472406E+00  0.88000000000E+00 0.  1.
        -11    1    4    4    0    0  0.39503061017E-01  0.77489848295E-01 -0.15973365505E-01  0.88434031600E-01  0.51100000000E-03 0. -1.
         11    1    4    4    0    0  0.93085247695E-02  0.35477595395E-01  0.29183432074E-02  0.36797911034E-01  0.51100000000E-03 0.  1.
</event>
<event>
 8    1  0.1143506E+005  0.1043930E+01  0.7957747E-01            NaN
         13   -1    0    0    0    0  0.00000000000E+00  0.00000000000E+00  0.74505805969E-08  0.10566000000E+00  0.10566000000E+00 0. -1.
     999900   -1    0    0    0    0 -0.00000000000E+00 -0.00000000000E+00 -0.74505805969E-08  0.93827000000E+00  0.93827000000E+00 0.  1.
     999902    2    1    2    0    0  0.18290992933E-01  0.54392202350E-02 -0.14022505899E-01  0.10202492861E+01  0.10199744259E+01 0.  0.
     999903    2    3    3    0    0 -0.31813238637E-01  0.10475868830E+00 -0.69721856406E-01  0.13149892272E+00  0.21079954661E-01 0.  0.
         14    1    1    2    0    0 -0.18290992933E-01 -0.54392202350E-02  0.14022505899E-01  0.23680713902E-01  0.00000000000E+00 0. -1.
     999901    1    3    3    0    0  0.50104231570E-01 -0.99319468066E-01  0.55699350508E-01  0.88875036338E+00  0.88000000000E+00 0. -1.
        -11    1    4    4    0    0 -0.24768873228E-01  0.65355527471E-01 -0.33476788817E-01  0.77497087446E-01  0.51100000000E-03 0. -1.
         11    1    4    4    0    0 -0.70443654090E-02  0.39403160829E-01 -0.36245067590E-01  0.54001835274E-01  0.51100000000E-03 0.  1.
</event>
<event>
 8    1  0.1143506E+005  0.1043930E+01  0.7957747E-01            NaN
         13   -1    0    0    0    0  0.00000000000E+00  0.00000000000E+00  0.74505805969E-08  0.10566000000E+00  0.10566000000E+00 0.  1.
     999900   -1    0    0    0    0 -0.00000000000E+00 -0.00000000000E+00 -0.74505805969E-08  0.93827000000E+00  0.93827000000E+00 0. -1.
     999902    2    1    2    0    0  0.18059364810E-01 -0.76361972596E-02  0.11077499445E-01  0.10214097167E+01  0.10211614203E+01 0.  0.
     999903    2    3    3    0    0  0.36268333887E-01  0.81736524491E-01 -0.92968471703E-01  0.13059850547E+00  0.20410326320E-01 0.  0.
         14    1    1    2    0    0 -0.18059364810E-01  0.76361972596E-02 -0.11077499445E-01  0.22520283299E-01  0.00000000000E+00 0. -1.
     999901    1    3    3    0    0 -0.18208969077E-01 -0.89372721751E-01  0.10404597115E+00  0.89081121123E+00  0.88000000000E+00 0.  1.
        -11    1    4    4    0    0  0.27482276901E-01  0.57395342508E-01 -0.52202049772E-01  0.82309270479E-01  0.51100000000E-03 0. -1.
         11    1    4    4    0    0  0.87860569859E-02  0.24341181983E-01 -0.40766421931E-01  0.48289234988E-01  0.51100000000E-03 0.  1.
</event>
<event>
 8    1  0.1143506E+005  0.1043930E+01  0.7957747E-01            NaN
         13   -1    0    0    0    0  0.00000000000E+00  0.00000000000E+00  0.74505805969E-08  0.10566000000E+00  0.10566000000E+00 0. -1.
     999900   -1    0    0    0    0 -0.00000000000E+00 -0.00000000000E+00 -0.74505805969E-08  0.93827000000E+00  0.93827000000E+00 0. -1.
     999902    2    1    2    0    0 -0.88663846808E-02  0.36916676043E-02  0.23074418208E-01  0.10189366016E+01  0.10186300252E+01 0.  0.
     999903    2    3    3    0    0  0.45222011473E-01  0.11552987056E+00 -0.27909397244E-01  0.12874971805E+00  0.20133905024E-01 0.  0.
         14    1    1    2    0    0  0.88663846808E-02 -0.36916676043E-02 -0.23074418208E-01  0.24993398381E-01  0.00000000000E+00 0.  1.
     999901    1    3    3    0    0 -0.54088396154E-01 -0.11183820295E+00  0.50983815452E-01  0.89018688357E+00  0.88000000000E+00 0. -1.
        -11    1    4    4    0    0  0.37660932071E-01  0.96520075449E-01 -0.30781727138E-01  0.10808444206E+00  0.51100000000E-03 0.  1.
         11    1    4    4    0    0  0.75610794018E-02  0.19009795106E-01  0.28723298940E-02  0.20665275990E-01  0.51100000000E-03 0. -1.
</event>
<event>
 8    1  0.1143506E+005  0.1043930E+01  0.7957747E-01            NaN
         13   -1    0    0    0    0  0.00000000000E+00  0.00000000000E+00  0.74505805969E-08  0.10566000000E+00  0.10566000000E+00 0. -1.
     999900   -1    0    0    0    0 -0.00000000000E+00 -0.00000000000E+00 -0.74505805969E-08  0.93827000000E+00  0.93827000000E+00 0. -1.
     999902    2    1    2    0    0 -0.17753173502E-01  0.59024380512E-02 -0.15641329011E-01  0.10195442436E+01  0.10192525690E+01 0.  0.
     999903    2    3    3    0    0  0.90956284320E-03  0.18618686337E-01  0.12514632606E+00  0.12806728674E+00  0.19802631733E-01 0.  0.
         14    1    1    2    0    0  0.17753173502E-01 -0.59024380512E-02  0.15641329011E-01  0.24385756449E-01  0.00000000000E+00 0. -1.
     999901    1    3    3    0    0 -0.18662736345E-01 -0.12716248286E-01 -0.14078765507E+00  0.89147695681E+00  0.88000000000E+00 0. -1.
        -11    1    4    4    0    0  0.20714482361E-02 -0.39683320678E-02  0.17620193034E-01  0.18187107542E-01  0.51100000000E-03 0.  1.
         11    1    4    4    0    0 -0.11618853929E-02  0.22587018405E-01  0.10752613302E+00  0.10988017920E+00  0.51100000000E-03 0. -1.
</event>
<event>
 8    1  0.1143506E+005  0.1043930E+01  0.7957747E-01            NaN
         13   -1    0    0    0    0  0.00000000000E+00  0.00000000000E+00  0.74505805969E-08  0.10566000000E+00  0.10566000000E+00 0. -1.
     999900   -1    0    0    0    0 -0.00000000000E+00 -0.00000000000E+00 -0.74505805969E-08  0.93827000000E+00  0.93827000000E+00 0. -1.
     999902    2    1    2    0    0  0.13453821951E-01  0.23171800482E-01 -0.24802646102E-02  0.10170210912E+01  0.10166650434E+01 0.  0.
     999903    2    3    3    0    0 -0.12014388038E-01 -0.11090700357E+00  0.52305383380E-01  0.12481751425E+00  0.19971223579E-01 0.  0.
         14    1    1    2    0    0 -0.13453821951E-01 -0.23171800482E-01  0.24802646102E-02  0.26908908845E-01  0.00000000000E+00 0. -1.
     999901    1    3    3    0    0  0.25468209989E-01  0.13407880406E+00 -0.54785647991E-01  0.89220357691E+00  0.88000000000E+00 0. -1.
        -11    1    4    4    0    0 -0.69896543951E-02 -0.60802725041E-01  0.39540799001E-01  0.72866745142E-01  0.51100000000E-03 0. -1.
         11    1    4    4    0    0 -0.50247336427E-02 -0.50104278533E-01  0.12764584380E-01  0.51950769108E-01  0.51100000000E-03 0.  1.
</event>
<event>
 8    1  0.1143506E+005  0.1043930E+01  0.7957747E-01            NaN
         13   -1    0    0    0    0  0.00000000000E+00  0.00000000000E+00  0.74505805969E-08  0.10566000000E+00  0.10566000000E+00 0. -1.
     999900   -1    0    0    0    0 -0.00000000000E+00 -0.00000000000E+00 -0.74505805969E-08  0.93827000000E+00  0.93827000000E+00 0.  1.
     999902    2    1    2    0    0 -0.12862065993E-01  0.19921953618E-01  0.62621938423E-02  0.10194038497E+01  0.10191087659E+01 0.  0.
     999903    2    3    3    0    0 -0.10804952045E+00 -0.39486967659E-01 -0.57133978114E-01  0.13001690013E+00  0.20153991711E-01 0.  0.
         14    1    1    2    0    0  0.12862065993E-01 -0.19921953618E-01 -0.62621938423E-02  0.24526150315E-01  0.00000000000E+00 0.  1.
     999901    1    3    3    0    0  0.95187454452E-01  0.59408921276E-01  0.63396171957E-01  0.88938694955E+00  0.88000000000E+00 0. -1.
        -11    1    4    4    0    0 -0.12825783957E-01 -0.11892187495E-01 -0.10976707045E-01  0.20656090532E-01  0.51100000000E-03 0.  1.
         11    1    4    4    0    0 -0.95223736489E-01 -0.27594780163E-01 -0.46157271069E-01  0.10936080960E+00  0.51100000000E-03 0. -1.
</event>
<event>
 8    1  0.1143506E+005  0.1043930E+01  0.7957747E-01            NaN
         13   -1    0    0    0    0  0.00000000000E+00  0.00000000000E+00  0.74505805969E-08  0.10566000000E+00  0.10566000000E+00 0.  1.
     999900   -1    0    0    0    0 -0.00000000000E+00 -0.00000000000E+00 -0.74505805969E-08  0.93827000000E+00  0.93827000000E+00 0.  1.
     999902    2    1    2    0    0 -0.14844280840E-01  0.12270838577E-01 -0.14231007574E-01  0.10199832313E+01  0.10197020861E+01 0.  0.
     999903    2    3    3    0    0  0.93939586269E-02 -0.12440163438E+00  0.22989326395E-01  0.12832622868E+00  0.19367466159E-01 0.  0.
         14    1    1    2    0    0  0.14844280840E-01 -0.12270838577E-01  0.14231007574E-01  0.23946768667E-01  0.00000000000E+00 0.  1.
     999901    1    3    3    0    0 -0.24238239467E-01  0.13667247295E+00 -0.37220333969E-01  0.89165700265E+00  0.88000000000E+00 0. -1.
        -11    1    4    4    0    0  0.22751177866E-02 -0.38054330039E-01 -0.19225538377E-02  0.38174147403E-01  0.51100000000E-03 0.  1.
         11    1    4    4    0    0  0.71188408403E-02 -0.86347304337E-01  0.24911880233E-01  0.90152081279E-01  0.51100000000E-03 0. -1.
</event>
<event>
 8    1  0.1143506E+005  0.1043930E+01  0.7957747E-01            NaN
         13   -1    0    0    0    0  0.00000000000E+00  0.00000000000E+00  0.74505805969E-08  0.10566000000E+00  0.10566000000E+00 0.  1.
     999900   -1    0    0    0    0 -0.00000000000E+00 -0.00000000000E+00 -0.74505805969E-08  0.93827000000E+00  0.93827000000E+00 0.  1.
     999902    2    1    2    0    0  0.16459253461E-01 -0.15042450523E-01  0.80516303970E-02  0.10202232268E+01  0.10199477543E+01 0.  0.
     999903    2    3    3    0    0  0.11026615943E+00  0.36998522795E-01  0.60064188275E-01  0.13218420477E+00  0.18369558329E-01 0.  0.
         14    1    1    2    0    0 -0.16459253461E-01  0.15042450523E-01 -0.80516303970E-02  0.23706773173E-01  0.00000000000E+00 0.  1.
     999901    1    3    3    0    0 -0.93806905973E-01 -0.52040973318E-01 -0.52012557878E-01  0.88803902205E+00  0.88000000000E+00 0.  1.
        -11    1    4    4    0    0  0.60983005898E-01  0.24708299079E-01  0.42977280282E-01  0.78592205677E-01  0.51100000000E-03 0. -1.
         11    1    4    4    0    0  0.49283153536E-01  0.12290223716E-01  0.17086907993E-01  0.53591999097E-01  0.51100000000E-03 0.  1.
</event>
<event>
 7    1  0.1143506E+005  0.1043930E+01  0.7957747E-01            NaN
         13   -1    0    0    0    0  0.00000000000E+00  0.00000000000E+00  0.74505805969E-08  0.10566000000E+00  0.10566000000E+00 0. -1.
     999900   -1    0    0    0    0 -0.00000000000E+00 -0.00000000000E+00 -0.74505805969E-08  0.93827000000E+00  0.93827000000E+00 0. -1.
     999903    2    1    2    0    0 -0.69543296197E-03  0.33868695279E-01 -0.10509678425E+00  0.11213427439E+00  0.19524069425E-01 0.  0.
         14    1    1    2    0    0  0.28464180155E-01  0.31912756364E-01  0.85394465879E-03  0.42771050866E-01  0.00000000000E+00 0. -1.
     999901    1    1    2    0    0 -0.27768747193E-01 -0.65781451643E-01  0.10424283959E+00  0.88902467475E+00  0.88000000000E+00 0.  1.
        -11    1    3    3    0    0  0.35856535693E-02  0.31771282605E-01 -0.73208048842E-01  0.79887113142E-01  0.51100000000E-03 0. -1.
         11    1    3    3    0    0 -0.42810865313E-02  0.20974126742E-02 -0.31888735404E-01  0.32247161247E-01  0.51100000000E-03 0.  1.
</event>
<event>
 8    1  0.1143506E+005  0.1043930E+01  0.7957747E-01            NaN
         13   -1    0    0    0    0  0.00000000000E+00  0.00000000000E+00  0.74505805969E-08  0.10566000000E+00  0.10566000000E+00 0. -1.
     999900   -1    0    0    0    0 -0.00000000000E+00 -0.00000000000E+00 -0.74505805969E-08  0.93827000000E+00  0.93827000000E+00 0.  1.
     999902    2    1    2    0    0  0.17992144379E-01  0.16234231780E-01 -0.23598269035E-03  0.10196952475E+01  0.10194072172E+01 0.  0.
     999903    2    3    3    0    0  0.99488208501E-01  0.68488622861E-01  0.52166822508E-01  0.13283664330E+00  0.18319425220E-01 0.  0.
         14    1    1    2    0    0 -0.17992144379E-01 -0.16234231780E-01  0.23598269035E-03  0.24234752499E-01  0.00000000000E+00 0. -1.
     999901    1    3    3    0    0 -0.81496064121E-01 -0.52254391080E-01 -0.52402805198E-01  0.88685860420E+00  0.88000000000E+00 0.  1.
        -11    1    4    4    0    0  0.34583482918E-01  0.20639936385E-01  0.26498084753E-01  0.48212383070E-01  0.51100000000E-03 0.  1.
         11    1    4    4    0    0  0.64904725583E-01  0.47848686475E-01  0.25668737755E-01  0.84624260229E-01  0.51100000000E-03 0. -1.
</event>
<event>
 8    1  0.1143506E+005  0.1043930E+01  0.7957747E-01            NaN
         13   -1    0    0    0    0  0.00000000000E+00  0.00000000000E+00  0.74505805969E-08  0.10566000000E+00  0.10566000000E+00 0. -1.
     999900   -1    0    0    0    0 -0.00000000000E+00 -0.00000000000E+00 -0.74505805969E-08  0.93827000000E+00  0.93827000000E+00 0.  1.
     999902    2    1    2    0    0  0.15672916388E-01 -0.16359397828E-01 -0.47957125699E-02  0.10207725160E+01  0.10205098042E+01 0.  0.
     999903    2    3    3    0    0 -0.12324455437E+00  0.17404054715E-01 -0.30532508074E-01  0.12886421521E+00  0.13477040090E-01 0.  0.
         14    1    1    2    0    0 -0.15672916388E-01  0.16359397828E-01  0.47957125699E-02  0.23157483984E-01  0.00000000000E+00 0.  1.
     999901    1    3    3    0    0  0.13891747076E+00 -0.33763452543E-01  0.25736795504E-01  0.89190830081E+00  0.88000000000E+00 0. -1.
        -11    1    4    4    0    0 -0.46452750152E-01  0.59874141511E-04 -0.10488323613E-01  0.47624863620E-01  0.51100000000E-03 0.  1.
         11    1    4    4    0    0 -0.76791804217E-01  0.17344180573E-01 -0.20044184460E-01  0.81239351588E-01  0.51100000000E-03 0. -1.
</event>
<event>
 8    1  0.1143506E+005  0.1043930E+01  0.7957747E-01            NaN
         13   -1    0    0    0    0  0.00000000000E+00  0.00000000000E+00  0.74505805969E-08  0.10566000000E+00  0.10566000000E+00 0.  1.
     999900   -1    0    0    0    0 -0.00000000000E+00 -0.00000000000E+00 -0.74505805969E-08  0.93827000000E+00  0.93827000000E+00 0.  1.
     999902    2    1    2    0    0 -0.99261248348E-02  0.22160578337E-02 -0.22172834854E-01  0.10195358722E+01  0.10192439949E+01 0.  0.
     999903    2    3    3    0    0  0.80561480372E-02  0.12031339457E+00  0.42101072385E-01  0.12914187050E+00  0.19102564884E-01 0.  0.
         14    1    1    2    0    0  0.99261248348E-02 -0.22160578337E-02  0.22172834854E-01  0.24394127818E-01  0.00000000000E+00 0.  1.
     999901    1    3    3    0    0 -0.17982272872E-01 -0.11809733674E+00 -0.64273907239E-01  0.89039400168E+00  0.88000000000E+00 0.  1.
        -11    1    4    4    0    0 -0.60967980825E-02  0.48920439461E-01  0.16754426959E-01  0.52070647083E-01  0.51100000000E-03 0.  1.
         11    1    4    4    0    0  0.14152946120E-01  0.71392955111E-01  0.25346645426E-01  0.77071223415E-01  0.51100000000E-03 0. -1.
</event>
<event>
 8    1  0.1143506E+005  0.1043930E+01  0.7957747E-01            NaN
         13   -1    0    0    0    0  0.00000000000E+00  0.00000000000E+00  0.74505805969E-08  0.10566000000E+00  0.10566000000E+00 0. -1.
     999900   -1    0    0    0    0 -0.00000000000E+00 -0.00000000000E+00 -0.74505805969E-08  0.93827000000E+00  0.93827000000E+00 0. -1.
     999902    2    1    2    0    0 -0.63414890542E-02 -0.23782528867E-02 -0.21418517536E-01  0.10214661743E+01  0.10212191351E+01 0.  0.
     999903    2    3    3    0    0 -0.10763988386E+00 -0.74323764898E-01  0.47196184760E-02  0.13235385092E+00  0.19618879411E-01 0.  0.
         14    1    1    2    0    0  0.63414890542E-02  0.23782528867E-02  0.21418517536E-01  0.22463825669E-01  0.00000000000E+00 0. -1.
     999901    1    3    3    0    0  0.10129839480E+00  0.71945512011E-01 -0.26138136012E-01  0.88911232341E+00  0.88000000000E+00 0. -1.
        -11    1    4    4    0    0 -0.56976405375E-01 -0.43816413741E-01  0.11618825010E-01  0.72811036926E-01  0.51100000000E-03 0.  1.
         11    1    4    4    0    0 -0.50663478482E-01 -0.30507351156E-01 -0.68992065343E-02  0.59542813994E-01  0.51100000000E-03 0. -1.
</event>
<event>
 8    1  0.1143506E+005  0.1043930E+01  0.7957747E-01            NaN
         13   -1    0    0    0    0  0.00000000000E+00  0.00000000000E+00  0.74505805969E-08  0.10566000000E+00  0.10566000000E+00 0. -1.
     999900   -1    0    0    0    0 -0.00000000000E+00 -0.00000000000E+00 -0.74505805969E-08  0.93827000000E+00  0.93827000000E+00 0.  1.
     999902    2    1    2    0    0  0.73439661637E-02 -0.20634959255E-01 -0.86679844959E-02  0.10203743353E+01  0.10201024041E+01 0.  0.
     999903    2    3    3    0    0 -0.38019720182E-01 -0.78684628485E-01  0.95168598190E-01  0.13121199693E+00  0.22863861765E-01 0.  0.
         14    1    1    2    0    0 -0.73439661637E-02  0.20634959255E-01  0.86679844959E-02  0.23555664662E-01  0.00000000000E+00 0. -1.
     999901    1    3    3    0    0  0.45363686346E-01  0.58049669230E-01 -0.10383658269E+00  0.88916233841E+00  0.88000000000E+00 0.  1.
        -11    1    4    4    0    0 -0.39591994021E-02 -0.22008664213E-01  0.36518806746E-01  0.42824536512E-01  0.51100000000E-03 0.  1.
         11    1    4    4    0    0 -0.34060520780E-01 -0.56675964271E-01  0.58649791444E-01  0.88387460419E-01  0.51100000000E-03 0. -1.
</event>
<event>
 8    1  0.1143506E+005  0.1043930E+01  0.7957747E-01            NaN
         13   -1    0    0    0    0  0.00000000000E+00  0.00000000000E+00  0.74505805969E-08  0.10566000000E+00  0.10566000000E+00 0.  1.
     999900   -1    0    0    0    0 -0.00000000000E+00 -0.00000000000E+00 -0.74505805969E-08  0.93827000000E+00  0.93827000000E+00 0. -1.
     999902    2    1    2    0    0 -0.23636308355E-01  0.55668672888E-02 -0.48881482413E-03  0.10196420601E+01  0.10193527489E+01 0.  0.
     999903    2    3    3    0    0 -0.11490958183E+00  0.36254362689E-01 -0.54062939771E-01  0.13276962301E+00  0.13652125403E-01 0.  0.
         14    1    1    2    0    0  0.23636308355E-01 -0.55668672888E-02  0.48881482413E-03  0.24287939887E-01  0.00000000000E+00 0. -1.
     999901    1    3    3    0    0  0.91273273474E-01 -0.30687495401E-01  0.53574124947E-01  0.88687243710E+00  0.88000000000E+00 0.  1.
        -11    1    4    4    0    0 -0.53449162879E-01  0.23901393238E-01 -0.27323090047E-01  0.64613481425E-01  0.51100000000E-03 0. -1.
         11    1    4    4    0    0 -0.61460418950E-01  0.12352969452E-01 -0.26739849724E-01  0.68156141587E-01  0.51100000000E-03 0.  1.
</event>
<event>
 8    1  0.1143506E+005  0.1043930E+01  0.7957747E-01            NaN
         13   -1    0    0    0    0  0.00000000000E+00  0.00000000000E+00  0.74505805969E-08  0.10566000000E+00  0.10566000000E+00 0. -1.
     999900   -1    0    0    0    0 -0.00000000000E+00 -0.00000000000E+00 -0.74505805969E-08  0.93827000000E+00  0.93827000000E+00 0.  1.
     999902    2    1    2    0    0 -0.75372850146E-02 -0.28143385892E-02  0.22169398991E-01  0.10203458227E+01  0.10200732251E+01 0.  0.
     999903    2    3    3    0    0  0.58677232802E-01  0.33920768392E-01  0.11207143311E+00  0.13253041047E+00  0.20264930411E-01 0.  0.
         14    1    1    2    0    0  0.75372850146E-02  0.28143385892E-02 -0.22169398991E-01  0.23584177296E-01  0.00000000000E+00 0.  1.
     999901    1    3    3    0    0 -0.66214517816E-01 -0.36735106981E-01 -0.89902034115E-01  0.88781541223E+00  0.88000000000E+00 0.  1.
        -11    1    4    4    0    0  0.36826481892E-01  0.15881437750E-01  0.48553334151E-01  0.62976957784E-01  0.51100000000E-03 0.  1.
         11    1    4    4    0    0  0.21850750910E-01  0.18039330642E-01  0.63518098955E-01  0.69553452690E-01  0.51100000000E-03 0. -1.
</event>
<event>
 8    1  0.1143506E+005  0.1043930E+01  0.7957747E-01            NaN
         13   -1    0    0    0    0  0.00000000000E+00  0.00000000000E+00  0.74505805969E-08  0.10566000000E+00  0.10566000000E+00 0. -1.
     999900   -1    0    0    0    0 -0.00000000000E+00 -0.00000000000E+00 -0.74505805969E-08  0.93827000000E+00  0.93827000000E+00 0.  1.
     999902    2    1    2    0    0 -0.20343507389E-01  0.80074401438E-02  0.46121495631E-02  0.10215861124E+01  0.10213417331E+01 0.  0.
     999903    2    3    3    0    0 -0.45174784124E-01  0.73830728084E-01 -0.98521475938E-01  0.13277463504E+00  0.20757768628E-01 0.  0.
         14    1    1    2    0    0  0.20343507389E-01 -0.80074401438E-02 -0.46121495631E-02  0.22343887623E-01  0.00000000000E+00 0.  1.
     999901    1    3    3    0    0  0.24831276736E-01 -0.65823287940E-01  0.10313362550E+00  0.88881147734E+00  0.88000000000E+00 0. -1.
        -11    1    4    4    0    0 -0.45163886582E-02  0.22000185961E-01 -0.32498876069E-01  0.39507518469E-01  0.51100000000E-03 0.  1.
         11    1    4    4    0    0 -0.40658395466E-01  0.51830542123E-01 -0.66022599869E-01  0.93267116569E-01  0.51100000000E-03 0. -1.
</event>
<event>
 8    1  0.1143506E+005  0.1043930E+01  0.7957747E-01            NaN
         13   -1    0    0    0    0  0.00000000000E+00  0.00000000000E+00  0.74505805969E-08  0.10566000000E+00  0.10566000000E+00 0.  1.
     999900   -1    0    0    0    0 -0.00000000000E+00 -0.00000000000E+00 -0.74505805969E-08  0.93827000000E+00  0.93827000000E+00 0. -1.
     999902    2    1    2    0    0 -0.64576831130E-03 -0.89730424901E-02  0.21935037632E-01  0.10202218077E+01  0.10199463017E+01 0.  0.
     999903    2    3    3    0    0 -0.94537494037E-01  0.68698167173E-01 -0.49787122700E-01  0.12893479370E+00  0.22105372369E-01 0.  0.
         14    1    1    2    0    0  0.64576831130E-03  0.89730424901E-02 -0.21935037632E-01  0.23708192342E-01  0.00000000000E+00 0. -1.
     999901    1    3    3    0    0  0.93891725726E-01 -0.77671209663E-01  0.71722160332E-01  0.89128701396E+00  0.88000000000E+00 0. -1.
        -11    1    4    4    0    0 -0.37908374145E-01  0.32218785704E-01 -0.32368633428E-01  0.59355577106E-01  0.51100000000E-03 0. -1.
         11    1    4    4    0    0 -0.56629119892E-01  0.36479381468E-01 -0.17418489272E-01  0.69579216592E-01  0.51100000000E-03 0.  1.
</event>
<event>
 8    1  0.1143506E+005  0.1043930E+01  0.7957747E-01            NaN
         13   -1    0    0    0    0  0.00000000000E+00  0.00000000000E+00  0.74505805969E-08  0.10566000000E+00  0.10566000000E+00 0. -1.
     999900   -1    0    0    0    0 -0.00000000000E+00 -0.00000000000E+00 -0.74505805969E-08  0.93827000000E+00  0.93827000000E+00 0.  1.
     999902    2    1    2    0    0 -0.11158609542E-01 -0.17728977843E-01 -0.10650217073E-01  0.10204298224E+01  0.10201591857E+01 0.  0.
     999903    2    3    3    0    0  0.92129104933E-01 -0.85681105228E-01  0.29441832408E-01  0.13088318733E+00  0.20846185779E-01 0.  0.
         14    1    1    2    0    0  0.11158609542E-01  0.17728977843E-01  0.10650217073E-01  0.23500177574E-01  0.00000000000E+00 0. -1.
     999901    1    3    3    0    0 -0.10328771448E+00  0.67952127385E-01 -0.40092049481E-01  0.88954663510E+00  0.88000000000E+00 0.  1.
        -11    1    4    4    0    0  0.37676636046E-01 -0.49250839554E-01  0.14373272246E-01  0.63655527463E-01  0.51100000000E-03 0. -1.
         11    1    4    4    0    0  0.54452468887E-01 -0.36430265674E-01  0.15068560162E-01  0.67227659868E-01  0.51100000000E-03 0.  1.
</event>
<event>
 8    1  0.1143506E+005  0.1043930E+01  0.7957747E-01            NaN
         13   -1    0    0    0    0  0.00000000000E+00  0.00000000000E+00  0.74505805969E-08  0.10566000000E+00  0.10566000000E+00 0. -1.
     999900   -1    0    0    0    0 -0.00000000000E+00 -0.00000000000E+00 -0.74505805969E-08  0.93827000000E+00  0.93827000000E+00 0.  1.
     999902    2    1    2    0    0  0.12866415240E-01  0.17993798616E-01  0.45197554540E-02  0.10213523646E+01  0.10211027877E+01 0.  0.
     999903    2    3    3    0    0  0.18136903752E-01  0.30053761396E-01 -0.12546212548E+00  0.13170720496E+00  0.19335642140E-01 0.  0.
         14    1    1    2    0    0 -0.12866415240E-01 -0.17993798616E-01 -0.45197554540E-02  0.22577635375E-01  0.00000000000E+00 0.  1.
     999901    1    3    3    0    0 -0.52704885121E-02 -0.12059962779E-01  0.12998188093E+00  0.88964515967E+00  0.88000000000E+00 0. -1.
        -11    1    4    4    0    0 -0.26140776251E-02  0.84965380531E-02 -0.44713483676E-01  0.45591460869E-01  0.51100000000E-03 0.  1.
         11    1    4    4    0    0  0.20750981377E-01  0.21557223343E-01 -0.80748641799E-01  0.86115744087E-01  0.51100000000E-03 0. -1.
</event>
<event>
 8    1  0.1143506E+005  0.1043930E+01  0.7957747E-01            NaN
         13   -1    0    0    0    0  0.00000000000E+00  0.00000000000E+00  0.74505805969E-08  0.10566000000E+00  0.10566000000E+00 0. -1.
     999900   -1    0    0    0    0 -0.00000000000E+00 -0.00000000000E+00 -0.74505805969E-08  0.93827000000E+00  0.93827000000E+00 0.  1.
     999902    2    1    2    0    0 -0.11494937744E-02 -0.36138685098E-01  0.32833616438E-02  0.10076242655E+01  0.10069699866E+01 0.  0.
     999903    2    3    3    0    0 -0.13717272171E-01  0.11278842099E+00  0.43990905883E-02  0.11502218344E+00  0.17359701056E-01 0.  0.
         14    1    1    2    0    0  0.11494937744E-02  0.36138685098E-01 -0.32833616438E-02  0.36305734536E-01  0.00000000000E+00 0.  1.
     999901    1    3    3    0    0  0.12567778397E-01 -0.14892710609E+00 -0.11157289446E-02  0.89260208202E+00  0.88000000000E+00 0.  1.
        -11    1    4    4    0    0  0.27057001983E-03  0.45040516171E-01 -0.45217608006E-02  0.45270616815E-01  0.51100000000E-03 0. -1.
         11    1    4    4    0    0 -0.13987842191E-01  0.67747904817E-01  0.89208513889E-02  0.69751566625E-01  0.51100000000E-03 0.  1.
</event>
<event>
 8    1  0.1143506E+005  0.1043930E+01  0.7957747E-01            NaN
         13   -1    0    0    0    0  0.00000000000E+00  0.00000000000E+00  0.74505805969E-08  0.10566000000E+00  0.10566000000E+00 0.  1.
     999900   -1    0    0    0    0 -0.00000000000E+00 -0.00000000000E+00 -0.74505805969E-08  0.93827000000E+00  0.93827000000E+00 0.  1.
     999902    2    1    2    0    0 -0.31374699766E-02  0.13651415311E-01 -0.15326521932E-01  0.10231668805E+01  0.10229561859E+01 0.  0.
     999903    2    3    3    0    0 -0.27235109705E-01 -0.84007064397E-01  0.94396139285E-01  0.13066649544E+00  0.19083077586E-01 0.  0.
         14    1    1    2    0    0  0.31374699766E-02 -0.13651415311E-01  0.15326521932E-01  0.20763119524E-01  0.00000000000E+00 0.  1.
     999901    1    3    3    0    0  0.24097639729E-01  0.97658479708E-01 -0.10972266122E+00  0.89250038503E+00  0.88000000000E+00 0.  1.
        -11    1    4    4    0    0 -0.21573574277E-01 -0.43200525599E-01  0.41907223773E-01  0.63938885230E-01  0.51100000000E-03 0.  1.
         11    1    4    4    0    0 -0.56615354280E-02 -0.40806538798E-01  0.52488915512E-01  0.66727610212E-01  0.51100000000E-03 0. -1.
</event>
<event>
 8    1  0.1143506E+005  0.1043930E+01  0.7957747E-01            NaN
         13   -1    0    0    0    0  0.00000000000E+00  0.00000000000E+00  0.74505805969E-08  0.10566000000E+00  0.10566000000E+00 0.  1.
     999900   -1    0    0    0    0 -0.00000000000E+00 -0.00000000000E+00 -0.74505805969E-08  0.93827000000E+00  0.93827000000E+00 0.  1.
     999902    2    1    2    0    0 -0.23586165544E-01 -0.52856022892E-02  0.54815361645E-03  0.10197526290E+01  0.10194659774E+01 0.  0.
     999903    2    3    3    0    0  0.46497555644E-01  0.59842667114E-01 -0.10198899910E+00  0.12864809688E+00  0.20134781020E-01 0.  0.
         14    1    1    2    0    0  0.23586165544E-01  0.52856022892E-02 -0.54815361645E-03  0.24177371011E-01  0.00000000000E+00 0.  1.
     999901    1    3    3    0    0 -0.70083721188E-01 -0.65128269403E-01  0.10253715271E+00  0.89110453210E+00  0.88000000000E+00 0. -1.
        -11    1    4    4    0    0  0.42199964725E-01  0.42258752641E-01 -0.84479938804E-01  0.10345897921E+00  0.51100000000E-03 0. -1.
         11    1    4    4    0    0  0.42975909193E-02  0.17583914473E-01 -0.17509060294E-01  0.25189117676E-01  0.51100000000E-03 0.  1.
</event>
<event>
 8    1  0.1143506E+005  0.1043930E+01  0.7957747E-01            NaN
         13   -1    0    0    0    0  0.00000000000E+00  0.00000000000E+00  0.74505805969E-08  0.10566000000E+00  0.10566000000E+00 0. -1.
     999900   -1    0    0    0    0 -0.00000000000E+00 -0.00000000000E+00 -0.74505805969E-08  0.93827000000E+00  0.93827000000E+00 0.  1.
     999902    2    1    2    0    0  0.14869974624E-01 -0.13122186463E-01 -0.75315837773E-02  0.10227160264E+01  0.10224959843E+01 0.  0.
     999903    2    3    3    0    0 -0.12752315324E+00 -0.24210354658E-01  0.86506424800E-03  0.13116162308E+00  0.18823579566E-01 0.  0.
         14    1    1    2    0    0 -0.14869974624E-01  0.13122186463E-01  0.75315837773E-02  0.21213973628E-01  0.00000000000E+00 0. -1.
     999901    1    3    3    0    0  0.14239312786E+00  0.11088168196E-01 -0.83966480253E-02  0.89155440329E+00  0.88000000000E+00 0. -1.
        -11    1    4    4    0    0 -0.83784153449E-01 -0.83618532531E-02 -0.45393305033E-02  0.84324205312E-01  0.51100000000E-03 0. -1.
         11    1    4    4    0    0 -0.43738999788E-01 -0.15848501405E-01  0.54043947513E-02  0.46837417765E-01  0.51100000000E-03 0.  1.
</event>
<event>
 8    1  0.1143506E+005  0.1043930E+01  0.7957747E-01            NaN
         13   -1    0    0    0    0  0.00000000000E+00  0.00000000000E+00  0.74505805969E-08  0.10566000000E+00  0.10566000000E+00 0.  1.
     999900   -1    0    0    0    0 -0.00000000000E+00 -0.00000000000E+00 -0.74505805969E-08  0.93827000000E+00  0.93827000000E+00 0. -1.
     999902    2    1    2    0    0 -0.59497653667E-02  0.21778611181E-01 -0.71702721251E-02  0.10202420196E+01  0.10199669888E+01 0.  0.
     999903    2    3    3    0    0  0.42832512309E-01  0.58359526908E-01  0.10722693297E+00  0.13074519862E+00  0.18874144125E-01 0.  0.
         14    1    1    2    0    0  0.59497653667E-02 -0.21778611181E-01  0.71702721251E-02  0.23687980396E-01  0.00000000000E+00 0. -1.
     999901    1    3    3    0    0 -0.48782277676E-01 -0.36580915727E-01 -0.11439720509E+00  0.88949682099E+00  0.88000000000E+00 0. -1.
        -11    1    4    4    0    0  0.93329062845E-02  0.22053944917E-01  0.47799017516E-01  0.53464818550E-01  0.51100000000E-03 0.  1.
         11    1    4    4    0    0  0.33499606025E-01  0.36305581991E-01  0.59427915451E-01  0.77280380068E-01  0.51100000000E-03 0. -1.
</event>
<event>
 8    1  0.1143506E+005  0.1043930E+01  0.7957747E-01            NaN
         13   -1    0    0    0    0  0.00000000000E+00  0.00000000000E+00  0.74505805969E-08  0.10566000000E+00  0.10566000000E+00 0. -1.
     999900   -1    0    0    0    0 -0.00000000000E+00 -0.00000000000E+00 -0.74505805969E-08  0.93827000000E+00  0.93827000000E+00 0. -1.
     999902    2    1    2    0    0 -0.15194431489E-02 -0.23193017945E-01  0.36073205554E-02  0.10204089977E+01  0.10201378755E+01 0.  0.
     999903    2    3    3    0    0  0.99016540346E-01  0.24534472797E-02 -0.82000527626E-01  0.13018771685E+00  0.20358301070E-01 0.  0.
         14    1    1    2    0    0  0.15194431489E-02  0.23193017945E-01 -0.36073205554E-02  0.23521002327E-01  0.00000000000E+00 0. -1.
     999901    1    3    3    0    0 -0.10053598350E+00 -0.25646465225E-01  0.85607848181E-01  0.89022128082E+00  0.88000000000E+00 0.  1.
        -11    1    4    4    0    0  0.70128110148E-02 -0.44431525237E-02 -0.10877255727E-01  0.13692952050E-01  0.51100000000E-03 0. -1.
         11    1    4    4    0    0  0.92003729331E-01  0.68965998034E-02 -0.71123271899E-01  0.11649476480E+00  0.51100000000E-03 0.  1.
</event>
<event>
 8    1  0.1143506E+005  0.1043930E+01  0.7957747E-01            NaN
         13   -1    0    0    0    0  0.00000000000E+00  0.00000000000E+00  0.74505805969E-08  0.10566000000E+00  0.10566000000E+00 0. -1.
     999900   -1    0    0    0    0 -0.00000000000E+00 -0.00000000000E+00 -0.74505805969E-08  0.93827000000E+00  0.93827000000E+00 0. -1.
     999902    2    1    2    0    0 -0.21597931180E-01 -0.19598498413E-02  0.73057985285E-02  0.10210458060E+01  0.10207893277E+01 0.  0.
     999903    2    3    3    0    0  0.46194561826E-01  0.68043999369E-02 -0.11905567467E+00  0.12939573109E+00  0.19717103086E-01 0.  0.
         14    1    1    2    0    0  0.21597931180E-01  0.19598498413E-02 -0.73057985285E-02  0.22884193995E-01  0.00000000000E+00 0.  1.
     999901    1    3    3    0    0 -0.67792493006E-01 -0.87642497781E-02  0.12636147320E+00  0.89165007491E+00  0.88000000000E+00 0.  1.
        -11    1    4    4    0    0  0.21457206056E-01 -0.67102248243E-02 -0.51963125865E-01  0.56620370713E-01  0.51100000000E-03 0.  1.
         11    1    4    4    0    0  0.24737355769E-01  0.13514624761E-01 -0.67092548802E-01  0.72775360381E-01  0.51100000000E-03 0. -1.
</event>
<event>
 8    1  0.1143506E+005  0.1043930E+01  0.7957747E-01            NaN
         13   -1    0    0    0    0  0.00000000000E+00  0.00000000000E+00  0.74505805969E-08  0.10566000000E+00  0.10566000000E+00 0. -1.
     999900   -1    0    0    0    0 -0.00000000000E+00 -0.00000000000E+00 -0.74505805969E-08  0.93827000000E+00  0.93827000000E+00 0.  1.
     999902    2    1    2    0    0  0.12637657376E-01 -0.26967181227E-02  0.20199042791E-01  0.10199511760E+01  0.10196692686E+01 0.  0.
     999903    2    3    3    0    0  0.15795692994E-01 -0.53078644431E-01  0.11779944506E+00  0.13311739773E+00  0.27869085200E-01 0.  0.
         14    1    1    2    0    0 -0.12637657376E-01  0.26967181227E-02 -0.20199042791E-01  0.23978824038E-01  0.00000000000E+00 0.  1.
     999901    1    3    3    0    0 -0.31580356179E-02  0.50381926308E-01 -0.97600402272E-01  0.88683377823E+00  0.88000000000E+00 0.  1.
        -11    1    4    4    0    0  0.23127351997E-01 -0.31563750459E-01  0.78560875872E-01  0.87767973043E-01  0.51100000000E-03 0.  1.
         11    1    4    4    0    0 -0.73316590031E-02 -0.21514893972E-01  0.39238569191E-01  0.45349424688E-01  0.51100000000E-03 0. -1.
</event>
<event>
 8    1  0.1143506E+005  0.1043930E+01  0.7957747E-01            NaN
         13   -1    0    0    0    0  0.00000000000E+00  0.00000000000E+00  0.74505805969E-08  0.10566000000E+00  0.10566000000E+00 0. -1.
     999900   -1    0    0    0    0 -0.00000000000E+00 -0.00000000000E+00 -0.74505805969E-08  0.93827000000E+00  0.93827000000E+00 0. -1.
     999902    2    1    2    0    0  0.22823431382E-01 -0.67782637446E-02 -0.20450922464E-02  0.10200336345E+01  0.10197536856E+01 0.  0.
     999903    2    3    3    0    0  0.56685053379E-01  0.72122343554E-01  0.91264337786E-01  0.13094501973E+00  0.20064673510E-01 0.  0.
         14    1    1    2    0    0 -0.22823431382E-01  0.67782637446E-02  0.20450922464E-02  0.23896365451E-01  0.00000000000E+00 0.  1.
     999901    1    3    3    0    0 -0.33861621996E-01 -0.78900607299E-01 -0.93309430033E-01  0.88908861482E+00  0.88000000000E+00 0. -1.
        -11    1    4    4    0    0  0.39480917645E-01  0.56656684015E-01  0.56711505258E-01  0.89359826831E-01  0.51100000000E-03 0. -1.
         11    1    4    4    0    0  0.17204135734E-01  0.15465659539E-01  0.34552832528E-01  0.41585192894E-01  0.51100000000E-03 0.  1.
</event>
<event>
 8    1  0.1143506E+005  0.1043930E+01  0.7957747E-01            NaN
         13   -1    0    0    0    0  0.00000000000E+00  0.00000000000E+00  0.74505805969E-08  0.10566000000E+00  0.10566000000E+00 0.  1.
     999900   -1    0    0    0    0 -0.00000000000E+00 -0.00000000000E+00 -0.74505805969E-08  0.93827000000E+00  0.93827000000E+00 0. -1.
     999902    2    1    2    0    0 -0.17462895960E-01  0.71764632546E-02 -0.14727362430E-01  0.10199852811E+01  0.10197041846E+01 0.  0.
     999903    2    3    3    0    0  0.11460307261E+00  0.49836640231E-01  0.20702852146E-01  0.12840431961E+00  0.21012050022E-01 0.  0.
         14    1    1    2    0    0  0.17462895960E-01 -0.71764632546E-02  0.14727362430E-01  0.23944718923E-01  0.00000000000E+00 0.  1.
     999901    1    3    3    0    0 -0.13206596857E+00 -0.42660176977E-01 -0.35430214576E-01  0.89158096147E+00  0.88000000000E+00 0.  1.
        -11    1    4    4    0    0  0.66244741572E-01  0.38044089576E-01  0.18372258547E-01  0.78571747738E-01  0.51100000000E-03 0.  1.
         11    1    4    4    0    0  0.48358331034E-01  0.11792550656E-01  0.23305935989E-02  0.49832571867E-01  0.51100000000E-03 0. -1.
</event>
<event>
 8    1  0.1143506E+005  0.1043930E+01  0.7957747E-01            NaN
         13   -1    0    0    0    0  0.00000000000E+00  0.00000000000E+00  0.74505805969E-08  0.10566000000E+00  0.10566000000E+00 0. -1.
     999900   -1    0    0    0    0 -0.00000000000E+00 -0.00000000000E+00 -0.74505805969E-08  0.93827000000E+00  0.93827000000E+00 0. -1.
     999902    2    1    2    0    0  0.19092908282E-01 -0.11010540791E-02  0.17145428918E-01  0.10182450394E+01  0.10179210397E+01 0.  0.
     999903    2    3    3    0    0 -0.10840316964E+00  0.50057219372E-01  0.40299366065E-01  0.12728571172E+00  0.17906454244E-01 0.  0.
         14    1    1    2    0    0 -0.19092908282E-01  0.11010540791E-02 -0.17145428918E-01  0.25684960571E-01  0.00000000000E+00 0.  1.
     999901    1    3    3    0    0  0.12749607792E+00 -0.51158273451E-01 -0.23153937147E-01  0.89095932771E+00  0.88000000000E+00 0.  1.
        -11    1    4    4    0    0 -0.40032807562E-01  0.18471178586E-01  0.58944669146E-02  0.44483884508E-01  0.51100000000E-03 0. -1.
         11    1    4    4    0    0 -0.68370362077E-01  0.31586040786E-01  0.34404899150E-01  0.82801827212E-01  0.51100000000E-03 0.  1.
</event>
<event>
 8    1  0.1143506E+005  0.1043930E+01  0.7957747E-01            NaN
         13   -1    0    0    0    0  0.00000000000E+00  0.00000000000E+00  0.74505805969E-08  0.10566000000E+00  0.10566000000E+00 0. -1.
     999900   -1    0    0    0    0 -0.00000000000E+00 -0.00000000000E+00 -0.74505805969E-08  0.93827000000E+00  0.93827000000E+00 0. -1.
     999902    2    1    2    0    0  0.14252875196E-01 -0.16219723489E-01  0.94345963970E-02  0.10203665645E+01  0.10200944518E+01 0.  0.
     999903    2    3    3    0    0 -0.49429519782E-02  0.78703650190E-01  0.10182469638E+00  0.13024586642E+00  0.19416992561E-01 0.  0.
         14    1    1    2    0    0 -0.14252875196E-01  0.16219723489E-01 -0.94345963970E-02  0.23563435458E-01  0.00000000000E+00 0.  1.
     999901    1    3    3    0    0  0.19195827174E-01 -0.94923373679E-01 -0.92390099978E-01  0.89012069812E+00  0.88000000000E+00 0. -1.
        -11    1    4    4    0    0 -0.10779433310E-01  0.38997776420E-01  0.43117905158E-01  0.59130682513E-01  0.51100000000E-03 0. -1.
         11    1    4    4    0    0  0.58364813320E-02  0.39705873769E-01  0.58706791217E-01  0.71115183907E-01  0.51100000000E-03 0.  1.
</event>
<event>
 8    1  0.1143506E+005  0.1043930E+01  0.7957747E-01            NaN
         13   -1    0    0    0    0  0.00000000000E+00  0.00000000000E+00  0.74505805969E-08  0.10566000000E+00  0.10566000000E+00 0. -1.
     999900   -1    0    0    0    0 -0.00000000000E+00 -0.00000000000E+00 -0.74505805969E-08  0.93827000000E+00  0.93827000000E+00 0. -1.
     999902    2    1    2    0    0  0.50191414489E-02 -0.14062997833E-01 -0.18536084568E-01  0.10201277707E+01  0.10198500490E+01 0.  0.
     999903    2    3    3    0    0 -0.11962574988E+00 -0.33246159990E-01  0.32420702587E-01  0.12967791988E+00  0.18698496194E-01 0.  0.
         14    1    1    2    0    0 -0.50191414489E-02  0.14062997833E-01  0.18536084568E-01  0.23802229309E-01  0.00000000000E+00 0. -1.
     999901    1    3    3    0    0  0.12464489133E+00  0.19183162156E-01 -0.50956787156E-01  0.89044985081E+00  0.88000000000E+00 0. -1.
        -11    1    4    4    0    0 -0.59441602530E-01 -0.72532620050E-02  0.18259588464E-01  0.62606609978E-01  0.51100000000E-03 0.  1.
         11    1    4    4    0    0 -0.60184147353E-01 -0.25992897985E-01  0.14161114124E-01  0.67071309906E-01  0.51100000000E-03 0. -1.
</event>
<event>
 8    1  0.1143506E+005  0.1043930E+01  0.7957747E-01            NaN
         13   -1    0    0    0    0  0.00000000000E+00  0.00000000000E+00  0.74505805969E-08  0.10566000000E+00  0.10566000000E+00 0.  1.
     999900   -1    0    0    0    0 -0.00000000000E+00 -0.00000000000E+00 -0.74505805969E-08  0.93827000000E+00  0.93827000000E+00 0. -1.
     999902    2    1    2    0    0  0.79067387546E-02  0.17010878671E-01  0.14953757354E-01  0.10199403904E+01  0.10196582263E+01 0.  0.
     999903    2    3    3    0    0 -0.20269328631E-02  0.17675944678E-01 -0.12582771725E+00  0.12869488899E+00  0.20327630166E-01 0.  0.
         14    1    1    2    0    0 -0.79067387546E-02 -0.17010878671E-01 -0.14953757354E-01  0.23989609624E-01  0.00000000000E+00 0. -1.
     999901    1    3    3    0    0  0.99336716177E-02 -0.66506600639E-03  0.14078147460E+00  0.89124550138E+00  0.88000000000E+00 0.  1.
        -11    1    4    4    0    0  0.71815405903E-02  0.55025407989E-02 -0.77078211654E-01  0.77609047883E-01  0.51100000000E-03 0.  1.
         11    1    4    4    0    0 -0.92084734534E-02  0.12173403879E-01 -0.48749505594E-01  0.51085841110E-01  0.51100000000E-03 0. -1.
</event>
<event>
 7    1  0.1143506E+005  0.1043930E+01  0.7957747E-01            NaN
         13   -1    0    0    0    0  0.00000000000E+00  0.00000000000E+00  0.74505805969E-08  0.10566000000E+00  0.10566000000E+00 0.  1.
     999900   -1    0    0    0    0 -0.00000000000E+00 -0.00000000000E+00 -0.74505805969E-08  0.93827000000E+00  0.93827000000E+00 0.  1.
     999903    2    1    2    0    0  0.66428484183E-01  0.98964567716E-01  0.50532851155E-02  0.12030662902E+00  0.15537700041E-01 0.  0.
         14    1    1    2    0    0 -0.24391792805E-01 -0.19921985442E-01  0.22413275080E-01  0.38654882745E-01  0.00000000000E+00 0.  1.
     999901    1    1    2    0    0 -0.42036691378E-01 -0.79042582274E-01 -0.27466560195E-01  0.88496848823E+00  0.88000000000E+00 0. -1.
        -11    1    3    3    0    0  0.21795067004E-01  0.42682948184E-01 -0.30070335252E-02  0.48022519541E-01  0.51100000000E-03 0. -1.
         11    1    3    3    0    0  0.44633417179E-01  0.56281619531E-01  0.80603186407E-02  0.72284109483E-01  0.51100000000E-03 0.  1.
</event>
<event>
 7    1  0.1143506E+005  0.1043930E+01  0.7957747E-01            NaN
         13   -1    0    0    0    0  0.00000000000E+00  0.00000000000E+00  0.74505805969E-08  0.10566000000E+00  0.10566000000E+00 0.  1.
     999900   -1    0    0    0    0 -0.00000000000E+00 -0.00000000000E+00 -0.74505805969E-08  0.93827000000E+00  0.93827000000E+00 0. -1.
     999903    2    1    2    0    0 -0.89192023414E-01 -0.62366250237E-01  0.14330755535E-01  0.11170121722E+00  0.20664587245E-01 0.  0.
         14    1    1    2    0    0 -0.32709840372E-01  0.26625910153E-01  0.75038136950E-02  0.42839000555E-01  0.00000000000E+00 0.  1.
     999901    1    1    2    0    0  0.12190186379E+00  0.35740340085E-01 -0.21834569229E-01  0.88938978222E+00  0.88000000000E+00 0. -1.
        -11    1    3    3    0    0 -0.28326270855E-01 -0.15032316468E-01 -0.43460457026E-02  0.32365064393E-01  0.51100000000E-03 0.  1.
         11    1    3    3    0    0 -0.60865752559E-01 -0.47333933769E-01  0.18676801237E-01  0.79336152832E-01  0.51100000000E-03 0. -1.
</event>
<event>
 8    1  0.1143506E+005  0.1043930E+01  0.7957747E-01            NaN
         13   -1    0    0    0    0  0.00000000000E+00  0.00000000000E+00  0.74505805969E-08  0.10566000000E+00  0.10566000000E+00 0. -1.
     999900   -1    0    0    0    0 -0.00000000000E+00 -0.00000000000E+00 -0.74505805969E-08  0.93827000000E+00  0.93827000000E+00 0. -1.
     999902    2    1    2    0    0 -0.21849955788E-01 -0.67619701072E-02  0.28708839314E-02  0.10208781718E+01  0.10206178790E+01 0.  0.
     999903    2    3    3    0    0  0.52672423858E-02  0.11830623514E+00 -0.50404015571E-01  0.13002711058E+00  0.18503393924E-01 0.  0.
         14    1    1    2    0    0  0.21849955788E-01  0.67619701072E-02 -0.28708839314E-02  0.23051828175E-01  0.00000000000E+00 0. -1.
     999901    1    3    3    0    0 -0.27117198173E-01 -0.12506820524E+00  0.53274899503E-01  0.89085106124E+00  0.88000000000E+00 0.  1.
        -11    1    4    4    0    0 -0.66687138878E-02  0.36563388868E-01 -0.13470791701E-01  0.39535762298E-01  0.51100000000E-03 0.  1.
         11    1    4    4    0    0  0.11935956274E-01  0.81742846267E-01 -0.36933223870E-01  0.90491348285E-01  0.51100000000E-03 0. -1.
</event>
<event>
 8    1  0.1143506E+005  0.1043930E+01  0.7957747E-01            NaN
         13   -1    0    0    0    0  0.00000000000E+00  0.00000000000E+00  0.74505805969E-08  0.10566000000E+00  0.10566000000E+00 0. -1.
     999900   -1    0    0    0    0 -0.00000000000E+00 -0.00000000000E+00 -0.74505805969E-08  0.93827000000E+00  0.93827000000E+00 0.  1.
     999902    2    1    2    0    0 -0.17032055884E-01 -0.81612968173E-02 -0.14360357518E-01  0.10202041162E+01  0.10199281941E+01 0.  0.
     999903    2    3    3    0    0  0.17818144722E-01  0.88554550758E-01  0.88818516547E-01  0.12823193520E+00  0.19882293167E-01 0.  0.
         14    1    1    2    0    0  0.17032055884E-01  0.81612968173E-02  0.14360357518E-01  0.23725883786E-01  0.00000000000E+00 0. -1.
     999901    1    3    3    0    0 -0.34850200607E-01 -0.96715847575E-01 -0.10317887406E+00  0.89197218102E+00  0.88000000000E+00 0.  1.
        -11    1    4    4    0    0 -0.34499933541E-03  0.33997863452E-01  0.42273207968E-01  0.54251810815E-01  0.51100000000E-03 0. -1.
         11    1    4    4    0    0  0.18163144058E-01  0.54556687306E-01  0.46545308578E-01  0.73980124382E-01  0.51100000000E-03 0.  1.
</event>
<event>
 8    1  0.1143506E+005  0.1043930E+01  0.7957747E-01            NaN
         13   -1    0    0    0    0  0.00000000000E+00  0.00000000000E+00  0.74505805969E-08  0.10566000000E+00  0.10566000000E+00 0.  1.
     999900   -1    0    0    0    0 -0.00000000000E+00 -0.00000000000E+00 -0.74505805969E-08  0.93827000000E+00  0.93827000000E+00 0.  1.
     999902    2    1    2    0    0 -0.85334256968E-02 -0.78449455845E-02 -0.19709691847E-01  0.10210644259E+01  0.10208083696E+01 0.  0.
     999903    2    3    3    0    0  0.83366172880E-01  0.88382597568E-01  0.39142659024E-01  0.12911774843E+00  0.19438180743E-01 0.  0.
         14    1    1    2    0    0  0.85334256968E-02  0.78449455845E-02  0.19709691847E-01  0.22865574081E-01  0.00000000000E+00 0.  1.
     999901    1    3    3    0    0 -0.91899598577E-01 -0.96227543153E-01 -0.58852350871E-01  0.89194667749E+00  0.88000000000E+00 0.  1.
        -11    1    4    4    0    0  0.75117775955E-01  0.86279962600E-01  0.37817429607E-01  0.12048788866E+00  0.51100000000E-03 0.  1.
         11    1    4    4    0    0  0.82483969251E-02  0.21026349685E-02  0.13252294166E-02  0.86298597700E-02  0.51100000000E-03 0. -1.
</event>
<event>
 8    1  0.1143506E+005  0.1043930E+01  0.7957747E-01            NaN
         13   -1    0    0    0    0  0.00000000000E+00  0.00000000000E+00  0.74505805969E-08  0.10566000000E+00  0.10566000000E+00 0.  1.
     999900   -1    0    0    0    0 -0.00000000000E+00 -0.00000000000E+00 -0.74505805969E-08  0.93827000000E+00  0.93827000000E+00 0.  1.
     999902    2    1    2    0    0  0.20053508649E-01  0.13119011475E-01  0.11356528668E-02  0.10199395565E+01  0.10196573726E+01 0.  0.
     999903    2    3    3    0    0 -0.79205000614E-01 -0.53687434586E-01 -0.82635042036E-01  0.12790094624E+00  0.19347586975E-01 0.  0.
         14    1    1    2    0    0 -0.20053508649E-01 -0.13119011475E-01 -0.11356528668E-02  0.23990443486E-01  0.00000000000E+00 0. -1.
     999901    1    3    3    0    0  0.99258509263E-01  0.66806446062E-01  0.83770694903E-01  0.89203861027E+00  0.88000000000E+00 0.  1.
        -11    1    4    4    0    0 -0.28170050480E-01 -0.14081231704E-01 -0.38107499209E-01  0.49439614150E-01  0.51100000000E-03 0.  1.
         11    1    4    4    0    0 -0.51034950135E-01 -0.39606202882E-01 -0.44527542828E-01  0.78461332089E-01  0.51100000000E-03 0. -1.
</event>
<event>
 8    1  0.1143506E+005  0.1043930E+01  0.7957747E-01            NaN
         13   -1    0    0    0    0  0.00000000000E+00  0.00000000000E+00  0.74505805969E-08  0.10566000000E+00  0.10566000000E+00 0.  1.
     999900   -1    0    0    0    0 -0.00000000000E+00 -0.00000000000E+00 -0.74505805969E-08  0.93827000000E+00  0.93827000000E+00 0. -1.
     999902    2    1    2    0    0 -0.75859290351E-02  0.91114689871E-02  0.19970251032E-01  0.10207055277E+01  0.10204412762E+01 0.  0.
     999903    2    3    3    0    0 -0.20453867073E-01 -0.12614843994E+00 -0.12016433451E-01  0.12970385837E+00  0.18625429532E-01 0.  0.
         14    1    1    2    0    0  0.75859290351E-02 -0.91114689871E-02 -0.19970251032E-01  0.23224472281E-01  0.00000000000E+00 0. -1.
     999901    1    3    3    0    0  0.12867938038E-01  0.13525990893E+00  0.31986684483E-01  0.89100166935E+00  0.88000000000E+00 0.  1.
        -11    1    4    4    0    0 -0.85029992802E-02 -0.99823394292E-01 -0.10743631273E-01  0.10076059636E+00  0.51100000000E-03 0.  1.
         11    1    4    4    0    0 -0.11950867793E-01 -0.26325045652E-01 -0.12728021775E-02  0.28943262014E-01  0.51100000000E-03 0. -1.
</event>
<event>
 8    1  0.1143506E+005  0.1043930E+01  0.7957747E-01            NaN
         13   -1    0    0    0    0  0.00000000000E+00  0.00000000000E+00  0.74505805969E-08  0.10566000000E+00  0.10566000000E+00 0.  1.
     999900   -1    0    0    0    0 -0.00000000000E+00 -0.00000000000E+00 -0.74505805969E-08  0.93827000000E+00  0.93827000000E+00 0.  1.
     999902    2    1    2    0    0  0.23647686168E-01  0.23729497885E-02  0.39234295396E-02  0.10198418857E+01  0.10195573719E+01 0.  0.
     999903    2    3    3    0    0  0.96185492602E-01  0.68130927783E-01  0.58013878113E-01  0.13276149381E+00  0.19145022235E-01 0.  0.
         14    1    1    2    0    0 -0.23647686168E-01 -0.23729497885E-02 -0.39234295396E-02  0.24088114313E-01  0.00000000000E+00 0. -1.
     999901    1    3    3    0    0 -0.72537806434E-01 -0.65757977995E-01 -0.54090448574E-01  0.88708039188E+00  0.88000000000E+00 0.  1.
        -11    1    4    4    0    0  0.53149540094E-01  0.33538212882E-01  0.20911037608E-01  0.66236077407E-01  0.51100000000E-03 0. -1.
         11    1    4    4    0    0  0.43035952508E-01  0.34592714901E-01  0.37102840506E-01  0.66525416399E-01  0.51100000000E-03 0.  1.
</event>
<event>
 8    1  0.1143506E+005  0.1043930E+01  0.7957747E-01            NaN
         13   -1    0    0    0    0  0.00000000000E+00  0.00000000000E+00  0.74505805969E-08  0.10566000000E+00  0.10566000000E+00 0.  1.
     999900   -1    0    0    0    0 -0.00000000000E+00 -0.00000000000E+00 -0.74505805969E-08  0.93827000000E+00  0.93827000000E+00 0.  1.
     999902    2    1    2    0    0 -0.11958255671E-02 -0.13560670650E-01 -0.19399904694E-01  0.10202302513E+01  0.10199549439E+01 0.  0.
     999903    2    3    3    0    0  0.79580996139E-01 -0.95195961431E-01  0.38624253343E-01  0.13087316971E+00  0.15509596513E-01 0.  0.
         14    1    1    2    0    0  0.11958255671E-02  0.13560670650E-01  0.19399904694E-01  0.23699748720E-01  0.00000000000E+00 0.  1.
     999901    1    3    3    0    0 -0.80776821706E-01  0.81635290781E-01 -0.58024158037E-01  0.88935708157E+00  0.88000000000E+00 0.  1.
        -11    1    4    4    0    0  0.55780133427E-01 -0.76939868523E-01  0.30045334949E-01  0.99670205813E-01  0.51100000000E-03 0.  1.
         11    1    4    4    0    0  0.23800862711E-01 -0.18256092908E-01  0.85789183948E-02  0.31202963896E-01  0.51100000000E-03 0. -1.
</event>
<event>
 8    1  0.1143506E+005  0.1043930E+01  0.7957747E-01            NaN
         13   -1    0    0    0    0  0.00000000000E+00  0.00000000000E+00  0.74505805969E-08  0.10566000000E+00  0.10566000000E+00 0. -1.
     999900   -1    0    0    0    0 -0.00000000000E+00 -0.00000000000E+00 -0.74505805969E-08  0.93827000000E+00  0.93827000000E+00 0. -1.
     999902    2    1    2    0    0  0.83605595483E-02  0.20132651367E-01 -0.98524934134E-02  0.10200073280E+01  0.10197267551E+01 0.  0.
     999903    2    3    3    0    0  0.95307824125E-02 -0.49743891099E-01  0.11621458463E+00  0.12828034697E+00  0.19614464651E-01 0.  0.
         14    1    1    2    0    0 -0.83605595483E-02 -0.20132651367E-01  0.98524934134E-02  0.23922671955E-01  0.00000000000E+00 0. -1.
     999901    1    3    3    0    0 -0.11702228643E-02  0.69876542465E-01 -0.12606707804E+00  0.89172698107E+00  0.88000000000E+00 0. -1.
        -11    1    4    4    0    0  0.49214730734E-02 -0.47441559646E-01  0.93273536748E-01  0.10476228452E+00  0.51100000000E-03 0.  1.
         11    1    4    4    0    0  0.46093093392E-02 -0.23023314527E-02  0.22941047881E-01  0.23518062454E-01  0.51100000000E-03 0. -1.
</event>
<event>
 8    1  0.1143506E+005  0.1043930E+01  0.7957747E-01            NaN
         13   -1    0    0    0    0  0.00000000000E+00  0.00000000000E+00  0.74505805969E-08  0.10566000000E+00  0.10566000000E+00 0.  1.
     999900   -1    0    0    0    0 -0.00000000000E+00 -0.00000000000E+00 -0.74505805969E-08  0.93827000000E+00  0.93827000000E+00 0.  1.
     999902    2    1    2    0    0 -0.77260452358E-02 -0.21831175536E-01 -0.54440643134E-03  0.10207656226E+01  0.10205027526E+01 0.  0.
     999903    2    3    3    0    0 -0.12753042683E+00  0.16414146636E-01 -0.19712469066E-01  0.13161816066E+00  0.20033092643E-01 0.  0.
         14    1    1    2    0    0  0.77260452358E-02  0.21831175536E-01  0.54440643134E-03  0.23164377363E-01  0.00000000000E+00 0. -1.
     999901    1    3    3    0    0  0.11980438160E+00 -0.38245322172E-01  0.19168062635E-01  0.88914746198E+00  0.88000000000E+00 0. -1.
        -11    1    4    4    0    0 -0.50414941181E-01  0.13106127283E-01 -0.58938903025E-03  0.52096500526E-01  0.51100000000E-03 0. -1.
         11    1    4    4    0    0 -0.77115485650E-01  0.33080193527E-02 -0.19123080036E-01  0.79521660132E-01  0.51100000000E-03 0.  1.
</event>
<event>
 8    1  0.1143506E+005  0.1043930E+01  0.7957747E-01            NaN
         13   -1    0    0    0    0  0.00000000000E+00  0.00000000000E+00  0.74505805969E-08  0.10566000000E+00  0.10566000000E+00 0.  1.
     999900   -1    0    0    0    0 -0.00000000000E+00 -0.00000000000E+00 -0.74505805969E-08  0.93827000000E+00  0.93827000000E+00 0.  1.
     999902    2    1    2    0    0 -0.88225271855E-02  0.20415787975E-01 -0.86808850025E-02  0.10200553450E+01  0.10197759106E+01 0.  0.
     999903    2    3    3    0    0  0.10709015533E+00 -0.67800249994E-01 -0.18538915556E-02  0.12805510561E+00  0.18152076787E-01 0.  0.
         14    1    1    2    0    0  0.88225271855E-02 -0.20415787975E-01  0.86808850025E-02  0.23874654950E-01  0.00000000000E+00 0.  1.
     999901    1    3    3    0    0 -0.11591268251E+00  0.88216037969E-01 -0.68269934469E-02  0.89200023944E+00  0.88000000000E+00 0.  1.
        -11    1    4    4    0    0  0.12995286141E-01 -0.15932717452E-01 -0.13220328837E-02  0.20609168815E-01  0.51100000000E-03 0.  1.
         11    1    4    4    0    0  0.94094869185E-01 -0.51867532542E-01 -0.53185867195E-03  0.10744593679E+00  0.51100000000E-03 0. -1.
</event>
<event>
 8    1  0.1143506E+005  0.1043930E+01  0.7957747E-01            NaN
         13   -1    0    0    0    0  0.00000000000E+00  0.00000000000E+00  0.74505805969E-08  0.10566000000E+00  0.10566000000E+00 0.  1.
     999900   -1    0    0    0    0 -0.00000000000E+00 -0.00000000000E+00 -0.74505805969E-08  0.93827000000E+00  0.93827000000E+00 0.  1.
     999902    2    1    2    0    0  0.19455424859E-01 -0.74320681241E-02  0.93789741748E-02  0.10210889328E+01  0.10208334313E+01 0.  0.
     999903    2    3    3    0    0 -0.12333038313E+00  0.29360490193E-01 -0.57936256574E-02  0.12869233540E+00  0.21347817330E-01 0.  0.
         14    1    1    2    0    0 -0.19455424859E-01  0.74320681241E-02 -0.93789741748E-02  0.22841067173E-01  0.00000000000E+00 0. -1.
     999901    1    3    3    0    0  0.14278580799E+00 -0.36792558317E-01  0.15172599832E-01  0.89239659743E+00  0.88000000000E+00 0.  1.
        -11    1    4    4    0    0 -0.55063924678E-01  0.57305911547E-02 -0.10283777008E-01  0.56310679861E-01  0.51100000000E-03 0.  1.
         11    1    4    4    0    0 -0.68266458455E-01  0.23629899038E-01  0.44901513509E-02  0.72381655540E-01  0.51100000000E-03 0. -1.
</event>
<event>
 8    1  0.1143506E+005  0.1043930E+01  0.7957747E-01            NaN
         13   -1    0    0    0    0  0.00000000000E+00  0.00000000000E+00  0.74505805969E-08  0.10566000000E+00  0.10566000000E+00 0. -1.
     999900   -1    0    0    0    0 -0.00000000000E+00 -0.00000000000E+00 -0.74505805969E-08  0.93827000000E+00  0.93827000000E+00 0. -1.
     999902    2    1    2    0    0  0.18747592483E-01  0.13378229117E-01  0.46937992398E-02  0.10204250858E+01  0.10201543387E+01 0.  0.
     999903    2    3    3    0    0  0.12393311834E+00  0.30375931455E-01 -0.32661417252E-01  0.13321128470E+00  0.19908871427E-01 0.  0.
         14    1    1    2    0    0 -0.18747592483E-01 -0.13378229117E-01 -0.46937992398E-02  0.23504914157E-01  0.00000000000E+00 0.  1.
     999901    1    3    3    0    0 -0.10518552586E+00 -0.16997702338E-01  0.37355216492E-01  0.88721380114E+00  0.88000000000E+00 0. -1.
        -11    1    4    4    0    0  0.87218255851E-01  0.22524999760E-01 -0.32189546843E-01  0.95659959308E-01  0.51100000000E-03 0. -1.
         11    1    4    4    0    0  0.36714862491E-01  0.78509316946E-02 -0.47187040926E-03  0.37551325395E-01  0.51100000000E-03 0.  1.
</event>
<event>
 8    1  0.1143506E+005  0.1043930E+01  0.7957747E-01            NaN
         13   -1    0    0    0    0  0.00000000000E+00  0.00000000000E+00  0.74505805969E-08  0.10566000000E+00  0.10566000000E+00 0. -1.
     999900   -1    0    0    0    0 -0.00000000000E+00 -0.00000000000E+00 -0.74505805969E-08  0.93827000000E+00  0.93827000000E+00 0. -1.
     999902    2    1    2    0    0  0.14139078528E-01  0.82935738778E-02 -0.16328550078E-01  0.10207930500E+01  0.10205308091E+01 0.  0.
     999903    2    3    3    0    0  0.56245597287E-01  0.11706944630E+00  0.28050666892E-02  0.13289032746E+00  0.27984786234E-01 0.  0.
         14    1    1    2    0    0 -0.14139078528E-01 -0.82935738778E-02  0.16328550078E-01  0.23136950036E-01  0.00000000000E+00 0. -1.
     999901    1    3    3    0    0 -0.42106518759E-01 -0.10877587243E+00 -0.19133616767E-01  0.88790272251E+00  0.88000000000E+00 0. -1.
        -11    1    4    4    0    0  0.40605907714E-01  0.93527415203E-01  0.13109948358E-01  0.10280247566E+00  0.51100000000E-03 0. -1.
         11    1    4    4    0    0  0.15639689573E-01  0.23542031102E-01 -0.10304881669E-01  0.30087851794E-01  0.51100000000E-03 0.  1.
</event>
<event>
 8    1  0.1143506E+005  0.1043930E+01  0.7957747E-01            NaN
         13   -1    0    0    0    0  0.00000000000E+00  0.00000000000E+00  0.74505805969E-08  0.10566000000E+00  0.10566000000E+00 0.  1.
     999900   -1    0    0    0    0 -0.00000000000E+00 -0.00000000000E+00 -0.74505805969E-08  0.93827000000E+00  0.93827000000E+00 0. -1.
     999902    2    1    2    0    0  0.23330343389E-01  0.88227498718E-03  0.41920051985E-02  0.10202096240E+01  0.10199338315E+01 0.  0.
     999903    2    3    3    0    0  0.26394676713E-01  0.12022795386E+00  0.41456505005E-01  0.13136687963E+00  0.19676773296E-01 0.  0.
         14    1    1    2    0    0 -0.23330343389E-01 -0.88227498718E-03 -0.41920051985E-02  0.23720376038E-01  0.00000000000E+00 0. -1.
     999901    1    3    3    0    0 -0.30643333244E-02 -0.11934567888E+00 -0.37264499807E-01  0.88884274433E+00  0.88000000000E+00 0.  1.
        -11    1    4    4    0    0  0.18814817491E-01  0.46093351084E-01  0.11853848528E-01  0.51179773518E-01  0.51100000000E-03 0.  1.
         11    1    4    4    0    0  0.75798592221E-02  0.74134602780E-01  0.29602656478E-01  0.80187106113E-01  0.51100000000E-03 0. -1.
</event>
<event>
 8    1  0.1143506E+005  0.1043930E+01  0.7957747E-01            NaN
         13   -1    0    0    0    0  0.00000000000E+00  0.00000000000E+00  0.74505805969E-08  0.10566000000E+00  0.10566000000E+00 0.  1.
     999900   -1    0    0    0    0 -0.00000000000E+00 -0.00000000000E+00 -0.74505805969E-08  0.93827000000E+00  0.93827000000E+00 0.  1.
     999902    2    1    2    0    0 -0.67447095527E-03 -0.60999989211E-03  0.26658189679E-01  0.10172563034E+01  0.10169065349E+01 0.  0.
     999903    2    3    3    0    0  0.12181052512E+00  0.33087106865E-01  0.62679963888E-02  0.12790045270E+00  0.19664113305E-01 0.  0.
         14    1    1    2    0    0  0.67447095527E-03  0.60999989211E-03 -0.26658189679E-01  0.26673696555E-01  0.00000000000E+00 0. -1.
     999901    1    3    3    0    0 -0.12248499608E+00 -0.33697106757E-01  0.20390193291E-01  0.88935585074E+00  0.88000000000E+00 0.  1.
        -11    1    4    4    0    0  0.54499956803E-01  0.22327965427E-01  0.94859722443E-02  0.59657590649E-01  0.51100000000E-03 0.  1.
         11    1    4    4    0    0  0.67310568317E-01  0.10759141438E-01 -0.32179758555E-02  0.68242862054E-01  0.51100000000E-03 0. -1.
</event>
<event>
 8    1  0.1143506E+005  0.1043930E+01  0.7957747E-01            NaN
         13   -1    0    0    0    0  0.00000000000E+00  0.00000000000E+00  0.74505805969E-08  0.10566000000E+00  0.10566000000E+00 0.  1.
     999900   -1    0    0    0    0 -0.00000000000E+00 -0.00000000000E+00 -0.74505805969E-08  0.93827000000E+00  0.93827000000E+00 0.  1.
     999902    2    1    2    0    0  0.83250083414E-02  0.21976903569E-01 -0.24910992332E-05  0.10204291477E+01  0.10201584952E+01 0.  0.
     999903    2    3    3    0    0 -0.48847578870E-01 -0.63176629848E-02 -0.11861048571E+00  0.13018359524E+00  0.21291367297E-01 0.  0.
         14    1    1    2    0    0 -0.83250083414E-02 -0.21976903569E-01  0.24910992332E-05  0.23500852338E-01  0.00000000000E+00 0.  1.
     999901    1    3    3    0    0  0.57172587211E-01  0.28294566554E-01  0.11860799461E+00  0.89024555242E+00  0.88000000000E+00 0. -1.
        -11    1    4    4    0    0 -0.45794634725E-01 -0.78070573371E-02 -0.89201628780E-01  0.10057480008E+00  0.51100000000E-03 0.  1.
         11    1    4    4    0    0 -0.30529441448E-02  0.14893943523E-02 -0.29408856931E-01  0.29608795154E-01  0.51100000000E-03 0. -1.
</event>
<event>
 8    1  0.1143506E+005  0.1043930E+01  0.7957747E-01            NaN
         13   -1    0    0    0    0  0.00000000000E+00  0.00000000000E+00  0.74505805969E-08  0.10566000000E+00  0.10566000000E+00 0.  1.
     999900   -1    0    0    0    0 -0.00000000000E+00 -0.00000000000E+00 -0.74505805969E-08  0.93827000000E+00  0.93827000000E+00 0. -1.
     999902    2    1    2    0    0 -0.71836389075E-03 -0.86428712520E-04 -0.24519067865E-01  0.10194002588E+01  0.10191050875E+01 0.  0.
     999903    2    3    3    0    0  0.71010538841E-01 -0.10653789666E+00  0.45768500065E-02  0.12961178785E+00  0.19632828209E-01 0.  0.
         14    1    1    2    0    0  0.71836389075E-03  0.86428712520E-04  0.24519067865E-01  0.24529741246E-01  0.00000000000E+00 0.  1.
     999901    1    3    3    0    0 -0.71728902732E-01  0.10645146794E+00 -0.29095917872E-01  0.88978847090E+00  0.88000000000E+00 0. -1.
        -11    1    4    4    0    0  0.27320474339E-01 -0.37319418819E-01  0.10873750726E-01  0.47514702093E-01  0.51100000000E-03 0. -1.
         11    1    4    4    0    0  0.43690064503E-01 -0.69218477838E-01 -0.62969007200E-02  0.82097085759E-01  0.51100000000E-03 0.  1.
</event>
<event>
 8    1  0.1143506E+005  0.1043930E+01  0.7957747E-01            NaN
         13   -1    0    0    0    0  0.00000000000E+00  0.00000000000E+00  0.74505805969E-08  0.10566000000E+00  0.10566000000E+00 0.  1.
     999900   -1    0    0    0    0 -0.00000000000E+00 -0.00000000000E+00 -0.74505805969E-08  0.93827000000E+00  0.93827000000E+00 0. -1.
     999902    2    1    2    0    0  0.58476517647E-02  0.20089624666E-01 -0.10824960108E-01  0.10203722452E+01  0.10201002651E+01 0.  0.
     999903    2    3    3    0    0 -0.12079812893E+00 -0.35889680382E-01 -0.16952391596E-01  0.12952412021E+00  0.24675028386E-01 0.  0.
         14    1    1    2    0    0 -0.58476517647E-02 -0.20089624666E-01  0.10824960108E-01  0.23557754811E-01  0.00000000000E+00 0.  1.
     999901    1    3    3    0    0  0.12664578069E+00  0.55979305048E-01  0.61274314882E-02  0.89084812498E+00  0.88000000000E+00 0.  1.
        -11    1    4    4    0    0 -0.81333987226E-01 -0.27245090523E-01 -0.17905177016E-03  0.85777652196E-01  0.51100000000E-03 0. -1.
         11    1    4    4    0    0 -0.39464141699E-01 -0.86445898592E-02 -0.16773339826E-01  0.43746468015E-01  0.51100000000E-03 0.  1.
</event>
<event>
 8    1  0.1143506E+005  0.1043930E+01  0.7957747E-01            NaN
         13   -1    0    0    0    0  0.00000000000E+00  0.00000000000E+00  0.74505805969E-08  0.10566000000E+00  0.10566000000E+00 0. -1.
     999900   -1    0    0    0    0 -0.00000000000E+00 -0.00000000000E+00 -0.74505805969E-08  0.93827000000E+00  0.93827000000E+00 0. -1.
     999902    2    1    2    0    0 -0.45083751283E-02  0.17802254496E-01  0.12142155903E-01  0.10219146040E+01  0.10216774345E+01 0.  0.
     999903    2    3    3    0    0 -0.21318873453E-01 -0.79775875808E-01 -0.97856242986E-01  0.12955608180E+00  0.19754728903E-01 0.  0.
         14    1    1    2    0    0  0.45083751283E-02 -0.17802254496E-01 -0.12142155903E-01  0.22015396009E-01  0.00000000000E+00 0.  1.
     999901    1    3    3    0    0  0.16810498325E-01  0.97578130304E-01  0.10999839889E+00  0.89235852219E+00  0.88000000000E+00 0.  1.
        -11    1    4    4    0    0 -0.93716782514E-02 -0.11274585769E-01 -0.23897418960E-01  0.28040905682E-01  0.51100000000E-03 0.  1.
         11    1    4    4    0    0 -0.11947195202E-01 -0.68501290038E-01 -0.73958824027E-01  0.10151517612E+00  0.51100000000E-03 0. -1.
</event>
<event>
 7    1  0.1143506E+005  0.1043930E+01  0.7957747E-01            NaN
         13   -1    0    0    0    0  0.00000000000E+00  0.00000000000E+00  0.74505805969E-08  0.10566000000E+00  0.10566000000E+00 0.  1.
     999900   -1    0    0    0    0 -0.00000000000E+00 -0.00000000000E+00 -0.74505805969E-08  0.93827000000E+00  0.93827000000E+00 0.  1.
     999903    2    1    2    0    0  0.15714968638E-01 -0.77889432382E-01  0.15284869987E-01  0.83335942025E-01  0.19938105893E-01 0.  0.
         14    1    1    2    0    0 -0.11902186723E-01 -0.35571703661E-01  0.59305035980E-01  0.70171899238E-01  0.00000000000E+00 0.  1.
     999901    1    1    2    0    0 -0.38127819156E-02  0.11346113604E+00 -0.74589905967E-01  0.89042215874E+00  0.88000000000E+00 0.  1.
        -11    1    3    3    0    0  0.11017972300E-01 -0.41673959691E-01 -0.15138168397E-02  0.43135454007E-01  0.51100000000E-03 0.  1.
         11    1    3    3    0    0  0.46969963385E-02 -0.36215472690E-01  0.16798686827E-01  0.40200488018E-01  0.51100000000E-03 0. -1.
</event>
<event>
 8    1  0.1143506E+005  0.1043930E+01  0.7957747E-01            NaN
         13   -1    0    0    0    0  0.00000000000E+00  0.00000000000E+00  0.74505805969E-08  0.10566000000E+00  0.10566000000E+00 0. -1.
     999900   -1    0    0    0    0 -0.00000000000E+00 -0.00000000000E+00 -0.74505805969E-08  0.93827000000E+00  0.93827000000E+00 0.  1.
     999902    2    1    2    0    0 -0.51883880163E-03  0.18527730707E-01 -0.13120412128E-01  0.10212211644E+01  0.10209686457E+01 0.  0.
     999903    2    3    3    0    0 -0.11016685568E-01  0.74415918229E-01  0.10579453161E+00  0.13140407191E+00  0.20382613842E-01 0.  0.
         14    1    1    2    0    0  0.51883880163E-03 -0.18527730707E-01  0.13120412128E-01  0.22708835577E-01  0.00000000000E+00 0.  1.
     999901    1    3    3    0    0  0.10497846766E-01 -0.55888187522E-01 -0.11891494374E+00  0.88981709252E+00  0.88000000000E+00 0.  1.
        -11    1    4    4    0    0 -0.12904991252E-01  0.64880211064E-01  0.10051334501E+00  0.12032944042E+00  0.51100000000E-03 0. -1.
         11    1    4    4    0    0  0.18883056848E-02  0.95357071647E-02  0.52811866070E-02  0.11074631482E-01  0.51100000000E-03 0.  1.
</event>
<event>
 8    1  0.1143506E+005  0.1043930E+01  0.7957747E-01            NaN
         13   -1    0    0    0    0  0.00000000000E+00  0.00000000000E+00  0.74505805969E-08  0.10566000000E+00  0.10566000000E+00 0.  1.
     999900   -1    0    0    0    0 -0.00000000000E+00 -0.00000000000E+00 -0.74505805969E-08  0.93827000000E+00  0.93827000000E+00 0.  1.
     999902    2    1    2    0    0  0.61184833838E-02  0.10292730091E-01 -0.19594291574E-01  0.10209667164E+01  0.10207084420E+01 0.  0.
     999903    2    3    3    0    0 -0.17533499625E-01 -0.11088369357E+00 -0.64799441430E-01  0.13119896719E+00  0.20287539834E-01 0.  0.
         14    1    1    2    0    0 -0.61184833838E-02 -0.10292730091E-01  0.19594291574E-01  0.22963283605E-01  0.00000000000E+00 0.  1.
     999901    1    3    3    0    0  0.23651983009E-01  0.12117642366E+00  0.45205149857E-01  0.88976774921E+00  0.88000000000E+00 0. -1.
        -11    1    4    4    0    0 -0.11696451551E-01 -0.23662331651E-01 -0.11358480002E-01  0.28740026218E-01  0.51100000000E-03 0.  1.
         11    1    4    4    0    0 -0.58370480746E-02 -0.87221361922E-01 -0.53440961428E-01  0.10245894097E+00  0.51100000000E-03 0. -1.
</event>
<event>
 8    1  0.1143506E+005  0.1043930E+01  0.7957747E-01            NaN
         13   -1    0    0    0    0  0.00000000000E+00  0.00000000000E+00  0.74505805969E-08  0.10566000000E+00  0.10566000000E+00 0. -1.
     999900   -1    0    0    0    0 -0.00000000000E+00 -0.00000000000E+00 -0.74505805969E-08  0.93827000000E+00  0.93827000000E+00 0. -1.
     999902    2    1    2    0    0 -0.77179876885E-02 -0.52350457992E-02 -0.19533958931E-01  0.10222840168E+01  0.10220548236E+01 0.  0.
     999903    2    3    3    0    0 -0.82196828627E-01  0.81871261541E-01 -0.63637595078E-01  0.13375729390E+00  0.19546049794E-01 0.  0.
         14    1    1    2    0    0  0.77179876885E-02  0.52350457992E-02  0.19533958931E-01  0.21645983230E-01  0.00000000000E+00 0. -1.
     999901    1    3    3    0    0  0.74478840939E-01 -0.87106307340E-01  0.44103636148E-01  0.88852672287E+00  0.88000000000E+00 0.  1.
        -11    1    4    4    0    0 -0.38298557206E-01  0.45522308454E-01 -0.41855643943E-01  0.72740745817E-01  0.51100000000E-03 0. -1.
         11    1    4    4    0    0 -0.43898271421E-01  0.36348953086E-01 -0.21781951135E-01  0.61016548087E-01  0.51100000000E-03 0.  1.
</event>
<event>
 8    1  0.1143506E+005  0.1043930E+01  0.7957747E-01            NaN
         13   -1    0    0    0    0  0.00000000000E+00  0.00000000000E+00  0.74505805969E-08  0.10566000000E+00  0.10566000000E+00 0. -1.
     999900   -1    0    0    0    0 -0.00000000000E+00 -0.00000000000E+00 -0.74505805969E-08  0.93827000000E+00  0.93827000000E+00 0.  1.
     999902    2    1    2    0    0 -0.14281975649E-01  0.16685663690E-01  0.28754247896E-02  0.10217792829E+01  0.10215391567E+01 0.  0.
     999903    2    3    3    0    0 -0.10703779540E+00 -0.58326071961E-01  0.47826131101E-01  0.13259371812E+00  0.20850298666E-01 0.  0.
         14    1    1    2    0    0  0.14281975649E-01 -0.16685663690E-01 -0.28754247896E-02  0.22150717120E-01  0.00000000000E+00 0. -1.
     999901    1    3    3    0    0  0.92755819748E-01  0.75011735651E-01 -0.44950706311E-01  0.88918556476E+00  0.88000000000E+00 0.  1.
        -11    1    4    4    0    0 -0.39733090092E-01 -0.10665011518E-01  0.17743952437E-01  0.44805913539E-01  0.51100000000E-03 0.  1.
         11    1    4    4    0    0 -0.67304705305E-01 -0.47661060442E-01  0.30082178663E-01  0.87787804579E-01  0.51100000000E-03 0. -1.
</event>
<event>
 7    1  0.1143506E+005  0.1043930E+01  0.7957747E-01            NaN
         13   -1    0    0    0    0  0.00000000000E+00  0.00000000000E+00  0.74505805969E-08  0.10566000000E+00  0.10566000000E+00 0.  1.
     999900   -1    0    0    0    0 -0.00000000000E+00 -0.00000000000E+00 -0.74505805969E-08  0.93827000000E+00  0.93827000000E+00 0.  1.
     999903    2    1    2    0    0 -0.80731816382E-01 -0.83240979166E-01 -0.86284944622E-01  0.14560541214E+00  0.17582877668E-01 0.  0.
         14    1    1    2    0    0  0.19073835052E-02  0.47525880220E-02  0.57095771558E-02  0.76697116009E-02  0.00000000000E+00 0.  1.
     999901    1    1    2    0    0  0.78824432876E-01  0.78488391144E-01  0.80575367466E-01  0.89065487626E+00  0.88000000000E+00 0. -1.
        -11    1    3    3    0    0 -0.23727267707E-01 -0.21184196306E-01 -0.33362973706E-01  0.46098834491E-01  0.51100000000E-03 0.  1.
         11    1    3    3    0    0 -0.57004548675E-01 -0.62056782861E-01 -0.52921970916E-01  0.99506577648E-01  0.51100000000E-03 0. -1.
</event>
<event>
 8    1  0.1143506E+005  0.1043930E+01  0.7957747E-01            NaN
         13   -1    0    0    0    0  0.00000000000E+00  0.00000000000E+00  0.74505805969E-08  0.10566000000E+00  0.10566000000E+00 0. -1.
     999900   -1    0    0    0    0 -0.00000000000E+00 -0.00000000000E+00 -0.74505805969E-08  0.93827000000E+00  0.93827000000E+00 0.  1.
     999902    2    1    2    0    0  0.11475475363E-01 -0.59973233383E-02  0.18885910935E-01  0.10210317019E+01  0.10207749038E+01 0.  0.
     999903    2    3    3    0    0 -0.23984723580E-01 -0.77832882560E-02  0.12949473013E+00  0.13339724663E+00  0.19750790768E-01 0.  0.
         14    1    1    2    0    0 -0.11475475363E-01  0.59973233383E-02 -0.18885910935E-01  0.22898298057E-01  0.00000000000E+00 0.  1.
     999901    1    3    3    0    0  0.35460198943E-01  0.17859649177E-02 -0.11060881919E+00  0.88763445532E+00  0.88000000000E+00 0.  1.
        -11    1    4    4    0    0 -0.40554491913E-02 -0.99815821681E-02  0.63925560928E-01  0.64829137830E-01  0.51100000000E-03 0.  1.
         11    1    4    4    0    0 -0.19929274388E-01  0.21982939121E-02  0.65569169199E-01  0.68568108799E-01  0.51100000000E-03 0. -1.
</event>
<event>
 8    1  0.1143506E+005  0.1043930E+01  0.7957747E-01            NaN
         13   -1    0    0    0    0  0.00000000000E+00  0.00000000000E+00  0.74505805969E-08  0.10566000000E+00  0.10566000000E+00 0. -1.
     999900   -1    0    0    0    0 -0.00000000000E+00 -0.00000000000E+00 -0.74505805969E-08  0.93827000000E+00  0.93827000000E+00 0.  1.
     999902    2    1    2    0    0 -0.18552801074E-01  0.23530776433E-02 -0.14238046953E-01  0.10204254178E+01  0.10201546785E+01 0.  0.
     999903    2    3    3    0    0  0.11782735334E+00  0.34216124218E-01  0.31120057241E-01  0.12819665912E+00  0.20295248055E-01 0.  0.
         14    1    1    2    0    0  0.18552801074E-01 -0.23530776433E-02  0.14238046953E-01  0.23504582173E-01  0.00000000000E+00 0. -1.
     999901    1    3    3    0    0 -0.13638015442E+00 -0.31863046574E-01 -0.45358104194E-01  0.89222875871E+00  0.88000000000E+00 0. -1.
        -11    1    4    4    0    0  0.39068325342E-01  0.11885220095E-01  0.20341605377E-01  0.45624933228E-01  0.51100000000E-03 0.  1.
         11    1    4    4    0    0  0.78759028001E-01  0.22330904123E-01  0.10778451864E-01  0.82571725888E-01  0.51100000000E-03 0. -1.
</event>
<event>
 8    1  0.1143506E+005  0.1043930E+01  0.7957747E-01            NaN
         13   -1    0    0    0    0  0.00000000000E+00  0.00000000000E+00  0.74505805969E-08  0.10566000000E+00  0.10566000000E+00 0. -1.
     999900   -1    0    0    0    0 -0.00000000000E+00 -0.00000000000E+00 -0.74505805969E-08  0.93827000000E+00  0.93827000000E+00 0.  1.
     999902    2    1    2    0    0 -0.13803500729E-01  0.42232314813E-02  0.18439960276E-01  0.10205119631E+01  0.10202432369E+01 0.  0.
     999903    2    3    3    0    0  0.11137926250E+00 -0.44744687469E-01  0.45670233466E-01  0.12988854715E+00  0.19438037004E-01 0.  0.
         14    1    1    2    0    0  0.13803500729E-01 -0.42232314813E-02 -0.18439960276E-01  0.23418036884E-01  0.00000000000E+00 0.  1.
     999901    1    3    3    0    0 -0.12518276323E+00  0.48967918951E-01 -0.27230273190E-01  0.89062341597E+00  0.88000000000E+00 0. -1.
        -11    1    4    4    0    0  0.80230809681E-01 -0.40020019429E-01  0.28946227415E-01  0.94216399739E-01  0.51100000000E-03 0.  1.
         11    1    4    4    0    0  0.31148452821E-01 -0.47246680406E-02  0.16724006051E-01  0.35672147407E-01  0.51100000000E-03 0. -1.
</event>
<event>
 8    1  0.1143506E+005  0.1043930E+01  0.7957747E-01            NaN
         13   -1    0    0    0    0  0.00000000000E+00  0.00000000000E+00  0.74505805969E-08  0.10566000000E+00  0.10566000000E+00 0.  1.
     999900   -1    0    0    0    0 -0.00000000000E+00 -0.00000000000E+00 -0.74505805969E-08  0.93827000000E+00  0.93827000000E+00 0. -1.
     999902    2    1    2    0    0  0.31141163744E-02 -0.12222164829E-02  0.23435506195E-01  0.10202569249E+01  0.10199822441E+01 0.  0.
     999903    2    3    3    0    0 -0.10355147462E+00 -0.12851872139E-01 -0.72321250632E-01  0.12858313160E+00  0.20375964375E-01 0.  0.
         14    1    1    2    0    0 -0.31141163744E-02  0.12222164829E-02 -0.23435506195E-01  0.23673075097E-01  0.00000000000E+00 0. -1.
     999901    1    3    3    0    0  0.10666559100E+00  0.11629655657E-01  0.95756756827E-01  0.89167379331E+00  0.88000000000E+00 0.  1.
        -11    1    4    4    0    0 -0.73109382434E-01 -0.91195277056E-02 -0.39265202417E-01  0.83487513002E-01  0.51100000000E-03 0.  1.
         11    1    4    4    0    0 -0.30442092188E-01 -0.37323444339E-02 -0.33056048216E-01  0.45095618594E-01  0.51100000000E-03 0. -1.
</event>
<event>
 8    1  0.1143506E+005  0.1043930E+01  0.7957747E-01            NaN
         13   -1    0    0    0    0  0.00000000000E+00  0.00000000000E+00  0.74505805969E-08  0.10566000000E+00  0.10566000000E+00 0. -1.
     999900   -1    0    0    0    0 -0.00000000000E+00 -0.00000000000E+00 -0.74505805969E-08  0.93827000000E+00  0.93827000000E+00 0.  1.
     999902    2    1    2    0    0  0.11858563727E-01 -0.15699608060E-01  0.13222887522E-01  0.10202245580E+01  0.10199491167E+01 0.  0.
     999903    2    3    3    0    0 -0.55254202032E-01 -0.52267239012E-01  0.10595482178E+00  0.13205761050E+00  0.20685674224E-01 0.  0.
         14    1    1    2    0    0 -0.11858563727E-01  0.15699608060E-01 -0.13222887522E-01  0.23705442019E-01  0.00000000000E+00 0.  1.
     999901    1    3    3    0    0  0.67112765759E-01  0.36567630952E-01 -0.92731934254E-01  0.88816694748E+00  0.88000000000E+00 0.  1.
        -11    1    4    4    0    0 -0.47227866335E-01 -0.32426549999E-01  0.73789348827E-01  0.93418850478E-01  0.51100000000E-03 0.  1.
         11    1    4    4    0    0 -0.80263356972E-02 -0.19840689013E-01  0.32165472949E-01  0.38638760025E-01  0.51100000000E-03 0. -1.
</event>
<event>
 8    1  0.1143506E+005  0.1043930E+01  0.7957747E-01            NaN
         13   -1    0    0    0    0  0.00000000000E+00  0.00000000000E+00  0.74505805969E-08  0.10566000000E+00  0.10566000000E+00 0. -1.
     999900   -1    0    0    0    0 -0.00000000000E+00 -0.00000000000E+00 -0.74505805969E-08  0.93827000000E+00  0.93827000000E+00 0.  1.
     999902    2    1    2    0    0 -0.67032484683E-02  0.23440468759E-01  0.21967163997E-01  0.10111131536E+01  0.10105804589E+01 0.  0.
     999903    2    3    3    0    0 -0.10906484767E+00  0.21113452697E-01 -0.47450828953E-01  0.12246127024E+00  0.20106284035E-01 0.  0.
         14    1    1    2    0    0  0.67032484683E-02 -0.23440468759E-01 -0.21967163997E-01  0.32816846432E-01  0.00000000000E+00 0.  1.
     999901    1    3    3    0    0  0.10236159921E+00  0.23270160618E-02  0.69417992950E-01  0.88865188333E+00  0.88000000000E+00 0. -1.
        -11    1    4    4    0    0 -0.47778990892E-01 -0.64647146627E-03 -0.22266760324E-01  0.52719252957E-01  0.51100000000E-03 0. -1.
         11    1    4    4    0    0 -0.61285856782E-01  0.21759924163E-01 -0.25184068629E-01  0.69742017284E-01  0.51100000000E-03 0.  1.
</event>
<event>
 8    1  0.1143506E+005  0.1043930E+01  0.7957747E-01            NaN
         13   -1    0    0    0    0  0.00000000000E+00  0.00000000000E+00  0.74505805969E-08  0.10566000000E+00  0.10566000000E+00 0.  1.
     999900   -1    0    0    0    0 -0.00000000000E+00 -0.00000000000E+00 -0.74505805969E-08  0.93827000000E+00  0.93827000000E+00 0. -1.
     999902    2    1    2    0    0 -0.50276848934E-02  0.41385108534E-02  0.22660659946E-01  0.10203522478E+01  0.10200798005E+01 0.  0.
     999903    2    3    3    0    0 -0.20039663225E-02 -0.52819774643E-01 -0.11517966192E+00  0.12779785539E+00  0.16492205661E-01 0.  0.
         14    1    1    2    0    0  0.50276848934E-02 -0.41385108534E-02 -0.22660659946E-01  0.23577752155E-01  0.00000000000E+00 0. -1.
     999901    1    3    3    0    0 -0.30237185709E-02  0.56958285496E-01  0.13784032187E+00  0.89255439246E+00  0.88000000000E+00 0.  1.
        -11    1    4    4    0    0  0.48469629730E-02 -0.34502991102E-01 -0.61806278802E-01  0.70952284427E-01  0.51100000000E-03 0. -1.
         11    1    4    4    0    0 -0.68509292956E-02 -0.18316783541E-01 -0.53373383118E-01  0.56845570962E-01  0.51100000000E-03 0.  1.
</event>
<event>
 8    1  0.1143506E+005  0.1043930E+01  0.7957747E-01            NaN
         13   -1    0    0    0    0  0.00000000000E+00  0.00000000000E+00  0.74505805969E-08  0.10566000000E+00  0.10566000000E+00 0.  1.
     999900   -1    0    0    0    0 -0.00000000000E+00 -0.00000000000E+00 -0.74505805969E-08  0.93827000000E+00  0.93827000000E+00 0. -1.
     999902    2    1    2    0    0  0.64669728922E-02  0.14016212133E-01 -0.20359185607E-01  0.10183805894E+01  0.10180600437E+01 0.  0.
     999903    2    3    3    0    0 -0.17948290418E-01 -0.12351717579E+00  0.11035706005E-01  0.12681052653E+00  0.19506126928E-01 0.  0.
         14    1    1    2    0    0 -0.64669728922E-02 -0.14016212133E-01  0.20359185607E-01  0.25549410552E-01  0.00000000000E+00 0.  1.
     999901    1    3    3    0    0  0.24415263310E-01  0.13753338792E+00 -0.31394891612E-01  0.89157006292E+00  0.88000000000E+00 0. -1.
        -11    1    4    4    0    0  0.24938636063E-02 -0.13329878878E-01  0.53829707602E-02  0.14599401419E-01  0.51100000000E-03 0.  1.
         11    1    4    4    0    0 -0.20442154024E-01 -0.11018729691E+00  0.56527352445E-02  0.11221112511E+00  0.51100000000E-03 0. -1.
</event>
<event>
 8    1  0.1143506E+005  0.1043930E+01  0.7957747E-01            NaN
         13   -1    0    0    0    0  0.00000000000E+00  0.00000000000E+00  0.74505805969E-08  0.10566000000E+00  0.10566000000E+00 0. -1.
     999900   -1    0    0    0    0 -0.00000000000E+00 -0.00000000000E+00 -0.74505805969E-08  0.93827000000E+00  0.93827000000E+00 0. -1.
     999902    2    1    2    0    0  0.16238496814E-01  0.13811202734E-02 -0.17499676480E-01  0.10200169293E+01  0.10197365842E+01 0.  0.
     999903    2    3    3    0    0  0.43348896601E-01 -0.12000759446E+00 -0.23620217914E-01  0.13124943731E+00  0.19686303248E-01 0.  0.
         14    1    1    2    0    0 -0.16238496814E-01 -0.13811202734E-02  0.17499676480E-01  0.23913070670E-01  0.00000000000E+00 0. -1.
     999901    1    3    3    0    0 -0.27110399787E-01  0.12138871473E+00  0.61205414344E-02  0.88876749202E+00  0.88000000000E+00 0.  1.
        -11    1    4    4    0    0  0.39959691577E-01 -0.98736995100E-01 -0.25790153163E-01  0.10959545736E+00  0.51100000000E-03 0.  1.
         11    1    4    4    0    0  0.33892050236E-02 -0.21270599360E-01  0.21699352489E-02  0.21653979953E-01  0.51100000000E-03 0. -1.
</event>
<event>
 8    1  0.1143506E+005  0.1043930E+01  0.7957747E-01            NaN
         13   -1    0    0    0    0  0.00000000000E+00  0.00000000000E+00  0.74505805969E-08  0.10566000000E+00  0.10566000000E+00 0.  1.
     999900   -1    0    0    0    0 -0.00000000000E+00 -0.00000000000E+00 -0.74505805969E-08  0.93827000000E+00  0.93827000000E+00 0. -1.
     999902    2    1    2    0    0 -0.11230359245E-01 -0.19980667679E-01 -0.44385420647E-02  0.10205837218E+01  0.10203166589E+01 0.  0.
     999903    2    3    3    0    0 -0.27075416862E-01 -0.12554515362E+00 -0.31331421958E-01  0.13372513470E+00  0.20151671197E-01 0.  0.
         14    1    1    2    0    0  0.11230359245E-01  0.19980667679E-01  0.44385420647E-02  0.23346278190E-01  0.00000000000E+00 0. -1.
     999901    1    3    3    0    0  0.15845057616E-01  0.10556448594E+00  0.26892879893E-01  0.88685858711E+00  0.88000000000E+00 0. -1.
        -11    1    4    4    0    0 -0.28799119963E-01 -0.10004644070E+00 -0.28904390460E-01  0.10804815832E+00  0.51100000000E-03 0.  1.
         11    1    4    4    0    0  0.17237031011E-02 -0.25498712927E-01 -0.24270314981E-02  0.25676976384E-01  0.51100000000E-03 0. -1.
</event>
<event>
 8    1  0.1143506E+005  0.1043930E+01  0.7957747E-01            NaN
         13   -1    0    0    0    0  0.00000000000E+00  0.00000000000E+00  0.74505805969E-08  0.10566000000E+00  0.10566000000E+00 0.  1.
     999900   -1    0    0    0    0 -0.00000000000E+00 -0.00000000000E+00 -0.74505805969E-08  0.93827000000E+00  0.93827000000E+00 0. -1.
     999902    2    1    2    0    0 -0.66103678544E-02  0.11973377540E-01 -0.18594977998E-01  0.10208468473E+01  0.10205858385E+01 0.  0.
     999903    2    3    3    0    0 -0.69866891055E-01  0.10925054900E+00 -0.23281885351E-01  0.13321730579E+00  0.19691100916E-01 0.  0.
         14    1    1    2    0    0  0.66103678544E-02 -0.11973377540E-01  0.18594977998E-01  0.23083152723E-01  0.00000000000E+00 0.  1.
     999901    1    3    3    0    0  0.63256523201E-01 -0.97277171458E-01  0.46869073529E-02  0.88762954148E+00  0.88000000000E+00 0.  1.
        -11    1    4    4    0    0 -0.42911243481E-01  0.69411693987E-01 -0.50107791294E-02  0.81760180452E-01  0.51100000000E-03 0. -1.
         11    1    4    4    0    0 -0.26955647574E-01  0.39838855011E-01 -0.18271106222E-01  0.51457125341E-01  0.51100000000E-03 0.  1.
</event>
<event>
 8    1  0.1143506E+005  0.1043930E+01  0.7957747E-01            NaN
         13   -1    0    0    0    0  0.00000000000E+00  0.00000000000E+00  0.74505805969E-08  0.10566000000E+00  0.10566000000E+00 0.  1.
     999900   -1    0    0    0    0 -0.00000000000E+00 -0.00000000000E+00 -0.74505805969E-08  0.93827000000E+00  0.93827000000E+00 0.  1.
     999902    2    1    2    0    0 -0.15531083431E-01  0.16689483666E-01  0.65641861495E-02  0.10202057095E+01  0.10199298250E+01 0.  0.
     999903    2    3    3    0    0 -0.10730911649E+00 -0.57932235842E-02 -0.73470679802E-01  0.13153577125E+00  0.18839065926E-01 0.  0.
         14    1    1    2    0    0  0.15531083431E-01 -0.16689483666E-01 -0.65641861495E-02  0.23724290451E-01  0.00000000000E+00 0. -1.
     999901    1    3    3    0    0  0.91778033060E-01  0.22482707250E-01  0.80034865952E-01  0.88866993830E+00  0.88000000000E+00 0. -1.
        -11    1    4    4    0    0 -0.62859877357E-01  0.54827551492E-02 -0.39202736630E-01  0.74286879499E-01  0.51100000000E-03 0. -1.
         11    1    4    4    0    0 -0.44449239134E-01 -0.11275978733E-01 -0.34267943172E-01  0.57248891747E-01  0.51100000000E-03 0.  1.
</event>
<event>
 8    1  0.1143506E+005  0.1043930E+01  0.7957747E-01            NaN
         13   -1    0    0    0    0  0.00000000000E+00  0.00000000000E+00  0.74505805969E-08  0.10566000000E+00  0.10566000000E+00 0. -1.
     999900   -1    0    0    0    0 -0.00000000000E+00 -0.00000000000E+00 -0.74505805969E-08  0.93827000000E+00  0.93827000000E+00 0. -1.
     999902    2    1    2    0    0 -0.10053838686E-01  0.18634672490E-01 -0.31528768844E-02  0.10225227273E+01  0.10222986142E+01 0.  0.
     999903    2    3    3    0    0  0.22601642983E-01 -0.10732112297E+00 -0.67997175129E-01  0.13059446456E+00  0.20065907569E-01 0.  0.
         14    1    1    2    0    0  0.10053838686E-01 -0.18634672490E-01  0.31528768844E-02  0.21407272684E-01  0.00000000000E+00 0. -1.
     999901    1    3    3    0    0 -0.32655481669E-01  0.12595579546E+00  0.64844298245E-01  0.89192826276E+00  0.88000000000E+00 0.  1.
        -11    1    4    4    0    0  0.22380610798E-01 -0.73640714976E-01 -0.39713605554E-01  0.86609919922E-01  0.51100000000E-03 0.  1.
         11    1    4    4    0    0  0.22103218525E-03 -0.33680407992E-01 -0.28283569576E-01  0.43984544635E-01  0.51100000000E-03 0. -1.
</event>
<event>
 8    1  0.1143506E+005  0.1043930E+01  0.7957747E-01            NaN
         13   -1    0    0    0    0  0.00000000000E+00  0.00000000000E+00  0.74505805969E-08  0.10566000000E+00  0.10566000000E+00 0. -1.
     999900   -1    0    0    0    0 -0.00000000000E+00 -0.00000000000E+00 -0.74505805969E-08  0.93827000000E+00  0.93827000000E+00 0. -1.
     999902    2    1    2    0    0 -0.14685683442E-01 -0.15817150071E-01 -0.22524070116E-03  0.10223452307E+01  0.10221173457E+01 0.  0.
     999903    2    3    3    0    0  0.15427062479E-01 -0.11468738821E+00 -0.64403402242E-01  0.13397541021E+00  0.20258851121E-01 0.  0.
         14    1    1    2    0    0  0.14685683442E-01  0.15817150071E-01  0.22524070116E-03  0.21584769350E-01  0.00000000000E+00 0.  1.
     999901    1    3    3    0    0 -0.30112745921E-01  0.98870238139E-01  0.64178161540E-01  0.88836982044E+00  0.88000000000E+00 0.  1.
        -11    1    4    4    0    0  0.17219358823E-01 -0.80327123170E-01 -0.37558239337E-01  0.90331807788E-01  0.51100000000E-03 0. -1.
         11    1    4    4    0    0 -0.17922963438E-02 -0.34360265039E-01 -0.26845162904E-01  0.43643602419E-01  0.51100000000E-03 0.  1.
</event>
<event>
 8    1  0.1143506E+005  0.1043930E+01  0.7957747E-01            NaN
         13   -1    0    0    0    0  0.00000000000E+00  0.00000000000E+00  0.74505805969E-08  0.10566000000E+00  0.10566000000E+00 0. -1.
     999900   -1    0    0    0    0 -0.00000000000E+00 -0.00000000000E+00 -0.74505805969E-08  0.93827000000E+00  0.93827000000E+00 0.  1.
     999902    2    1    2    0    0 -0.12881616218E-01  0.43315616546E-02  0.20219469119E-01  0.10195676234E+01  0.10192765146E+01 0.  0.
     999903    2    3    3    0    0  0.68787230461E-01  0.26325949561E-01 -0.10175312800E+00  0.12713786813E+00  0.19636694217E-01 0.  0.
         14    1    1    2    0    0  0.12881616218E-01 -0.43315616546E-02 -0.20219469119E-01  0.24362376613E-01  0.00000000000E+00 0.  1.
     999901    1    3    3    0    0 -0.81668846678E-01 -0.21994387907E-01  0.12197259712E+00  0.89242975526E+00  0.88000000000E+00 0. -1.
        -11    1    4    4    0    0  0.31073451402E-01  0.17566604026E-01 -0.35163342300E-01  0.50108549388E-01  0.51100000000E-03 0.  1.
         11    1    4    4    0    0  0.37713779058E-01  0.87593455355E-02 -0.66589785703E-01  0.77029318743E-01  0.51100000000E-03 0. -1.
</event>
<event>
 8    1  0.1143506E+005  0.1043930E+01  0.7957747E-01            NaN
         13   -1    0    0    0    0  0.00000000000E+00  0.00000000000E+00  0.74505805969E-08  0.10566000000E+00  0.10566000000E+00 0. -1.
     999900   -1    0    0    0    0 -0.00000000000E+00 -0.00000000000E+00 -0.74505805969E-08  0.93827000000E+00  0.93827000000E+00 0.  1.
     999902    2    1    2    0    0  0.14093364110E-01 -0.15062946630E-01 -0.11480406411E-01  0.10203224799E+01  0.10200493361E+01 0.  0.
     999903    2    3    3    0    0 -0.64402546517E-01 -0.11269108773E+00 -0.25862397301E-02  0.13140630382E+00  0.20345977419E-01 0.  0.
         14    1    1    2    0    0 -0.14093364110E-01  0.15062946630E-01  0.11480406411E-01  0.23607520083E-01  0.00000000000E+00 0. -1.
     999901    1    3    3    0    0  0.78495910627E-01  0.97628141099E-01 -0.88941666806E-02  0.88891617609E+00  0.88000000000E+00 0. -1.
        -11    1    4    4    0    0 -0.28757099630E-01 -0.62448025219E-01  0.68056874890E-02  0.69089110112E-01  0.51100000000E-03 0.  1.
         11    1    4    4    0    0 -0.35645446887E-01 -0.50243062510E-01 -0.93919272190E-02  0.62317193711E-01  0.51100000000E-03 0. -1.
</event>
<event>
 8    1  0.1143506E+005  0.1043930E+01  0.7957747E-01            NaN
         13   -1    0    0    0    0  0.00000000000E+00  0.00000000000E+00  0.74505805969E-08  0.10566000000E+00  0.10566000000E+00 0.  1.
     999900   -1    0    0    0    0 -0.00000000000E+00 -0.00000000000E+00 -0.74505805969E-08  0.93827000000E+00  0.93827000000E+00 0.  1.
     999902    2    1    2    0    0  0.14968492956E-01  0.13760750987E-02 -0.18117302185E-01  0.10203888445E+01  0.10201172521E+01 0.  0.
     999903    2    3    3    0    0 -0.76551404355E-01  0.93685258909E-01 -0.44432212334E-01  0.13045100874E+00  0.20154377729E-01 0.  0.
         14    1    1    2    0    0 -0.14968492956E-01 -0.13760750987E-02  0.18117302185E-01  0.23541155505E-01  0.00000000000E+00 0.  1.
     999901    1    3    3    0    0  0.91519897312E-01 -0.92309183810E-01  0.26314910149E-01  0.88993783576E+00  0.88000000000E+00 0. -1.
        -11    1    4    4    0    0 -0.59667415366E-01  0.68235338589E-01 -0.24224554666E-01  0.93826180027E-01  0.51100000000E-03 0. -1.
         11    1    4    4    0    0 -0.16883988990E-01  0.25449920321E-01 -0.20207657668E-01  0.36624828709E-01  0.51100000000E-03 0.  1.
</event>
<event>
 8    1  0.1143506E+005  0.1043930E+01  0.7957747E-01            NaN
         13   -1    0    0    0    0  0.00000000000E+00  0.00000000000E+00  0.74505805969E-08  0.10566000000E+00  0.10566000000E+00 0.  1.
     999900   -1    0    0    0    0 -0.00000000000E+00 -0.00000000000E+00 -0.74505805969E-08  0.93827000000E+00  0.93827000000E+00 0.  1.
     999902    2    1    2    0    0 -0.14872672907E-01 -0.96806172895E-02 -0.15124857686E-01  0.10206132234E+01  0.10203468429E+01 0.  0.
     999903    2    3    3    0    0 -0.68244883113E-01 -0.21564933018E-01 -0.11071681516E+00  0.13374928113E+00  0.22544326047E-01 0.  0.
         14    1    1    2    0    0  0.14872672907E-01  0.96806172895E-02  0.15124857686E-01  0.23316776590E-01  0.00000000000E+00 0. -1.
     999901    1    3    3    0    0  0.53372210207E-01  0.11884315729E-01  0.95591957472E-01  0.88686394228E+00  0.88000000000E+00 0. -1.
        -11    1    4    4    0    0 -0.29662620473E-01 -0.19847538111E-01 -0.62451932607E-01  0.71932613116E-01  0.51100000000E-03 0.  1.
         11    1    4    4    0    0 -0.38582262640E-01 -0.17173949075E-02 -0.48264882552E-01  0.61816668015E-01  0.51100000000E-03 0. -1.
</event>
<event>
 8    1  0.1143506E+005  0.1043930E+01  0.7957747E-01            NaN
         13   -1    0    0    0    0  0.00000000000E+00  0.00000000000E+00  0.74505805969E-08  0.10566000000E+00  0.10566000000E+00 0. -1.
     999900   -1    0    0    0    0 -0.00000000000E+00 -0.00000000000E+00 -0.74505805969E-08  0.93827000000E+00  0.93827000000E+00 0. -1.
     999902    2    1    2    0    0  0.47981300326E-02  0.23279087000E-01 -0.75617424765E-03  0.10201495512E+01  0.10198723436E+01 0.  0.
     999903    2    3    3    0    0  0.14649557909E-01 -0.46921484498E-01  0.11800155173E+00  0.12934734629E+00  0.19751823386E-01 0.  0.
         14    1    1    2    0    0 -0.47981300326E-02 -0.23279087000E-01  0.75617424765E-03  0.23780448752E-01  0.00000000000E+00 0. -1.
     999901    1    3    3    0    0 -0.98514278765E-02  0.70200571498E-01 -0.11875772598E+00  0.89080220495E+00  0.88000000000E+00 0. -1.
        -11    1    4    4    0    0  0.72352482000E-02 -0.57199008989E-02  0.37366528515E-01  0.38491358213E-01  0.51100000000E-03 0. -1.
         11    1    4    4    0    0  0.74143097090E-02 -0.41201583599E-01  0.80635023219E-01  0.90855988081E-01  0.51100000000E-03 0.  1.
</event>
<event>
 8    1  0.1143506E+005  0.1043930E+01  0.7957747E-01            NaN
         13   -1    0    0    0    0  0.00000000000E+00  0.00000000000E+00  0.74505805969E-08  0.10566000000E+00  0.10566000000E+00 0. -1.
     999900   -1    0    0    0    0 -0.00000000000E+00 -0.00000000000E+00 -0.74505805969E-08  0.93827000000E+00  0.93827000000E+00 0. -1.
     999902    2    1    2    0    0  0.15031742462E-01  0.17155796652E-01 -0.62826392680E-02  0.10202710441E+01  0.10199966947E+01 0.  0.
     999903    2    3    3    0    0  0.24006502466E-01 -0.96516848003E-02  0.12579623847E+00  0.12996546880E+00  0.19921402774E-01 0.  0.
         14    1    1    2    0    0 -0.15031742462E-01 -0.17155796652E-01  0.62826392680E-02  0.23658955945E-01  0.00000000000E+00 0. -1.
     999901    1    3    3    0    0 -0.89747600031E-02  0.26807481452E-01 -0.13207887774E+00  0.89030557525E+00  0.88000000000E+00 0. -1.
        -11    1    4    4    0    0  0.13569084128E-01 -0.15454069504E-01  0.85018985328E-01  0.87472494508E-01  0.51100000000E-03 0. -1.
         11    1    4    4    0    0  0.10437418338E-01  0.58023847037E-02  0.40777253141E-01  0.42492974296E-01  0.51100000000E-03 0.  1.
</event>
<event>
 8    1  0.1143506E+005  0.1043930E+01  0.7957747E-01            NaN
         13   -1    0    0    0    0  0.00000000000E+00  0.00000000000E+00  0.74505805969E-08  0.10566000000E+00  0.10566000000E+00 0.  1.
     999900   -1    0    0    0    0 -0.00000000000E+00 -0.00000000000E+00 -0.74505805969E-08  0.93827000000E+00  0.93827000000E+00 0. -1.
     999902    2    1    2    0    0  0.12575467539E-01 -0.19454549177E-01  0.12432008166E-01  0.10176397605E+01  0.10173001059E+01 0.  0.
     999903    2    3    3    0    0  0.22379417063E-01 -0.52903528638E-01  0.11590503543E+00  0.13089198403E+00  0.19977802563E-01 0.  0.
         14    1    1    2    0    0 -0.12575467539E-01  0.19454549177E-01 -0.12432008166E-01  0.26290239530E-01  0.00000000000E+00 0. -1.
     999901    1    3    3    0    0 -0.98039495235E-02  0.33448979462E-01 -0.10347302726E+00  0.88674777644E+00  0.88000000000E+00 0. -1.
        -11    1    4    4    0    0  0.94352009016E-02 -0.25592484748E-01  0.76564408134E-01  0.81279566962E-01  0.51100000000E-03 0. -1.
         11    1    4    4    0    0  0.12944216161E-01 -0.27311043890E-01  0.39340627292E-01  0.49612417067E-01  0.51100000000E-03 0.  1.
</event>
<event>
 8    1  0.1143506E+005  0.1043930E+01  0.7957747E-01            NaN
         13   -1    0    0    0    0  0.00000000000E+00  0.00000000000E+00  0.74505805969E-08  0.10566000000E+00  0.10566000000E+00 0. -1.
     999900   -1    0    0    0    0 -0.00000000000E+00 -0.00000000000E+00 -0.74505805969E-08  0.93827000000E+00  0.93827000000E+00 0. -1.
     999902    2    1    2    0    0  0.21551913528E-01  0.75656110575E-02  0.54587795616E-02  0.10204455004E+01  0.10201752288E+01 0.  0.
     999903    2    3    3    0    0  0.11552043939E+00  0.19991447126E-01 -0.59365878776E-01  0.13298467220E+00  0.20395725089E-01 0.  0.
         14    1    1    2    0    0 -0.21551913528E-01 -0.75656110575E-02 -0.54587795616E-02  0.23484499605E-01  0.00000000000E+00 0.  1.
     999901    1    3    3    0    0 -0.93968525862E-01 -0.12425836068E-01  0.64824658337E-01  0.88746082820E+00  0.88000000000E+00 0.  1.
        -11    1    4    4    0    0  0.38414653237E-01  0.11802124496E-01 -0.11276399712E-01  0.41741993692E-01  0.51100000000E-03 0. -1.
         11    1    4    4    0    0  0.77105786153E-01  0.81893226297E-02 -0.48089479064E-01  0.91242678506E-01  0.51100000000E-03 0.  1.
</event>
<event>
 8    1  0.1143506E+005  0.1043930E+01  0.7957747E-01            NaN
         13   -1    0    0    0    0  0.00000000000E+00  0.00000000000E+00  0.74505805969E-08  0.10566000000E+00  0.10566000000E+00 0.  1.
     999900   -1    0    0    0    0 -0.00000000000E+00 -0.00000000000E+00 -0.74505805969E-08  0.93827000000E+00  0.93827000000E+00 0. -1.
     999902    2    1    2    0    0  0.64215159018E-02 -0.23546439792E-01 -0.49302400456E-02  0.10190306434E+01  0.10187263981E+01 0.  0.
     999903    2    3    3    0    0 -0.11653917048E+00 -0.24197191134E-01  0.43977428552E-01  0.12913642836E+00  0.23985841481E-01 0.  0.
         14    1    1    2    0    0 -0.64215159018E-02  0.23546439792E-01  0.49302400456E-02  0.24899356623E-01  0.00000000000E+00 0.  1.
     999901    1    3    3    0    0  0.12296068639E+00  0.65075134234E-03 -0.48907668598E-01  0.88989421502E+00  0.88000000000E+00 0. -1.
        -11    1    4    4    0    0 -0.30444899844E-01 -0.14528365179E-01  0.48900666780E-02  0.34090162722E-01  0.51100000000E-03 0. -1.
         11    1    4    4    0    0 -0.86094270640E-01 -0.96688259547E-02  0.39087361874E-01  0.95046265638E-01  0.51100000000E-03 0.  1.
</event>
<event>
 8    1  0.1143506E+005  0.1043930E+01  0.7957747E-01            NaN
         13   -1    0    0    0    0  0.00000000000E+00  0.00000000000E+00  0.74505805969E-08  0.10566000000E+00  0.10566000000E+00 0. -1.
     999900   -1    0    0    0    0 -0.00000000000E+00 -0.00000000000E+00 -0.74505805969E-08  0.93827000000E+00  0.93827000000E+00 0. -1.
     999902    2    1    2    0    0 -0.59023034256E-03 -0.23350940892E-01 -0.61685498976E-02  0.10197708233E+01  0.10194846081E+01 0.  0.
     999903    2    3    3    0    0  0.60009525360E-01 -0.55400535702E-01  0.10001869377E+00  0.13074031894E+00  0.20467764939E-01 0.  0.
         14    1    1    2    0    0  0.59023034256E-03  0.23350940892E-01  0.61685498976E-02  0.24159176729E-01  0.00000000000E+00 0. -1.
     999901    1    3    3    0    0 -0.60599755703E-01  0.32049594810E-01 -0.10618724367E+00  0.88903050433E+00  0.88000000000E+00 0. -1.
        -11    1    4    4    0    0  0.58891682756E-02 -0.17718822409E-02  0.17900746798E-02  0.64255239486E-02  0.51100000000E-03 0.  1.
         11    1    4    4    0    0  0.54120357084E-01 -0.53628653461E-01  0.98228619093E-01  0.12431479499E+00  0.51100000000E-03 0. -1.
</event>
<event>
 8    1  0.1143506E+005  0.1043930E+01  0.7957747E-01            NaN
         13   -1    0    0    0    0  0.00000000000E+00  0.00000000000E+00  0.74505805969E-08  0.10566000000E+00  0.10566000000E+00 0. -1.
     999900   -1    0    0    0    0 -0.00000000000E+00 -0.00000000000E+00 -0.74505805969E-08  0.93827000000E+00  0.93827000000E+00 0.  1.
     999902    2    1    2    0    0 -0.10535419271E-01 -0.56109205240E-02  0.19895242822E-01  0.10207287463E+01  0.10204650289E+01 0.  0.
     999903    2    3    3    0    0  0.97976137722E-01 -0.55305063087E-01  0.64985261164E-01  0.13152833265E+00  0.20460805332E-01 0.  0.
         14    1    1    2    0    0  0.10535419271E-01  0.56109205240E-02 -0.19895242822E-01  0.23201253744E-01  0.00000000000E+00 0.  1.
     999901    1    3    3    0    0 -0.10851155699E+00  0.49694142563E-01 -0.45090018342E-01  0.88920041361E+00  0.88000000000E+00 0.  1.
        -11    1    4    4    0    0  0.71665159963E-01 -0.50320982444E-01  0.49846466538E-01  0.10076223387E+00  0.51100000000E-03 0.  1.
         11    1    4    4    0    0  0.26310977759E-01 -0.49840806431E-02  0.15138794626E-01  0.30766098781E-01  0.51100000000E-03 0. -1.
</event>
<event>
 8    1  0.1143506E+005  0.1043930E+01  0.7957747E-01            NaN
         13   -1    0    0    0    0  0.00000000000E+00  0.00000000000E+00  0.74505805969E-08  0.10566000000E+00  0.10566000000E+00 0. -1.
     999900   -1    0    0    0    0 -0.00000000000E+00 -0.00000000000E+00 -0.74505805969E-08  0.93827000000E+00  0.93827000000E+00 0.  1.
     999902    2    1    2    0    0 -0.27782094917E-02  0.19997573987E-02  0.23528856033E-01  0.10201534455E+01  0.10198763297E+01 0.  0.
     999903    2    3    3    0    0 -0.82403589911E-01 -0.58844271495E-01 -0.77429201320E-01  0.12873057929E+00  0.17980014168E-01 0.  0.
         14    1    1    2    0    0  0.27782094917E-02 -0.19997573987E-02 -0.23528856033E-01  0.23776554499E-01  0.00000000000E+00 0.  1.
     999901    1    3    3    0    0  0.79625380419E-01  0.60844028893E-01  0.10095805735E+00  0.89142286621E+00  0.88000000000E+00 0. -1.
        -11    1    4    4    0    0 -0.47504336419E-01 -0.30018302793E-01 -0.32334776158E-01  0.64834862160E-01  0.51100000000E-03 0.  1.
         11    1    4    4    0    0 -0.34899253492E-01 -0.28825968702E-01 -0.45094425162E-01  0.63895717130E-01  0.51100000000E-03 0. -1.
</event>
<event>
 8    1  0.1652751E+005  0.1043930E+01  0.7957747E-01            NaN
         13   -1    0    0    0    0  0.00000000000E+00  0.00000000000E+00  0.74505805969E-08  0.10566000000E+00  0.10566000000E+00 0.  1.
     999900   -1    0    0    0    0 -0.00000000000E+00 -0.00000000000E+00 -0.74505805969E-08  0.93827000000E+00  0.93827000000E+00 0. -1.
     999902    2    1    2    0    0 -0.64239199065E-03  0.21940242552E-01 -0.83660546772E-02  0.10204400493E+01  0.10201696509E+01 0.  0.
     999903    2    3    3    0    0  0.56134016046E-01 -0.65072132436E-01  0.93520212679E-01  0.12848964412E+00  0.19446035319E-01 0.  0.
         14    1    1    2    0    0  0.64239199065E-03 -0.21940242552E-01  0.83660546772E-02  0.23489950651E-01  0.00000000000E+00 0.  1.
     999901    1    3    3    0    0 -0.56776408036E-01  0.87012374989E-01 -0.10188626736E+00  0.89195040523E+00  0.88000000000E+00 0. -1.
        -11    1    4    4    0    0  0.41754245744E-01 -0.36570469075E-01  0.51525629800E-01  0.75736172952E-01  0.51100000000E-03 0.  1.
         11    1    4    4    0    0  0.14379770301E-01 -0.28501663362E-01  0.41994582878E-01  0.52753471169E-01  0.51100000000E-03 0. -1.
</event>
<event>
 8    1  0.1143506E+005  0.1043930E+01  0.7957747E-01            NaN
         13   -1    0    0    0    0  0.00000000000E+00  0.00000000000E+00  0.74505805969E-08  0.10566000000E+00  0.10566000000E+00 0.  1.
     999900   -1    0    0    0    0 -0.00000000000E+00 -0.00000000000E+00 -0.74505805969E-08  0.93827000000E+00  0.93827000000E+00 0.  1.
     999902    2    1    2    0    0  0.20506337730E-01  0.13832991781E-01 -0.44286041280E-02  0.10188008519E+01  0.10184908943E+01 0.  0.
     999903    2    3    3    0    0  0.51698770798E-01  0.11894222712E+00  0.12006318600E-01  0.13184480683E+00  0.20466682892E-01 0.  0.
         14    1    1    2    0    0 -0.20506337730E-01 -0.13832991781E-01  0.44286041280E-02  0.25129148080E-01  0.00000000000E+00 0.  1.
     999901    1    3    3    0    0 -0.31192433069E-01 -0.10510923534E+00 -0.16434922728E-01  0.88695604509E+00  0.88000000000E+00 0. -1.
        -11    1    4    4    0    0  0.76974235907E-02  0.34128064986E-01 -0.30250362495E-02  0.35119611543E-01  0.51100000000E-03 0.  1.
         11    1    4    4    0    0  0.44001347208E-01  0.84814162131E-01  0.15031354849E-01  0.96725195289E-01  0.51100000000E-03 0. -1.
</event>
<event>
 8    1  0.1143506E+005  0.1043930E+01  0.7957747E-01            NaN
         13   -1    0    0    0    0  0.00000000000E+00  0.00000000000E+00  0.74505805969E-08  0.10566000000E+00  0.10566000000E+00 0. -1.
     999900   -1    0    0    0    0 -0.00000000000E+00 -0.00000000000E+00 -0.74505805969E-08  0.93827000000E+00  0.93827000000E+00 0. -1.
     999902    2    1    2    0    0  0.65718821847E-02  0.22125456288E-01  0.62680311873E-02  0.10200131928E+01  0.10197327590E+01 0.  0.
     999903    2    3    3    0    0 -0.78066825142E-02 -0.10262775850E+00  0.74315544858E-01  0.12849730857E+00  0.19883586098E-01 0.  0.
         14    1    1    2    0    0 -0.65718821847E-02 -0.22125456288E-01 -0.62680311873E-02  0.23916807194E-01  0.00000000000E+00 0.  1.
     999901    1    3    3    0    0  0.14378564699E-01  0.12475321479E+00 -0.68047513670E-01  0.89151588423E+00  0.88000000000E+00 0. -1.
        -11    1    4    4    0    0 -0.73403074585E-02 -0.23737293801E-01  0.10309251526E-01  0.26905037049E-01  0.51100000000E-03 0.  1.
         11    1    4    4    0    0 -0.46637505574E-03 -0.78890464700E-01  0.64006293332E-01  0.10159227152E+00  0.51100000000E-03 0. -1.
</event>
<event>
 8    1  0.1143506E+005  0.1043930E+01  0.7957747E-01            NaN
         13   -1    0    0    0    0  0.00000000000E+00  0.00000000000E+00  0.74505805969E-08  0.10566000000E+00  0.10566000000E+00 0. -1.
     999900   -1    0    0    0    0 -0.00000000000E+00 -0.00000000000E+00 -0.74505805969E-08  0.93827000000E+00  0.93827000000E+00 0.  1.
     999902    2    1    2    0    0 -0.12808815740E-01 -0.20437906424E-01  0.32901018572E-02  0.10195866529E+01  0.10192960042E+01 0.  0.
     999903    2    3    3    0    0  0.37440617871E-01 -0.12191615911E+00 -0.26612318548E-01  0.13182711555E+00  0.20120218112E-01 0.  0.
         14    1    1    2    0    0  0.12808815740E-01  0.20437906424E-01 -0.32901018572E-02  0.24343347138E-01  0.00000000000E+00 0.  1.
     999901    1    3    3    0    0 -0.50249433611E-01  0.10147825268E+00  0.29902420405E-01  0.88775953731E+00  0.88000000000E+00 0. -1.
        -11    1    4    4    0    0  0.42883178063E-02 -0.19151971378E-01  0.29974906201E-02  0.19860356197E-01  0.51100000000E-03 0. -1.
         11    1    4    4    0    0  0.33152300065E-01 -0.10276418773E+00 -0.29609809168E-01  0.11196675935E+00  0.51100000000E-03 0.  1.
</event>
<event>
 8    1  0.1143506E+005  0.1043930E+01  0.7957747E-01            NaN
         13   -1    0    0    0    0  0.00000000000E+00  0.00000000000E+00  0.74505805969E-08  0.10566000000E+00  0.10566000000E+00 0. -1.
     999900   -1    0    0    0    0 -0.00000000000E+00 -0.00000000000E+00 -0.74505805969E-08  0.93827000000E+00  0.93827000000E+00 0.  1.
     999902    2    1    2    0    0 -0.27914624924E-02  0.14130258621E-01 -0.17696256511E-01  0.10211130334E+01  0.10208580768E+01 0.  0.
     999903    2    3    3    0    0 -0.11652338240E+00 -0.36505531886E-01  0.41300342688E-01  0.13039448546E+00  0.19663443920E-01 0.  0.
         14    1    1    2    0    0  0.27914624924E-02 -0.14130258621E-01  0.17696256511E-01  0.22816966627E-01  0.00000000000E+00 0. -1.
     999901    1    3    3    0    0  0.11373191991E+00  0.50635790507E-01 -0.58996599199E-01  0.89071854792E+00  0.88000000000E+00 0.  1.
        -11    1    4    4    0    0 -0.10437693980E+00 -0.25889335339E-01  0.35940672587E-01  0.11338781378E+00  0.51100000000E-03 0. -1.
         11    1    4    4    0    0 -0.12146442601E-01 -0.10616196547E-01  0.53596701012E-02  0.17006671678E-01  0.51100000000E-03 0.  1.
</event>
<event>
 8    1  0.1143506E+005  0.1043930E+01  0.7957747E-01            NaN
         13   -1    0    0    0    0  0.00000000000E+00  0.00000000000E+00  0.74505805969E-08  0.10566000000E+00  0.10566000000E+00 0.  1.
     999900   -1    0    0    0    0 -0.00000000000E+00 -0.00000000000E+00 -0.74505805969E-08  0.93827000000E+00  0.93827000000E+00 0.  1.
     999902    2    1    2    0    0  0.15142435079E-01  0.94887086645E-02 -0.16288638888E-01  0.10197504903E+01  0.10194637874E+01 0.  0.
     999903    2    3    3    0    0 -0.87474671906E-01  0.11989130347E-01  0.90210032810E-01  0.12740611181E+00  0.17289009108E-01 0.  0.
         14    1    1    2    0    0 -0.15142435079E-01 -0.94887086645E-02  0.16288638888E-01  0.24179509695E-01  0.00000000000E+00 0.  1.
     999901    1    3    3    0    0  0.10261710699E+00 -0.25004216822E-02 -0.10649867170E+00  0.89234437849E+00  0.88000000000E+00 0.  1.
        -11    1    4    4    0    0 -0.57156513739E-01  0.15213387685E-01  0.64563323411E-01  0.87561396051E-01  0.51100000000E-03 0. -1.
         11    1    4    4    0    0 -0.30318158167E-01 -0.32242573386E-02  0.25646709400E-01  0.39844715761E-01  0.51100000000E-03 0.  1.
</event>
<event>
 8    1  0.1143506E+005  0.1043930E+01  0.7957747E-01            NaN
         13   -1    0    0    0    0  0.00000000000E+00  0.00000000000E+00  0.74505805969E-08  0.10566000000E+00  0.10566000000E+00 0.  1.
     999900   -1    0    0    0    0 -0.00000000000E+00 -0.00000000000E+00 -0.74505805969E-08  0.93827000000E+00  0.93827000000E+00 0.  1.
     999902    2    1    2    0    0  0.11165848670E-01  0.16603967264E-01  0.12596996107E-01  0.10202857149E+01  0.10200117097E+01 0.  0.
     999903    2    3    3    0    0  0.71827467930E-01 -0.10421117837E+00 -0.18593137347E-01  0.12941594000E+00  0.19586370820E-01 0.  0.
         14    1    1    2    0    0 -0.11165848670E-01 -0.16603967264E-01 -0.12596996107E-01  0.23644285067E-01  0.00000000000E+00 0. -1.
     999901    1    3    3    0    0 -0.60661619259E-01  0.12081514564E+00  0.31190133455E-01  0.89086977493E+00  0.88000000000E+00 0. -1.
        -11    1    4    4    0    0  0.37606912985E-01 -0.71182495187E-01 -0.11256872349E-01  0.81290871698E-01  0.51100000000E-03 0.  1.
         11    1    4    4    0    0  0.34220554945E-01 -0.33028683187E-01 -0.73362649986E-02  0.48125068301E-01  0.51100000000E-03 0. -1.
</event>
<event>
 8    1  0.1143506E+005  0.1043930E+01  0.7957747E-01            NaN
         13   -1    0    0    0    0  0.00000000000E+00  0.00000000000E+00  0.74505805969E-08  0.10566000000E+00  0.10566000000E+00 0. -1.
     999900   -1    0    0    0    0 -0.00000000000E+00 -0.00000000000E+00 -0.74505805969E-08  0.93827000000E+00  0.93827000000E+00 0. -1.
     999902    2    1    2    0    0  0.88292463297E-02  0.20033561801E-01 -0.10104882075E-01  0.10198176001E+01  0.10195325054E+01 0.  0.
     999903    2    3    3    0    0 -0.42007517435E-02  0.12132534494E+00 -0.50252924930E-01  0.13300213361E+00  0.20657333869E-01 0.  0.
         14    1    1    2    0    0 -0.88292463297E-02 -0.20033561801E-01  0.10104882075E-01  0.24112399942E-01  0.00000000000E+00 0. -1.
     999901    1    3    3    0    0  0.13029998073E-01 -0.10129178314E+00  0.40148042855E-01  0.88681546644E+00  0.88000000000E+00 0.  1.
        -11    1    4    4    0    0  0.61084970769E-02  0.73920002930E-01 -0.24767050093E-01  0.78199414710E-01  0.51100000000E-03 0.  1.
         11    1    4    4    0    0 -0.10309248820E-01  0.47405342007E-01 -0.25485874837E-01  0.54802718904E-01  0.51100000000E-03 0. -1.
</event>
<event>
 8    1  0.1143506E+005  0.1043930E+01  0.7957747E-01            NaN
         13   -1    0    0    0    0  0.00000000000E+00  0.00000000000E+00  0.74505805969E-08  0.10566000000E+00  0.10566000000E+00 0. -1.
     999900   -1    0    0    0    0 -0.00000000000E+00 -0.00000000000E+00 -0.74505805969E-08  0.93827000000E+00  0.93827000000E+00 0. -1.
     999902    2    1    2    0    0 -0.20141513891E-01  0.55494968887E-02  0.10590760736E-01  0.10205068979E+01  0.10202380541E+01 0.  0.
     999903    2    3    3    0    0 -0.12394194940E+00 -0.12332520104E-01  0.38943860376E-01  0.13377232930E+00  0.29406018974E-01 0.  0.
         14    1    1    2    0    0  0.20141513891E-01 -0.55494968887E-02 -0.10590760736E-01  0.23423102068E-01  0.00000000000E+00 0.  1.
     999901    1    3    3    0    0  0.10380043551E+00  0.17882016993E-01 -0.28353099640E-01  0.88673456863E+00  0.88000000000E+00 0. -1.
        -11    1    4    4    0    0 -0.27914274950E-01 -0.15368799464E-01  0.84194263404E-02  0.32962927720E-01  0.51100000000E-03 0. -1.
         11    1    4    4    0    0 -0.96027674453E-01  0.30362793593E-02  0.30524434035E-01  0.10080940158E+00  0.51100000000E-03 0.  1.
</event>
<event>
 8    1  0.1143506E+005  0.1043930E+01  0.7957747E-01            NaN
         13   -1    0    0    0    0  0.00000000000E+00  0.00000000000E+00  0.74505805969E-08  0.10566000000E+00  0.10566000000E+00 0. -1.
     999900   -1    0    0    0    0 -0.00000000000E+00 -0.00000000000E+00 -0.74505805969E-08  0.93827000000E+00  0.93827000000E+00 0.  1.
     999902    2    1    2    0    0 -0.46949715283E-02  0.24204950364E-01  0.59778085671E-02  0.10185596122E+01  0.10182435991E+01 0.  0.
     999903    2    3    3    0    0 -0.11791803602E+00  0.41456786209E-01 -0.31242923320E-01  0.13035779336E+00  0.19842018312E-01 0.  0.
         14    1    1    2    0    0  0.46949715283E-02 -0.24204950364E-01 -0.59778085671E-02  0.25370387759E-01  0.00000000000E+00 0.  1.
     999901    1    3    3    0    0  0.11322306450E+00 -0.17251835844E-01  0.37220731888E-01  0.88820181888E+00  0.88000000000E+00 0.  1.
        -11    1    4    4    0    0 -0.90688734386E-01  0.39228872271E-01 -0.20025249328E-01  0.10081975350E+00  0.51100000000E-03 0. -1.
         11    1    4    4    0    0 -0.27229301638E-01  0.22279139375E-02 -0.11217673993E-01  0.29538039864E-01  0.51100000000E-03 0.  1.
</event>
<event>
 8    1  0.1143506E+005  0.1043930E+01  0.7957747E-01            NaN
         13   -1    0    0    0    0  0.00000000000E+00  0.00000000000E+00  0.74505805969E-08  0.10566000000E+00  0.10566000000E+00 0. -1.
     999900   -1    0    0    0    0 -0.00000000000E+00 -0.00000000000E+00 -0.74505805969E-08  0.93827000000E+00  0.93827000000E+00 0.  1.
     999902    2    1    2    0    0  0.26997625541E-02  0.28625931938E-01 -0.12928165009E-01  0.10124042939E+01  0.10119133283E+01 0.  0.
     999903    2    3    3    0    0 -0.10265343703E+00  0.46266607687E-02 -0.66431415452E-01  0.12418255381E+00  0.21190554236E-01 0.  0.
         14    1    1    2    0    0 -0.26997625541E-02 -0.28625931938E-01  0.12928165009E-01  0.31525706141E-01  0.00000000000E+00 0. -1.
     999901    1    3    3    0    0  0.10535319959E+00  0.23999271170E-01  0.53503250443E-01  0.88822174004E+00  0.88000000000E+00 0. -1.
        -11    1    4    4    0    0 -0.60280816123E-01  0.13770616750E-02 -0.26494793247E-01  0.65862798920E-01  0.51100000000E-03 0.  1.
         11    1    4    4    0    0 -0.42372620908E-01  0.32495990937E-02 -0.39936622205E-01  0.58319754895E-01  0.51100000000E-03 0. -1.
</event>
<event>
 8    1  0.1143506E+005  0.1043930E+01  0.7957747E-01            NaN
         13   -1    0    0    0    0  0.00000000000E+00  0.00000000000E+00  0.74505805969E-08  0.10566000000E+00  0.10566000000E+00 0.  1.
     999900   -1    0    0    0    0 -0.00000000000E+00 -0.00000000000E+00 -0.74505805969E-08  0.93827000000E+00  0.93827000000E+00 0. -1.
     999902    2    1    2    0    0 -0.23118833315E-01 -0.19036938327E-02  0.60885993772E-02  0.10199471823E+01  0.10196651799E+01 0.  0.
     999903    2    3    3    0    0  0.63663127361E-01  0.45849224677E-01 -0.99248960091E-01  0.12814706377E+00  0.20400212835E-01 0.  0.
         14    1    1    2    0    0  0.23118833315E-01  0.19036938327E-02 -0.60885993772E-02  0.23982817733E-01  0.00000000000E+00 0. -1.
     999901    1    3    3    0    0 -0.86781960676E-01 -0.47752918509E-01  0.10533755947E+00  0.89180011850E+00  0.88000000000E+00 0.  1.
        -11    1    4    4    0    0  0.85507288713E-02  0.15889182365E-01 -0.17919557084E-01  0.25435265431E-01  0.51100000000E-03 0. -1.
         11    1    4    4    0    0  0.55112398490E-01  0.29960042312E-01 -0.81329403006E-01  0.10271179833E+00  0.51100000000E-03 0.  1.
</event>
<event>
 8    1  0.1143506E+005  0.1043930E+01  0.7957747E-01            NaN
         13   -1    0    0    0    0  0.00000000000E+00  0.00000000000E+00  0.74505805969E-08  0.10566000000E+00  0.10566000000E+00 0.  1.
     999900   -1    0    0    0    0 -0.00000000000E+00 -0.00000000000E+00 -0.74505805969E-08  0.93827000000E+00  0.93827000000E+00 0. -1.
     999902    2    1    2    0    0 -0.76381811718E-02  0.28863026268E-01  0.10807485977E-01  0.10121775536E+01  0.10116793871E+01 0.  0.
     999903    2    3    3    0    0 -0.84949028516E-01 -0.18518494887E-01  0.86597536733E-01  0.12427772401E+00  0.19660804082E-01 0.  0.
         14    1    1    2    0    0  0.76381811718E-02 -0.28863026268E-01 -0.10807485977E-01  0.31752446364E-01  0.00000000000E+00 0. -1.
     999901    1    3    3    0    0  0.77310847344E-01  0.47381521155E-01 -0.75790050756E-01  0.88789982963E+00  0.88000000000E+00 0. -1.
        -11    1    4    4    0    0 -0.38290660133E-01 -0.15167541237E-01  0.30604778034E-01  0.51314155163E-01  0.51100000000E-03 0.  1.
         11    1    4    4    0    0 -0.46658368383E-01 -0.33509536496E-02  0.55992758699E-01  0.72963568842E-01  0.51100000000E-03 0. -1.
</event>
<event>
 8    1  0.1143506E+005  0.1043930E+01  0.7957747E-01            NaN
         13   -1    0    0    0    0  0.00000000000E+00  0.00000000000E+00  0.74505805969E-08  0.10566000000E+00  0.10566000000E+00 0.  1.
     999900   -1    0    0    0    0 -0.00000000000E+00 -0.00000000000E+00 -0.74505805969E-08  0.93827000000E+00  0.93827000000E+00 0. -1.
     999902    2    1    2    0    0 -0.23796514355E-01  0.10393759043E-01 -0.38493130577E-02  0.10176788756E+01  0.10173402441E+01 0.  0.
     999903    2    3    3    0    0 -0.83038941544E-01  0.32958723410E-01  0.92559477191E-01  0.13014662398E+00  0.19726724328E-01 0.  0.
         14    1    1    2    0    0  0.23796514355E-01 -0.10393759043E-01  0.38493130577E-02  0.26251124423E-01  0.00000000000E+00 0. -1.
     999901    1    3    3    0    0  0.59242427189E-01 -0.22564964368E-01 -0.96408790249E-01  0.88753225160E+00  0.88000000000E+00 0. -1.
        -11    1    4    4    0    0 -0.21053507020E-01  0.11791860499E-01  0.14152957847E-01  0.27979733178E-01  0.51100000000E-03 0. -1.
         11    1    4    4    0    0 -0.61985434524E-01  0.21166862911E-01  0.78406519344E-01  0.10216689080E+00  0.51100000000E-03 0.  1.
</event>
<event>
 8    1  0.1143506E+005  0.1043930E+01  0.7957747E-01            NaN
         13   -1    0    0    0    0  0.00000000000E+00  0.00000000000E+00  0.74505805969E-08  0.10566000000E+00  0.10566000000E+00 0. -1.
     999900   -1    0    0    0    0 -0.00000000000E+00 -0.00000000000E+00 -0.74505805969E-08  0.93827000000E+00  0.93827000000E+00 0. -1.
     999902    2    1    2    0    0  0.48762420052E-02  0.52933721880E-02 -0.24764773098E-01  0.10181406318E+01  0.10178139587E+01 0.  0.
     999903    2    3    3    0    0 -0.33061821058E-01  0.22315184849E-01 -0.12400871592E+00  0.13158640396E+00  0.18594853997E-01 0.  0.
         14    1    1    2    0    0 -0.48762420052E-02 -0.52933721880E-02  0.24764773098E-01  0.25789368193E-01  0.00000000000E+00 0. -1.
     999901    1    3    3    0    0  0.37938063063E-01 -0.17021812661E-01  0.99243942822E-01  0.88655422785E+00  0.88000000000E+00 0.  1.
        -11    1    4    4    0    0 -0.13062780874E-01 -0.48844739391E-03 -0.47918857514E-01  0.49672455662E-01  0.51100000000E-03 0.  1.
         11    1    4    4    0    0 -0.19999040184E-01  0.22803632243E-01 -0.76089858406E-01  0.81913948293E-01  0.51100000000E-03 0. -1.
</event>
<event>
 8    1  0.1143506E+005  0.1043930E+01  0.7957747E-01            NaN
         13   -1    0    0    0    0  0.00000000000E+00  0.00000000000E+00  0.74505805969E-08  0.10566000000E+00  0.10566000000E+00 0. -1.
     999900   -1    0    0    0    0 -0.00000000000E+00 -0.00000000000E+00 -0.74505805969E-08  0.93827000000E+00  0.93827000000E+00 0. -1.
     999902    2    1    2    0    0 -0.67121447807E-02 -0.24174213655E-02  0.23087313300E-01  0.10197655458E+01  0.10194792040E+01 0.  0.
     999903    2    3    3    0    0  0.12763913278E+00 -0.23876545120E-02  0.87693859819E-02  0.12945365113E+00  0.19593278125E-01 0.  0.
         14    1    1    2    0    0  0.67121447807E-02  0.24174213655E-02 -0.23087313300E-01  0.24164454247E-01  0.00000000000E+00 0.  1.
     999901    1    3    3    0    0 -0.13435127757E+00 -0.29766853455E-04  0.14317927318E-01  0.89031189463E+00  0.88000000000E+00 0.  1.
        -11    1    4    4    0    0  0.79539089880E-01 -0.39242917394E-02 -0.37464847837E-02  0.79725555212E-01  0.51100000000E-03 0.  1.
         11    1    4    4    0    0  0.48100042905E-01  0.15366372273E-02  0.12515870766E-01  0.49728095916E-01  0.51100000000E-03 0. -1.
</event>
<event>
 8    1  0.1143506E+005  0.1043930E+01  0.7957747E-01            NaN
         13   -1    0    0    0    0  0.00000000000E+00  0.00000000000E+00  0.74505805969E-08  0.10566000000E+00  0.10566000000E+00 0.  1.
     999900   -1    0    0    0    0 -0.00000000000E+00 -0.00000000000E+00 -0.74505805969E-08  0.93827000000E+00  0.93827000000E+00 0.  1.
     999902    2    1    2    0    0 -0.82788294917E-02  0.18899531291E-01 -0.12492511069E-01  0.10198095909E+01  0.10195243046E+01 0.  0.
     999903    2    3    3    0    0  0.42908356997E-01 -0.20403659117E-01  0.11709240815E+00  0.12798162539E+00  0.20278756998E-01 0.  0.
         14    1    1    2    0    0  0.82788294917E-02 -0.18899531291E-01  0.12492511069E-01  0.24120409067E-01  0.00000000000E+00 0.  1.
     999901    1    3    3    0    0 -0.51187186489E-01  0.39303190408E-01 -0.12958491922E+00  0.89182796554E+00  0.88000000000E+00 0.  1.
        -11    1    4    4    0    0  0.31850483273E-01 -0.45624919224E-02  0.77849757598E-01  0.84238444289E-01  0.51100000000E-03 0.  1.
         11    1    4    4    0    0  0.11057873724E-01 -0.15841167195E-01  0.39242650552E-01  0.43743181100E-01  0.51100000000E-03 0. -1.
</event>
<event>
 8    1  0.1143506E+005  0.1043930E+01  0.7957747E-01            NaN
         13   -1    0    0    0    0  0.00000000000E+00  0.00000000000E+00  0.74505805969E-08  0.10566000000E+00  0.10566000000E+00 0. -1.
     999900   -1    0    0    0    0 -0.00000000000E+00 -0.00000000000E+00 -0.74505805969E-08  0.93827000000E+00  0.93827000000E+00 0.  1.
     999902    2    1    2    0    0  0.71951035728E-02 -0.53795800353E-02 -0.21434567055E-01  0.10206888713E+01  0.10204242363E+01 0.  0.
     999903    2    3    3    0    0 -0.79909925416E-01 -0.95710131653E-01  0.33975934162E-01  0.13006144178E+00  0.14682951159E-01 0.  0.
         14    1    1    2    0    0 -0.71951035728E-02  0.53795800353E-02  0.21434567055E-01  0.23241128665E-01  0.00000000000E+00 0. -1.
     999901    1    3    3    0    0  0.87105028988E-01  0.90330551618E-01 -0.55410501217E-01  0.89062742956E+00  0.88000000000E+00 0.  1.
        -11    1    4    4    0    0 -0.56356559657E-01 -0.76134067683E-01  0.22571915407E-01  0.97376642808E-01  0.51100000000E-03 0.  1.
         11    1    4    4    0    0 -0.23553365758E-01 -0.19576063970E-01  0.11404018754E-01  0.32684798972E-01  0.51100000000E-03 0. -1.
</event>
<event>
 8    1  0.1143506E+005  0.1043930E+01  0.7957747E-01            NaN
         13   -1    0    0    0    0  0.00000000000E+00  0.00000000000E+00  0.74505805969E-08  0.10566000000E+00  0.10566000000E+00 0.  1.
     999900   -1    0    0    0    0 -0.00000000000E+00 -0.00000000000E+00 -0.74505805969E-08  0.93827000000E+00  0.93827000000E+00 0. -1.
     999902    2    1    2    0    0  0.14435150025E-01  0.16020544322E-01 -0.10076853576E-01  0.10201271772E+01  0.10198494415E+01 0.  0.
     999903    2    3    3    0    0 -0.60782571282E-01  0.62577363723E-01  0.93760244409E-01  0.12961755569E+00  0.19981989130E-01 0.  0.
         14    1    1    2    0    0 -0.14435150025E-01 -0.16020544322E-01  0.10076853576E-01  0.23802822828E-01  0.00000000000E+00 0.  1.
     999901    1    3    3    0    0  0.75217721307E-01 -0.46556819401E-01 -0.10383709799E+00  0.89050962148E+00  0.88000000000E+00 0. -1.
        -11    1    4    4    0    0 -0.30920632280E-01  0.43575555836E-01  0.63978694774E-01  0.83357357641E-01  0.51100000000E-03 0. -1.
         11    1    4    4    0    0 -0.29861939002E-01  0.19001807887E-01  0.29781549635E-01  0.46260198050E-01  0.51100000000E-03 0.  1.
</event>
<event>
 8    1  0.1143506E+005  0.1043930E+01  0.7957747E-01            NaN
         13   -1    0    0    0    0  0.00000000000E+00  0.00000000000E+00  0.74505805969E-08  0.10566000000E+00  0.10566000000E+00 0. -1.
     999900   -1    0    0    0    0 -0.00000000000E+00 -0.00000000000E+00 -0.74505805969E-08  0.93827000000E+00  0.93827000000E+00 0. -1.
     999902    2    1    2    0    0 -0.75917162885E-02  0.64348806335E-02  0.22009333404E-01  0.10197752365E+01  0.10194891271E+01 0.  0.
     999903    2    3    3    0    0 -0.77214734350E-01 -0.98885093411E-01 -0.24896241595E-01  0.12952819516E+00  0.20429233839E-01 0.  0.
         14    1    1    2    0    0  0.75917162885E-02 -0.64348806335E-02 -0.22009333404E-01  0.24154763544E-01  0.00000000000E+00 0.  1.
     999901    1    3    3    0    0  0.69623018061E-01  0.10531997404E+00  0.46905574999E-01  0.89024704130E+00  0.88000000000E+00 0.  1.
        -11    1    4    4    0    0 -0.16107081931E-01 -0.10305188703E-01 -0.26060749853E-03  0.19130186612E-01  0.51100000000E-03 0. -1.
         11    1    4    4    0    0 -0.61107652419E-01 -0.88579904708E-01 -0.24635634097E-01  0.11039800854E+00  0.51100000000E-03 0.  1.
</event>
<event>
 8    1  0.1143506E+005  0.1043930E+01  0.7957747E-01            NaN
         13   -1    0    0    0    0  0.00000000000E+00  0.00000000000E+00  0.74505805969E-08  0.10566000000E+00  0.10566000000E+00 0.  1.
     999900   -1    0    0    0    0 -0.00000000000E+00 -0.00000000000E+00 -0.74505805969E-08  0.93827000000E+00  0.93827000000E+00 0. -1.
     999902    2    1    2    0    0 -0.88804152074E-02 -0.20511376041E-01 -0.62292825229E-02  0.10207269338E+01  0.10204631748E+01 0.  0.
     999903    2    3    3    0    0 -0.26759413541E-01 -0.10056992265E-01  0.12592070277E+00  0.13061875421E+00  0.19698382130E-01 0.  0.
         14    1    1    2    0    0  0.88804152074E-02  0.20511376041E-01  0.62292825229E-02  0.23203066222E-01  0.00000000000E+00 0. -1.
     999901    1    3    3    0    0  0.17878998333E-01 -0.10454383775E-01 -0.13214998529E+00  0.89010817957E+00  0.88000000000E+00 0. -1.
        -11    1    4    4    0    0 -0.10555984715E-01  0.29830407736E-02  0.21460951238E-01  0.24107278872E-01  0.51100000000E-03 0.  1.
         11    1    4    4    0    0 -0.16203428825E-01 -0.13040033039E-01  0.10445975153E+00  0.10651147534E+00  0.51100000000E-03 0. -1.
</event>
<event>
 8    1  0.1143506E+005  0.1043930E+01  0.7957747E-01            NaN
         13   -1    0    0    0    0  0.00000000000E+00  0.00000000000E+00  0.74505805969E-08  0.10566000000E+00  0.10566000000E+00 0.  1.
     999900   -1    0    0    0    0 -0.00000000000E+00 -0.00000000000E+00 -0.74505805969E-08  0.93827000000E+00  0.93827000000E+00 0. -1.
     999902    2    1    2    0    0  0.39157807960E-02  0.18673918636E-01  0.15608496353E-01  0.10192789608E+01  0.10189808272E+01 0.  0.
     999903    2    3    3    0    0 -0.50790929947E-01 -0.11498625487E+00 -0.41602243100E-02  0.12728755471E+00  0.19576944174E-01 0.  0.
         14    1    1    2    0    0 -0.39157807960E-02 -0.18673918636E-01 -0.15608496353E-01  0.24651039225E-01  0.00000000000E+00 0. -1.
     999901    1    3    3    0    0  0.54706710743E-01  0.13366017351E+00  0.19768720663E-01  0.89199140607E+00  0.88000000000E+00 0.  1.
        -11    1    4    4    0    0 -0.36929057551E-01 -0.98482070804E-01 -0.76081686553E-02  0.10545434516E+00  0.51100000000E-03 0.  1.
         11    1    4    4    0    0 -0.13861872396E-01 -0.16504184066E-01  0.34479443453E-02  0.21833209549E-01  0.51100000000E-03 0. -1.
</event>
<event>
 8    1  0.1143506E+005  0.1043930E+01  0.7957747E-01            NaN
         13   -1    0    0    0    0  0.00000000000E+00  0.00000000000E+00  0.74505805969E-08  0.10566000000E+00  0.10566000000E+00 0. -1.
     999900   -1    0    0    0    0 -0.00000000000E+00 -0.00000000000E+00 -0.74505805969E-08  0.93827000000E+00  0.93827000000E+00 0. -1.
     999902    2    1    2    0    0  0.16455214748E-02 -0.21287575520E-01  0.96924445001E-02  0.10204819277E+01  0.10202125037E+01 0.  0.
     999903    2    3    3    0    0 -0.87462977720E-01  0.91751592320E-01 -0.79463302118E-02  0.12861349323E+00  0.20252390290E-01 0.  0.
         14    1    1    2    0    0 -0.16455214748E-02  0.21287575520E-01 -0.96924445001E-02  0.23448072263E-01  0.00000000000E+00 0. -1.
     999901    1    3    3    0    0  0.89108499195E-01 -0.11303916784E+00  0.17638774712E-01  0.89186843451E+00  0.88000000000E+00 0.  1.
        -11    1    4    4    0    0 -0.29284009122E-01  0.32090991266E-01  0.68289698058E-02  0.43980459982E-01  0.51100000000E-03 0. -1.
         11    1    4    4    0    0 -0.58178968598E-01  0.59660601054E-01 -0.14775300018E-01  0.84633033249E-01  0.51100000000E-03 0.  1.
</event>
<event>
 8    1  0.1143506E+005  0.1043930E+01  0.7957747E-01            NaN
         13   -1    0    0    0    0  0.00000000000E+00  0.00000000000E+00  0.74505805969E-08  0.10566000000E+00  0.10566000000E+00 0.  1.
     999900   -1    0    0    0    0 -0.00000000000E+00 -0.00000000000E+00 -0.74505805969E-08  0.93827000000E+00  0.93827000000E+00 0. -1.
     999902    2    1    2    0    0 -0.15099195539E-01 -0.16676176813E-01 -0.44871254529E-02  0.10209906261E+01  0.10207328954E+01 0.  0.
     999903    2    3    3    0    0  0.42564925469E-01  0.42437401822E-01 -0.11377620172E+00  0.13039326018E+00  0.21087253691E-01 0.  0.
         14    1    1    2    0    0  0.15099195539E-01  0.16676176813E-01  0.44871254529E-02  0.22939373877E-01  0.00000000000E+00 0. -1.
     999901    1    3    3    0    0 -0.57664121007E-01 -0.59113578635E-01  0.10928907627E+00  0.89059736594E+00  0.88000000000E+00 0.  1.
        -11    1    4    4    0    0  0.36904687119E-01  0.26944565500E-01 -0.94841829006E-01  0.10527677423E+00  0.51100000000E-03 0.  1.
         11    1    4    4    0    0  0.56602383496E-02  0.15492836322E-01 -0.18934372719E-01  0.25116485955E-01  0.51100000000E-03 0. -1.
</event>
<event>
 8    1  0.1143506E+005  0.1043930E+01  0.7957747E-01            NaN
         13   -1    0    0    0    0  0.00000000000E+00  0.00000000000E+00  0.74505805969E-08  0.10566000000E+00  0.10566000000E+00 0. -1.
     999900   -1    0    0    0    0 -0.00000000000E+00 -0.00000000000E+00 -0.74505805969E-08  0.93827000000E+00  0.93827000000E+00 0. -1.
     999902    2    1    2    0    0  0.19799625427E-01 -0.15071150419E-01 -0.25516251862E-03  0.10190456706E+01  0.10187417970E+01 0.  0.
     999903    2    3    3    0    0  0.45454565024E-01  0.39167329897E-01 -0.11336908790E+00  0.12977926013E+00  0.19746114925E-01 0.  0.
         14    1    1    2    0    0 -0.19799625427E-01  0.15071150419E-01  0.25516251862E-03  0.24884329404E-01  0.00000000000E+00 0. -1.
     999901    1    3    3    0    0 -0.25654939597E-01 -0.54238480317E-01  0.11311392538E+00  0.88926641047E+00  0.88000000000E+00 0. -1.
        -11    1    4    4    0    0  0.51065267551E-02 -0.16051865925E-02 -0.14622037983E-01  0.15579420890E-01  0.51100000000E-03 0.  1.
         11    1    4    4    0    0  0.40348038269E-01  0.40772516490E-01 -0.98747049918E-01  0.11419983924E+00  0.51100000000E-03 0. -1.
</event>
<event>
 8    1  0.1143506E+005  0.1043930E+01  0.7957747E-01            NaN
         13   -1    0    0    0    0  0.00000000000E+00  0.00000000000E+00  0.74505805969E-08  0.10566000000E+00  0.10566000000E+00 0.  1.
     999900   -1    0    0    0    0 -0.00000000000E+00 -0.00000000000E+00 -0.74505805969E-08  0.93827000000E+00  0.93827000000E+00 0. -1.
     999902    2    1    2    0    0  0.89078890099E-02 -0.89897571115E-02 -0.20128843601E-01  0.10201531927E+01  0.10198760709E+01 0.  0.
     999903    2    3    3    0    0 -0.10249256883E+00 -0.62134289004E-01 -0.48900094995E-01  0.13107378784E+00  0.20584509551E-01 0.  0.
         14    1    1    2    0    0 -0.89078890099E-02  0.89897571115E-02  0.20128843601E-01  0.23776807276E-01  0.00000000000E+00 0.  1.
     999901    1    3    3    0    0  0.11140045784E+00  0.53144531893E-01  0.28771251394E-01  0.88907940488E+00  0.88000000000E+00 0.  1.
        -11    1    4    4    0    0 -0.95137055696E-01 -0.53560747180E-01 -0.38670122539E-01  0.11582509444E+00  0.51100000000E-03 0. -1.
         11    1    4    4    0    0 -0.73555131337E-02 -0.85735418244E-02 -0.10229972457E-01  0.15248693398E-01  0.51100000000E-03 0.  1.
</event>
<event>
 8    1  0.1143506E+005  0.1043930E+01  0.7957747E-01            NaN
         13   -1    0    0    0    0  0.00000000000E+00  0.00000000000E+00  0.74505805969E-08  0.10566000000E+00  0.10566000000E+00 0. -1.
     999900   -1    0    0    0    0 -0.00000000000E+00 -0.00000000000E+00 -0.74505805969E-08  0.93827000000E+00  0.93827000000E+00 0.  1.
     999902    2    1    2    0    0 -0.69727638837E-02 -0.16515792937E-01  0.15570975611E-01  0.10201845555E+01  0.10199081729E+01 0.  0.
     999903    2    3    3    0    0 -0.13965840204E-01 -0.59350707535E-01 -0.11292900848E+00  0.12979364196E+00  0.19387556791E-01 0.  0.
         14    1    1    2    0    0  0.69727638837E-02  0.16515792937E-01 -0.15570975611E-01  0.23745444490E-01  0.00000000000E+00 0.  1.
     999901    1    3    3    0    0  0.69930763201E-02  0.42834914598E-01  0.12849998409E+00  0.89039091355E+00  0.88000000000E+00 0. -1.
        -11    1    4    4    0    0 -0.16063000509E-01 -0.46045638391E-01 -0.99274162286E-01  0.11060669608E+00  0.51100000000E-03 0. -1.
         11    1    4    4    0    0  0.20971603055E-02 -0.13305069145E-01 -0.13654846196E-01  0.19186945873E-01  0.51100000000E-03 0.  1.
</event>
<event>
 8    1  0.1143506E+005  0.1043930E+01  0.7957747E-01            NaN
         13   -1    0    0    0    0  0.00000000000E+00  0.00000000000E+00  0.74505805969E-08  0.10566000000E+00  0.10566000000E+00 0.  1.
     999900   -1    0    0    0    0 -0.00000000000E+00 -0.00000000000E+00 -0.74505805969E-08  0.93827000000E+00  0.93827000000E+00 0.  1.
     999902    2    1    2    0    0 -0.51286349836E-03 -0.60499953968E-02  0.22304124401E-01  0.10208142167E+01  0.10205524609E+01 0.  0.
     999903    2    3    3    0    0  0.30104764960E-01  0.11618222129E+00 -0.43919188193E-01  0.12937510990E+00  0.20110160424E-01 0.  0.
         14    1    1    2    0    0  0.51286349836E-03  0.60499953968E-02 -0.22304124401E-01  0.23115783321E-01  0.00000000000E+00 0. -1.
     999901    1    3    3    0    0 -0.30617628459E-01 -0.12223221669E+00  0.66223312594E-01  0.89143910678E+00  0.88000000000E+00 0.  1.
        -11    1    4    4    0    0  0.33121237472E-01  0.10649054694E+00 -0.39905358842E-01  0.11844809726E+00  0.51100000000E-03 0.  1.
         11    1    4    4    0    0 -0.30164725115E-02  0.96916743520E-02 -0.40138293509E-02  0.10927012639E-01  0.51100000000E-03 0. -1.
</event>
<event>
 7    1  0.1143506E+005  0.1043930E+01  0.7957747E-01            NaN
         13   -1    0    0    0    0  0.00000000000E+00  0.00000000000E+00  0.74505805969E-08  0.10566000000E+00  0.10566000000E+00 0. -1.
     999900   -1    0    0    0    0 -0.00000000000E+00 -0.00000000000E+00 -0.74505805969E-08  0.93827000000E+00  0.93827000000E+00 0. -1.
     999903    2    1    2    0    0  0.53150859011E-01 -0.90752231972E-01 -0.15741390460E-01  0.10832153509E+00  0.20610244261E-01 0.  0.
         14    1    1    2    0    0 -0.87706466883E-02  0.50158415027E-01  0.16593821172E-01  0.53555072052E-01  0.00000000000E+00 0. -1.
     999901    1    1    2    0    0 -0.44380212323E-01  0.40593816944E-01 -0.85243071235E-03  0.88205339286E+00  0.88000000000E+00 0.  1.
        -11    1    3    3    0    0  0.35107086764E-01 -0.68350515832E-01 -0.31174736243E-02  0.76904358253E-01  0.51100000000E-03 0.  1.
         11    1    3    3    0    0  0.18043772248E-01 -0.22401716140E-01 -0.12623916836E-01  0.31417176834E-01  0.51100000000E-03 0. -1.
</event>
<event>
 8    1  0.1143506E+005  0.1043930E+01  0.7957747E-01            NaN
         13   -1    0    0    0    0  0.00000000000E+00  0.00000000000E+00  0.74505805969E-08  0.10566000000E+00  0.10566000000E+00 0. -1.
     999900   -1    0    0    0    0 -0.00000000000E+00 -0.00000000000E+00 -0.74505805969E-08  0.93827000000E+00  0.93827000000E+00 0.  1.
     999902    2    1    2    0    0 -0.18639118169E-02  0.20860874170E-01  0.12859742034E-01  0.10193531165E+01  0.10190567957E+01 0.  0.
     999903    2    3    3    0    0 -0.25685296103E-01 -0.12273099887E+00  0.50935395170E-02  0.12736298298E+00  0.21742878585E-01 0.  0.
         14    1    1    2    0    0  0.18639118169E-02 -0.20860874170E-01 -0.12859742034E-01  0.24576883521E-01  0.00000000000E+00 0.  1.
     999901    1    3    3    0    0  0.23821384286E-01  0.14359187304E+00  0.77662025171E-02  0.89199013350E+00  0.88000000000E+00 0. -1.
        -11    1    4    4    0    0 -0.24592227526E-01 -0.65225349193E-01  0.42449252974E-02  0.69838415961E-01  0.51100000000E-03 0. -1.
         11    1    4    4    0    0 -0.10930685767E-02 -0.57505649680E-01  0.84861421956E-03  0.57524567022E-01  0.51100000000E-03 0.  1.
</event>
<event>
 8    1  0.1143506E+005  0.1043930E+01  0.7957747E-01            NaN
         13   -1    0    0    0    0  0.00000000000E+00  0.00000000000E+00  0.74505805969E-08  0.10566000000E+00  0.10566000000E+00 0. -1.
     999900   -1    0    0    0    0 -0.00000000000E+00 -0.00000000000E+00 -0.74505805969E-08  0.93827000000E+00  0.93827000000E+00 0.  1.
     999902    2    1    2    0    0 -0.14698302426E-02  0.23761756924E-02 -0.25787266374E-01  0.10179918096E+01  0.10176613065E+01 0.  0.
     999903    2    3    3    0    0  0.88171198754E-01 -0.31674049012E-01 -0.88632803807E-01  0.13055477331E+00  0.20282239838E-01 0.  0.
         14    1    1    2    0    0  0.14698302426E-02 -0.23761756924E-02  0.25787266374E-01  0.25938190356E-01  0.00000000000E+00 0. -1.
     999901    1    3    3    0    0 -0.89641028996E-01  0.34050224705E-01  0.62845537433E-01  0.88743703633E+00  0.88000000000E+00 0. -1.
        -11    1    4    4    0    0  0.54709376530E-01 -0.27544470073E-01 -0.48454808637E-01  0.78102133857E-01  0.51100000000E-03 0.  1.
         11    1    4    4    0    0  0.33461822223E-01 -0.41295789389E-02 -0.40177995170E-01  0.52452639453E-01  0.51100000000E-03 0. -1.
</event>
<event>
 8    1  0.1143506E+005  0.1043930E+01  0.7957747E-01            NaN
         13   -1    0    0    0    0  0.00000000000E+00  0.00000000000E+00  0.74505805969E-08  0.10566000000E+00  0.10566000000E+00 0.  1.
     999900   -1    0    0    0    0 -0.00000000000E+00 -0.00000000000E+00 -0.74505805969E-08  0.93827000000E+00  0.93827000000E+00 0.  1.
     999902    2    1    2    0    0  0.10881024295E-01  0.66563110315E-03 -0.21792681771E-01  0.10195627939E+01  0.10192715683E+01 0.  0.
     999903    2    3    3    0    0 -0.21433551701E-02 -0.23086546934E-01  0.12309999425E+00  0.12730291696E+00  0.22690118181E-01 0.  0.
         14    1    1    2    0    0 -0.10881024295E-01 -0.66563110315E-03  0.21792681771E-01  0.24367206102E-01  0.00000000000E+00 0.  1.
     999901    1    3    3    0    0  0.13024379466E-01  0.23752178037E-01 -0.14489267602E+00  0.89225987693E+00  0.88000000000E+00 0.  1.
        -11    1    4    4    0    0 -0.96046489203E-02 -0.19546833274E-02  0.31133348042E-01  0.32643782702E-01  0.51100000000E-03 0.  1.
         11    1    4    4    0    0  0.74612937502E-02 -0.21131863606E-01  0.91966646206E-01  0.94659134262E-01  0.51100000000E-03 0. -1.
</event>
<event>
 8    1  0.1143506E+005  0.1043930E+01  0.7957747E-01            NaN
         13   -1    0    0    0    0  0.00000000000E+00  0.00000000000E+00  0.74505805969E-08  0.10566000000E+00  0.10566000000E+00 0. -1.
     999900   -1    0    0    0    0 -0.00000000000E+00 -0.00000000000E+00 -0.74505805969E-08  0.93827000000E+00  0.93827000000E+00 0. -1.
     999902    2    1    2    0    0  0.88072572488E-02 -0.42088821941E-02  0.21434703482E-01  0.10203773147E+01  0.10201054531E+01 0.  0.
     999903    2    3    3    0    0  0.11137172690E+00  0.26434590695E-01  0.64094720371E-01  0.13286485291E+00  0.21035370715E-01 0.  0.
         14    1    1    2    0    0 -0.88072572488E-02  0.42088821941E-02 -0.21434703482E-01  0.23552685260E-01  0.00000000000E+00 0.  1.
     999901    1    3    3    0    0 -0.10256446965E+00 -0.30643472889E-01 -0.42660016889E-01  0.88751246183E+00  0.88000000000E+00 0. -1.
        -11    1    4    4    0    0  0.76324311709E-01  0.27967857773E-01  0.45539665521E-01  0.93175768755E-01  0.51100000000E-03 0. -1.
         11    1    4    4    0    0  0.35047415191E-01 -0.15332670777E-02  0.18555054850E-01  0.39689084154E-01  0.51100000000E-03 0.  1.
</event>
<event>
 8    1  0.1143506E+005  0.1043930E+01  0.7957747E-01            NaN
         13   -1    0    0    0    0  0.00000000000E+00  0.00000000000E+00  0.74505805969E-08  0.10566000000E+00  0.10566000000E+00 0.  1.
     999900   -1    0    0    0    0 -0.00000000000E+00 -0.00000000000E+00 -0.74505805969E-08  0.93827000000E+00  0.93827000000E+00 0.  1.
     999902    2    1    2    0    0  0.22682030506E-01 -0.95463044727E-02 -0.74014407626E-02  0.10182319891E+01  0.10179076559E+01 0.  0.
     999903    2    3    3    0    0  0.81651154727E-02 -0.11976715468E+00 -0.46703833731E-01  0.13036710373E+00  0.20087140142E-01 0.  0.
         14    1    1    2    0    0 -0.22682030506E-01  0.95463044727E-02  0.74014407626E-02  0.25698010863E-01  0.00000000000E+00 0. -1.
     999901    1    3    3    0    0  0.14516915033E-01  0.11022085021E+00  0.39302392968E-01  0.88786488541E+00  0.88000000000E+00 0.  1.
        -11    1    4    4    0    0  0.14715341586E-01 -0.71507266334E-01 -0.27686386660E-01  0.78080903836E-01  0.51100000000E-03 0. -1.
         11    1    4    4    0    0 -0.65502261134E-02 -0.48259888347E-01 -0.19017447071E-01  0.52286199896E-01  0.51100000000E-03 0.  1.
</event>
<event>
 8    1  0.1143506E+005  0.1043930E+01  0.7957747E-01            NaN
         13   -1    0    0    0    0  0.00000000000E+00  0.00000000000E+00  0.74505805969E-08  0.10566000000E+00  0.10566000000E+00 0.  1.
     999900   -1    0    0    0    0 -0.00000000000E+00 -0.00000000000E+00 -0.74505805969E-08  0.93827000000E+00  0.93827000000E+00 0.  1.
     999902    2    1    2    0    0  0.92219583561E-02 -0.17472760468E-01 -0.12545964898E-01  0.10205260877E+01  0.10202576893E+01 0.  0.
     999903    2    3    3    0    0 -0.55449051693E-01 -0.99745754042E-01 -0.64164233532E-01  0.13282364284E+00  0.22388801857E-01 0.  0.
         14    1    1    2    0    0 -0.92219583561E-02  0.17472760468E-01  0.12545964898E-01  0.23403912270E-01  0.00000000000E+00 0.  1.
     999901    1    3    3    0    0  0.64671010049E-01  0.82272993574E-01  0.51618268635E-01  0.88770244489E+00  0.88000000000E+00 0. -1.
        -11    1    4    4    0    0 -0.23948707626E-01 -0.27558761110E-01 -0.12349382399E-01  0.38546002095E-01  0.51100000000E-03 0. -1.
         11    1    4    4    0    0 -0.31500344067E-01 -0.72186992932E-01 -0.51814851133E-01  0.94277640742E-01  0.51100000000E-03 0.  1.
</event>
<event>
 8    1  0.1143506E+005  0.1043930E+01  0.7957747E-01            NaN
         13   -1    0    0    0    0  0.00000000000E+00  0.00000000000E+00  0.74505805969E-08  0.10566000000E+00  0.10566000000E+00 0.  1.
     999900   -1    0    0    0    0 -0.00000000000E+00 -0.00000000000E+00 -0.74505805969E-08  0.93827000000E+00  0.93827000000E+00 0.  1.
     999902    2    1    2    0    0  0.13595757308E-01 -0.12886328281E-01  0.14967321809E-01  0.10199524523E+01  0.10196705753E+01 0.  0.
     999903    2    3    3    0    0  0.18870535290E-01 -0.24098438597E-01  0.12756932623E+00  0.13269107809E+00  0.19903702268E-01 0.  0.
         14    1    1    2    0    0 -0.13595757308E-01  0.12886328281E-01 -0.14967321809E-01  0.23977547737E-01  0.00000000000E+00 0. -1.
     999901    1    3    3    0    0 -0.52747779826E-02  0.11212110316E-01 -0.11260200442E+00  0.88726137417E+00  0.88000000000E+00 0.  1.
        -11    1    4    4    0    0  0.15839869652E-01 -0.57437982951E-02  0.76536323428E-01  0.78370674454E-01  0.51100000000E-03 0. -1.
         11    1    4    4    0    0  0.30306656382E-02 -0.18354640302E-01  0.51033002806E-01  0.54320403636E-01  0.51100000000E-03 0.  1.
</event>
<event>
 8    1  0.1143506E+005  0.1043930E+01  0.7957747E-01            NaN
         13   -1    0    0    0    0  0.00000000000E+00  0.00000000000E+00  0.74505805969E-08  0.10566000000E+00  0.10566000000E+00 0.  1.
     999900   -1    0    0    0    0 -0.00000000000E+00 -0.00000000000E+00 -0.74505805969E-08  0.93827000000E+00  0.93827000000E+00 0.  1.
     999902    2    1    2    0    0 -0.23554412860E-01  0.25503575917E-02  0.35139068534E-02  0.10199787531E+01  0.10196975014E+01 0.  0.
     999903    2    3    3    0    0 -0.39431963579E-01 -0.11409183880E+00 -0.46386073241E-01  0.13073890542E+00  0.19213697434E-01 0.  0.
         14    1    1    2    0    0  0.23554412860E-01 -0.25503575917E-02 -0.35139068534E-02  0.23951246949E-01  0.00000000000E+00 0.  1.
     999901    1    3    3    0    0  0.15877550718E-01  0.11664219639E+00  0.49899980094E-01  0.88923984763E+00  0.88000000000E+00 0.  1.
        -11    1    4    4    0    0 -0.18361256170E-01 -0.70760663150E-01 -0.35815559975E-01  0.81407755373E-01  0.51100000000E-03 0. -1.
         11    1    4    4    0    0 -0.21070707409E-01 -0.43331175646E-01 -0.10570513265E-01  0.49331150050E-01  0.51100000000E-03 0.  1.
</event>
<event>
 8    1  0.1143506E+005  0.1043930E+01  0.7957747E-01            NaN
         13   -1    0    0    0    0  0.00000000000E+00  0.00000000000E+00  0.74505805969E-08  0.10566000000E+00  0.10566000000E+00 0. -1.
     999900   -1    0    0    0    0 -0.00000000000E+00 -0.00000000000E+00 -0.74505805969E-08  0.93827000000E+00  0.93827000000E+00 0.  1.
     999902    2    1    2    0    0 -0.59564646778E-02  0.17211946436E-01  0.10000716463E-01  0.10231515279E+01  0.10229405184E+01 0.  0.
     999903    2    3    3    0    0  0.49919829955E-01 -0.11499734065E+00  0.33565128602E-01  0.13121165473E+00  0.19326217928E-01 0.  0.
         14    1    1    2    0    0  0.59564646778E-02 -0.17211946436E-01 -0.10000716463E-01  0.20778472065E-01  0.00000000000E+00 0. -1.
     999901    1    3    3    0    0 -0.55876294632E-01  0.13220928709E+00 -0.23564412139E-01  0.89193987321E+00  0.88000000000E+00 0.  1.
        -11    1    4    4    0    0  0.34940708395E-01 -0.96590020049E-01  0.23168691161E-01  0.10529736202E+00  0.51100000000E-03 0.  1.
         11    1    4    4    0    0  0.14979121559E-01 -0.18407320601E-01  0.10396437441E-01  0.25914292714E-01  0.51100000000E-03 0. -1.
</event>
<event>
 8    1  0.1143506E+005  0.1043930E+01  0.7957747E-01            NaN
         13   -1    0    0    0    0  0.00000000000E+00  0.00000000000E+00  0.74505805969E-08  0.10566000000E+00  0.10566000000E+00 0. -1.
     999900   -1    0    0    0    0 -0.00000000000E+00 -0.00000000000E+00 -0.74505805969E-08  0.93827000000E+00  0.93827000000E+00 0.  1.
     999902    2    1    2    0    0  0.73817982494E-02  0.21829916832E-01 -0.55465068349E-02  0.10202276804E+01  0.10199523126E+01 0.  0.
     999903    2    3    3    0    0  0.72700026298E-02  0.16966823433E-01  0.12738431964E+00  0.13023090135E+00  0.19814054080E-01 0.  0.
         14    1    1    2    0    0 -0.73817982494E-02 -0.21829916832E-01  0.55465068349E-02  0.23702319556E-01  0.00000000000E+00 0. -1.
     999901    1    3    3    0    0  0.11179561961E-03  0.48630933988E-02 -0.13293082648E+00  0.88999677910E+00  0.88000000000E+00 0.  1.
        -11    1    4    4    0    0  0.12440342592E-01  0.17889233500E-01  0.10375294791E+00  0.10601755572E+00  0.51100000000E-03 0. -1.
         11    1    4    4    0    0 -0.51703399620E-02 -0.92241006669E-03  0.23631371731E-01  0.24213345628E-01  0.51100000000E-03 0.  1.
</event>
<event>
 7    1  0.1143506E+005  0.1043930E+01  0.7957747E-01            NaN
         13   -1    0    0    0    0  0.00000000000E+00  0.00000000000E+00  0.74505805969E-08  0.10566000000E+00  0.10566000000E+00 0.  1.
     999900   -1    0    0    0    0 -0.00000000000E+00 -0.00000000000E+00 -0.74505805969E-08  0.93827000000E+00  0.93827000000E+00 0.  1.
     999903    2    1    2    0    0 -0.96191511501E-01 -0.20921813870E-01 -0.40692397076E-01  0.11044637666E+00  0.29189069131E-01 0.  0.
         14    1    1    2    0    0  0.30425970001E-01 -0.37381815648E-01  0.34344259539E-02  0.48321165893E-01  0.00000000000E+00 0. -1.
     999901    1    1    2    0    0  0.65765541500E-01  0.58303629518E-01  0.37257971122E-01  0.88516245745E+00  0.88000000000E+00 0. -1.
        -11    1    3    3    0    0 -0.76365423836E-01 -0.13118291548E-01 -0.43641939441E-01  0.88930577024E-01  0.51100000000E-03 0.  1.
         11    1    3    3    0    0 -0.19826087665E-01 -0.78035223213E-02  0.29495423645E-02  0.21515799634E-01  0.51100000000E-03 0. -1.
</event>
<event>
 8    1  0.1143506E+005  0.1043930E+01  0.7957747E-01            NaN
         13   -1    0    0    0    0  0.00000000000E+00  0.00000000000E+00  0.74505805969E-08  0.10566000000E+00  0.10566000000E+00 0. -1.
     999900   -1    0    0    0    0 -0.00000000000E+00 -0.00000000000E+00 -0.74505805969E-08  0.93827000000E+00  0.93827000000E+00 0.  1.
     999902    2    1    2    0    0 -0.13408550766E-02 -0.18131442877E-01 -0.16097384702E-01  0.10196468184E+01  0.10193576219E+01 0.  0.
     999903    2    3    3    0    0 -0.72526230418E-01  0.60039792844E-01 -0.85364374442E-01  0.13061587654E+00  0.30142991853E-01 0.  0.
         14    1    1    2    0    0  0.13408550766E-02  0.18131442877E-01  0.16097384702E-01  0.24283181575E-01  0.00000000000E+00 0. -1.
     999901    1    3    3    0    0  0.71185375341E-01 -0.78171235721E-01  0.69266989740E-01  0.88903094188E+00  0.88000000000E+00 0. -1.
        -11    1    4    4    0    0 -0.23861643188E-01  0.23055893560E-01 -0.49962117963E-01  0.59978551132E-01  0.51100000000E-03 0.  1.
         11    1    4    4    0    0 -0.48664587229E-01  0.36983899284E-01 -0.35402256479E-01  0.70637325411E-01  0.51100000000E-03 0. -1.
</event>
<event>
 8    1  0.1143506E+005  0.1043930E+01  0.7957747E-01            NaN
         13   -1    0    0    0    0  0.00000000000E+00  0.00000000000E+00  0.74505805969E-08  0.10566000000E+00  0.10566000000E+00 0.  1.
     999900   -1    0    0    0    0 -0.00000000000E+00 -0.00000000000E+00 -0.74505805969E-08  0.93827000000E+00  0.93827000000E+00 0.  1.
     999902    2    1    2    0    0  0.16937404775E-01 -0.16370140285E-01  0.31031368169E-02  0.10201710726E+01  0.10198943723E+01 0.  0.
     999903    2    3    3    0    0 -0.37315270608E-01 -0.12422634250E+00 -0.12817744681E-01  0.13178501484E+00  0.19452042746E-01 0.  0.
         14    1    1    2    0    0 -0.16937404775E-01  0.16370140285E-01 -0.31031368169E-02  0.23758927408E-01  0.00000000000E+00 0. -1.
     999901    1    3    3    0    0  0.54252675383E-01  0.10785620221E+00  0.15920881498E-01  0.88838605775E+00  0.88000000000E+00 0.  1.
        -11    1    4    4    0    0 -0.29368696395E-01 -0.75553288842E-01 -0.99805789871E-03  0.81068347852E-01  0.51100000000E-03 0. -1.
         11    1    4    4    0    0 -0.79465742128E-02 -0.48673053654E-01 -0.11819686783E-01  0.50716666988E-01  0.51100000000E-03 0.  1.
</event>
<event>
 8    1  0.1143506E+005  0.1043930E+01  0.7957747E-01            NaN
         13   -1    0    0    0    0  0.00000000000E+00  0.00000000000E+00  0.74505805969E-08  0.10566000000E+00  0.10566000000E+00 0.  1.
     999900   -1    0    0    0    0 -0.00000000000E+00 -0.00000000000E+00 -0.74505805969E-08  0.93827000000E+00  0.93827000000E+00 0. -1.
     999902    2    1    2    0    0  0.16291232691E-02  0.23620430394E-02 -0.23356312624E-01  0.10203980934E+01  0.10201267168E+01 0.  0.
     999903    2    3    3    0    0  0.55626489509E-01  0.11671537867E+00 -0.10284425201E-01  0.13126184107E+00  0.20177105015E-01 0.  0.
         14    1    1    2    0    0 -0.16291232691E-02 -0.23620430394E-02  0.23356312624E-01  0.23531906623E-01  0.00000000000E+00 0.  1.
     999901    1    3    3    0    0 -0.53997366240E-01 -0.11435333563E+00 -0.13071887422E-01  0.88913625231E+00  0.88000000000E+00 0. -1.
        -11    1    4    4    0    0  0.52142519394E-01  0.90955987416E-01 -0.74163330868E-02  0.10510517158E+00  0.51100000000E-03 0.  1.
         11    1    4    4    0    0  0.34839701149E-02  0.25759391249E-01 -0.28680921143E-02  0.26156669487E-01  0.51100000000E-03 0. -1.
</event>
<event>
 8    1  0.1143506E+005  0.1043930E+01  0.7957747E-01            NaN
         13   -1    0    0    0    0  0.00000000000E+00  0.00000000000E+00  0.74505805969E-08  0.10566000000E+00  0.10566000000E+00 0.  1.
     999900   -1    0    0    0    0 -0.00000000000E+00 -0.00000000000E+00 -0.74505805969E-08  0.93827000000E+00  0.93827000000E+00 0.  1.
     999902    2    1    2    0    0  0.13390613168E-02  0.17825460000E-03 -0.18513181135E-01  0.10253675989E+01  0.10251995660E+01 0.  0.
     999903    2    3    3    0    0 -0.89255928194E-01  0.50737060532E-01 -0.87820127088E-01  0.13656666630E+00  0.19930117748E-01 0.  0.
         14    1    1    2    0    0 -0.13390613168E-02 -0.17825460000E-03  0.18513181135E-01  0.18562401129E-01  0.00000000000E+00 0.  1.
     999901    1    3    3    0    0  0.90594989511E-01 -0.50558805932E-01  0.69306945953E-01  0.88880093257E+00  0.88000000000E+00 0. -1.
        -11    1    4    4    0    0 -0.17904836462E-01  0.16127115959E-01 -0.12310970474E-01  0.27064518339E-01  0.51100000000E-03 0.  1.
         11    1    4    4    0    0 -0.71351091732E-01  0.34609944572E-01 -0.75509156614E-01  0.10950214796E+00  0.51100000000E-03 0. -1.
</event>
<event>
 8    1  0.1143506E+005  0.1043930E+01  0.7957747E-01            NaN
         13   -1    0    0    0    0  0.00000000000E+00  0.00000000000E+00  0.74505805969E-08  0.10566000000E+00  0.10566000000E+00 0. -1.
     999900   -1    0    0    0    0 -0.00000000000E+00 -0.00000000000E+00 -0.74505805969E-08  0.93827000000E+00  0.93827000000E+00 0.  1.
     999902    2    1    2    0    0 -0.14115566415E-02 -0.16052036695E-01  0.16376506596E-01  0.10209550061E+01  0.10206964653E+01 0.  0.
     999903    2    3    3    0    0 -0.96009475046E-01 -0.44277106470E-02 -0.85249292223E-01  0.12999389919E+00  0.19838046335E-01 0.  0.
         14    1    1    2    0    0  0.14115566415E-02  0.16052036695E-01 -0.16376506596E-01  0.22974993852E-01  0.00000000000E+00 0.  1.
     999901    1    3    3    0    0  0.94597918405E-01 -0.11624326049E-01  0.10162579882E+00  0.89096110696E+00  0.88000000000E+00 0. -1.
        -11    1    4    4    0    0 -0.29211265392E-01  0.14015450163E-02 -0.38053807746E-01  0.47995997324E-01  0.51100000000E-03 0.  1.
         11    1    4    4    0    0 -0.66798209655E-01 -0.58292556633E-02 -0.47195484477E-01  0.81997901867E-01  0.51100000000E-03 0. -1.
</event>
<event>
 8    1  0.1143506E+005  0.1043930E+01  0.7957747E-01            NaN
         13   -1    0    0    0    0  0.00000000000E+00  0.00000000000E+00  0.74505805969E-08  0.10566000000E+00  0.10566000000E+00 0. -1.
     999900   -1    0    0    0    0 -0.00000000000E+00 -0.00000000000E+00 -0.74505805969E-08  0.93827000000E+00  0.93827000000E+00 0. -1.
     999902    2    1    2    0    0  0.25393114484E-01  0.63566382407E-02 -0.52269020212E-02  0.10172365997E+01  0.10168863074E+01 0.  0.
     999903    2    3    3    0    0 -0.81535901347E-01  0.53950418658E-01  0.76412957601E-01  0.12574119928E+00  0.20326293919E-01 0.  0.
         14    1    1    2    0    0 -0.25393114484E-01 -0.63566382407E-02  0.52269020212E-02  0.26693400264E-01  0.00000000000E+00 0. -1.
     999901    1    3    3    0    0  0.10692901583E+00 -0.47593780417E-01 -0.81639859622E-01  0.89149540046E+00  0.88000000000E+00 0.  1.
        -11    1    4    4    0    0 -0.37110948116E-01  0.16625218911E-01  0.22210748739E-01  0.46337877103E-01  0.51100000000E-03 0.  1.
         11    1    4    4    0    0 -0.44424953231E-01  0.37325199747E-01  0.54202208861E-01  0.79403322173E-01  0.51100000000E-03 0. -1.
</event>
<event>
 8    1  0.1143506E+005  0.1043930E+01  0.7957747E-01            NaN
         13   -1    0    0    0    0  0.00000000000E+00  0.00000000000E+00  0.74505805969E-08  0.10566000000E+00  0.10566000000E+00 0. -1.
     999900   -1    0    0    0    0 -0.00000000000E+00 -0.00000000000E+00 -0.74505805969E-08  0.93827000000E+00  0.93827000000E+00 0. -1.
     999902    2    1    2    0    0 -0.26513819478E-02 -0.48247458373E-02  0.22694099445E-01  0.10205776950E+01  0.10203104926E+01 0.  0.
     999903    2    3    3    0    0  0.47917917872E-01  0.97345723710E-01  0.72294866384E-01  0.13183909733E+00  0.19562287727E-01 0.  0.
         14    1    1    2    0    0  0.26513819478E-02  0.48247458373E-02 -0.22694099445E-01  0.23352304988E-01  0.00000000000E+00 0.  1.
     999901    1    3    3    0    0 -0.50569299820E-01 -0.10217046955E+00 -0.49600766939E-01  0.88873859768E+00  0.88000000000E+00 0.  1.
        -11    1    4    4    0    0  0.20591448000E-01  0.22779982419E-01  0.22969310415E-01  0.38350823612E-01  0.51100000000E-03 0. -1.
         11    1    4    4    0    0  0.27326469872E-01  0.74565741290E-01  0.49325555969E-01  0.93488273716E-01  0.51100000000E-03 0.  1.
</event>
<event>
 8    1  0.1143506E+005  0.1043930E+01  0.7957747E-01            NaN
         13   -1    0    0    0    0  0.00000000000E+00  0.00000000000E+00  0.74505805969E-08  0.10566000000E+00  0.10566000000E+00 0. -1.
     999900   -1    0    0    0    0 -0.00000000000E+00 -0.00000000000E+00 -0.74505805969E-08  0.93827000000E+00  0.93827000000E+00 0. -1.
     999902    2    1    2    0    0 -0.57153560914E-02 -0.17642252086E-01  0.14621337775E-01  0.10203143723E+01  0.10200410386E+01 0.  0.
     999903    2    3    3    0    0  0.13870755860E-01 -0.12684850265E+00  0.32608452598E-01  0.13316547991E+00  0.19667063009E-01 0.  0.
         14    1    1    2    0    0  0.57153560914E-02  0.17642252086E-01 -0.14621337775E-01  0.23615627712E-01  0.00000000000E+00 0.  1.
     999901    1    3    3    0    0 -0.19586111952E-01  0.10920625056E+00 -0.17987114823E-01  0.88714889238E+00  0.88000000000E+00 0.  1.
        -11    1    4    4    0    0  0.79754232433E-03 -0.55692785070E-01  0.22670418655E-01  0.60137603757E-01  0.51100000000E-03 0.  1.
         11    1    4    4    0    0  0.13073213536E-01 -0.71155717578E-01  0.99380339427E-02  0.73027876156E-01  0.51100000000E-03 0. -1.
</event>
<event>
 8    1  0.1143506E+005  0.1043930E+01  0.7957747E-01            NaN
         13   -1    0    0    0    0  0.00000000000E+00  0.00000000000E+00  0.74505805969E-08  0.10566000000E+00  0.10566000000E+00 0. -1.
     999900   -1    0    0    0    0 -0.00000000000E+00 -0.00000000000E+00 -0.74505805969E-08  0.93827000000E+00  0.93827000000E+00 0.  1.
     999902    2    1    2    0    0  0.69542248938E-02 -0.22332753556E-01 -0.12196729120E-02  0.10205077728E+01  0.10202389493E+01 0.  0.
     999903    2    3    3    0    0  0.10152345482E+00  0.66875455336E-01 -0.41804776188E-01  0.13003116199E+00  0.19522432539E-01 0.  0.
         14    1    1    2    0    0 -0.69542248938E-02  0.22332753556E-01  0.12196729120E-02  0.23422227206E-01  0.00000000000E+00 0. -1.
     999901    1    3    3    0    0 -0.94569229921E-01 -0.89208208892E-01  0.40585103276E-01  0.89047661080E+00  0.88000000000E+00 0. -1.
        -11    1    4    4    0    0  0.36213244401E-01  0.35282081486E-01 -0.16208253816E-01  0.53096072894E-01  0.51100000000E-03 0. -1.
         11    1    4    4    0    0  0.65310210414E-01  0.31593373850E-01 -0.25596522372E-01  0.76935089096E-01  0.51100000000E-03 0.  1.
</event>
<event>
 8    1  0.1143506E+005  0.1043930E+01  0.7957747E-01            NaN
         13   -1    0    0    0    0  0.00000000000E+00  0.00000000000E+00  0.74505805969E-08  0.10566000000E+00  0.10566000000E+00 0.  1.
     999900   -1    0    0    0    0 -0.00000000000E+00 -0.00000000000E+00 -0.74505805969E-08  0.93827000000E+00  0.93827000000E+00 0. -1.
     999902    2    1    2    0    0  0.20819881466E-02  0.30247990815E-02  0.23185474366E-01  0.10204555393E+01  0.10201855014E+01 0.  0.
     999903    2    3    3    0    0 -0.12331684587E+00  0.22278309921E-01 -0.28041626634E-01  0.12988281282E+00  0.19489604236E-01 0.  0.
         14    1    1    2    0    0 -0.20819881466E-02 -0.30247990815E-02 -0.23185474366E-01  0.23474460712E-01  0.00000000000E+00 0. -1.
     999901    1    3    3    0    0  0.12539883402E+00 -0.19253510840E-01  0.51227101000E-01  0.89057272647E+00  0.88000000000E+00 0.  1.
        -11    1    4    4    0    0 -0.64054350945E-01  0.20236576959E-01 -0.19651896667E-01  0.69992407343E-01  0.51100000000E-03 0.  1.
         11    1    4    4    0    0 -0.59262494926E-01  0.20417329622E-02 -0.83897299665E-02  0.59890405477E-01  0.51100000000E-03 0. -1.
</event>
<event>
 8    1  0.1143506E+005  0.1043930E+01  0.7957747E-01            NaN
         13   -1    0    0    0    0  0.00000000000E+00  0.00000000000E+00  0.74505805969E-08  0.10566000000E+00  0.10566000000E+00 0.  1.
     999900   -1    0    0    0    0 -0.00000000000E+00 -0.00000000000E+00 -0.74505805969E-08  0.93827000000E+00  0.93827000000E+00 0.  1.
     999902    2    1    2    0    0 -0.11841375701E-02 -0.11661039623E-01 -0.20171952921E-01  0.10205999826E+01  0.10203332959E+01 0.  0.
     999903    2    3    3    0    0  0.10335223774E+00  0.45007063373E-01  0.58394292781E-01  0.12913389653E+00  0.23629409714E-01 0.  0.
         14    1    1    2    0    0  0.11841375701E-02  0.11661039623E-01  0.20171952921E-01  0.23330017393E-01  0.00000000000E+00 0.  1.
     999901    1    3    3    0    0 -0.10453637531E+00 -0.56668102997E-01 -0.78566245702E-01  0.89146608608E+00  0.88000000000E+00 0.  1.
        -11    1    4    4    0    0  0.35906076550E-01  0.57298783368E-02  0.25610717249E-01  0.44477497659E-01  0.51100000000E-03 0.  1.
         11    1    4    4    0    0  0.67446161195E-01  0.39277185037E-01  0.32783575532E-01  0.84656398872E-01  0.51100000000E-03 0. -1.
</event>
<event>
 8    1  0.1143506E+005  0.1043930E+01  0.7957747E-01            NaN
         13   -1    0    0    0    0  0.00000000000E+00  0.00000000000E+00  0.74505805969E-08  0.10566000000E+00  0.10566000000E+00 0. -1.
     999900   -1    0    0    0    0 -0.00000000000E+00 -0.00000000000E+00 -0.74505805969E-08  0.93827000000E+00  0.93827000000E+00 0. -1.
     999902    2    1    2    0    0  0.16922323074E-01 -0.10173927888E-01  0.11785759934E-01  0.10209348274E+01  0.10206758270E+01 0.  0.
     999903    2    3    3    0    0  0.13131169979E+00  0.61271307487E-02  0.12502381067E-01  0.13338135430E+00  0.18814141225E-01 0.  0.
         14    1    1    2    0    0 -0.16922323074E-01  0.10173927888E-01 -0.11785759934E-01  0.22995172626E-01  0.00000000000E+00 0.  1.
     999901    1    3    3    0    0 -0.11438937672E+00 -0.16301058637E-01 -0.71662113284E-03  0.88755347307E+00  0.88000000000E+00 0. -1.
        -11    1    4    4    0    0  0.10189261141E+00  0.88127155313E-02  0.16395546464E-01  0.10358012975E+00  0.51100000000E-03 0.  1.
         11    1    4    4    0    0  0.29419088381E-01 -0.26855847826E-02 -0.38931653968E-02  0.29801224549E-01  0.51100000000E-03 0. -1.
</event>
<event>
 8    1  0.1143506E+005  0.1043930E+01  0.7957747E-01            NaN
         13   -1    0    0    0    0  0.00000000000E+00  0.00000000000E+00  0.74505805969E-08  0.10566000000E+00  0.10566000000E+00 0. -1.
     999900   -1    0    0    0    0 -0.00000000000E+00 -0.00000000000E+00 -0.74505805969E-08  0.93827000000E+00  0.93827000000E+00 0. -1.
     999902    2    1    2    0    0 -0.13913809109E-01  0.16922794053E-01  0.86115182809E-02  0.10203899641E+01  0.10201183978E+01 0.  0.
     999903    2    3    3    0    0  0.35207214529E-02  0.59734665075E-01 -0.11443615203E+00  0.13062732817E+00  0.19678421728E-01 0.  0.
         14    1    1    2    0    0  0.13913809109E-01 -0.16922794053E-01 -0.86115182809E-02  0.23540035887E-01  0.00000000000E+00 0. -1.
     999901    1    3    3    0    0 -0.17434530561E-01 -0.42811871022E-01  0.12304767031E+00  0.88976263595E+00  0.88000000000E+00 0.  1.
        -11    1    4    4    0    0 -0.47528830008E-02  0.54047433531E-02 -0.21252263320E-01  0.22443728852E-01  0.51100000000E-03 0.  1.
         11    1    4    4    0    0  0.82736044536E-02  0.54329921722E-01 -0.93183888709E-01  0.10818359932E+00  0.51100000000E-03 0. -1.
</event>
<event>
 8    1  0.1143506E+005  0.1043930E+01  0.7957747E-01            NaN
         13   -1    0    0    0    0  0.00000000000E+00  0.00000000000E+00  0.74505805969E-08  0.10566000000E+00  0.10566000000E+00 0. -1.
     999900   -1    0    0    0    0 -0.00000000000E+00 -0.00000000000E+00 -0.74505805969E-08  0.93827000000E+00  0.93827000000E+00 0. -1.
     999902    2    1    2    0    0  0.13022546094E-01 -0.89858090583E-02 -0.18096283061E-01  0.10198923851E+01  0.10196090771E+01 0.  0.
     999903    2    3    3    0    0  0.90112164921E-01  0.46888153259E-01  0.76286315083E-01  0.12973914891E+00  0.26342811333E-01 0.  0.
         14    1    1    2    0    0 -0.13022546094E-01  0.89858090583E-02  0.18096283061E-01  0.24037614937E-01  0.00000000000E+00 0. -1.
     999901    1    3    3    0    0 -0.77089618827E-01 -0.55873962317E-01 -0.94382598144E-01  0.89015323615E+00  0.88000000000E+00 0. -1.
        -11    1    4    4    0    0  0.44162072007E-01  0.85723271209E-02  0.35833325072E-01  0.57515751781E-01  0.51100000000E-03 0. -1.
         11    1    4    4    0    0  0.45950092914E-01  0.38315826138E-01  0.40452990011E-01  0.72223397132E-01  0.51100000000E-03 0.  1.
</event>
<event>
 8    1  0.1143506E+005  0.1043930E+01  0.7957747E-01            NaN
         13   -1    0    0    0    0  0.00000000000E+00  0.00000000000E+00  0.74505805969E-08  0.10566000000E+00  0.10566000000E+00 0.  1.
     999900   -1    0    0    0    0 -0.00000000000E+00 -0.00000000000E+00 -0.74505805969E-08  0.93827000000E+00  0.93827000000E+00 0. -1.
     999902    2    1    2    0    0 -0.19500935813E-01 -0.68284956924E-02  0.12323769018E-01  0.10198719424E+01  0.10195881467E+01 0.  0.
     999903    2    3    3    0    0  0.98642260316E-01  0.18701454134E-01 -0.74895517573E-01  0.12733802314E+00  0.22925829950E-01 0.  0.
         14    1    1    2    0    0  0.19500935813E-01  0.68284956924E-02 -0.12323769018E-01  0.24058057566E-01  0.00000000000E+00 0. -1.
     999901    1    3    3    0    0 -0.11814319613E+00 -0.25529949826E-01  0.87219286591E-01  0.89253391929E+00  0.88000000000E+00 0.  1.
        -11    1    4    4    0    0  0.52273488579E-01 -0.87561001506E-03 -0.32794599019E-01  0.61717348832E-01  0.51100000000E-03 0. -1.
         11    1    4    4    0    0  0.46368771737E-01  0.19577064149E-01 -0.42100918554E-01  0.65620674312E-01  0.51100000000E-03 0.  1.
</event>
<event>
 8    1  0.1143506E+005  0.1043930E+01  0.7957747E-01            NaN
         13   -1    0    0    0    0  0.00000000000E+00  0.00000000000E+00  0.74505805969E-08  0.10566000000E+00  0.10566000000E+00 0. -1.
     999900   -1    0    0    0    0 -0.00000000000E+00 -0.00000000000E+00 -0.74505805969E-08  0.93827000000E+00  0.93827000000E+00 0. -1.
     999902    2    1    2    0    0 -0.13008744184E-01  0.45618124937E-02  0.18784845934E-01  0.10206296138E+01  0.10203636120E+01 0.  0.
     999903    2    3    3    0    0 -0.69413989253E-01  0.83372934305E-01  0.75130611847E-01  0.13351767618E+00  0.20322719763E-01 0.  0.
         14    1    1    2    0    0  0.13008744184E-01 -0.45618124937E-02 -0.18784845934E-01  0.23300386161E-01  0.00000000000E+00 0. -1.
     999901    1    3    3    0    0  0.56405245070E-01 -0.78811121812E-01 -0.56345765913E-01  0.88711193765E+00  0.88000000000E+00 0. -1.
        -11    1    4    4    0    0 -0.23797588233E-01  0.42606996179E-01  0.38930892902E-01  0.62430416243E-01  0.51100000000E-03 0.  1.
         11    1    4    4    0    0 -0.45616401020E-01  0.40765938126E-01  0.36199718945E-01  0.71087259942E-01  0.51100000000E-03 0. -1.
</event>
<event>
 8    1  0.1143506E+005  0.1043930E+01  0.7957747E-01            NaN
         13   -1    0    0    0    0  0.00000000000E+00  0.00000000000E+00  0.74505805969E-08  0.10566000000E+00  0.10566000000E+00 0. -1.
     999900   -1    0    0    0    0 -0.00000000000E+00 -0.00000000000E+00 -0.74505805969E-08  0.93827000000E+00  0.93827000000E+00 0. -1.
     999902    2    1    2    0    0  0.18049718611E-01 -0.88450325346E-02 -0.85781081870E-02  0.10220756896E+01  0.10218420154E+01 0.  0.
     999903    2    3    3    0    0  0.12273891737E+00 -0.51714254542E-01 -0.36308460372E-02  0.13482032956E+00  0.20594471595E-01 0.  0.
         14    1    1    2    0    0 -0.18049718611E-01  0.88450325346E-02  0.85781081870E-02  0.21854310388E-01  0.00000000000E+00 0. -1.
     999901    1    3    3    0    0 -0.10468919876E+00  0.42869222008E-01 -0.49472621498E-02  0.88725536005E+00  0.88000000000E+00 0. -1.
        -11    1    4    4    0    0  0.99293377179E-01 -0.33042096515E-01 -0.54373615069E-02  0.10478922137E+00  0.51100000000E-03 0. -1.
         11    1    4    4    0    0  0.23445540191E-01 -0.18672158027E-01  0.18065154697E-02  0.30031108194E-01  0.51100000000E-03 0.  1.
</event>
<event>
 8    1  0.1143506E+005  0.1043930E+01  0.7957747E-01            NaN
         13   -1    0    0    0    0  0.00000000000E+00  0.00000000000E+00  0.74505805969E-08  0.10566000000E+00  0.10566000000E+00 0.  1.
     999900   -1    0    0    0    0 -0.00000000000E+00 -0.00000000000E+00 -0.74505805969E-08  0.93827000000E+00  0.93827000000E+00 0. -1.
     999902    2    1    2    0    0  0.88103138540E-02 -0.20251176568E-01 -0.72547481301E-02  0.10206842874E+01  0.10204195468E+01 0.  0.
     999903    2    3    3    0    0 -0.12396094850E+00  0.17807637701E-01  0.24730545410E-01  0.12933713819E+00  0.20810255312E-01 0.  0.
         14    1    1    2    0    0 -0.88103138540E-02  0.20251176568E-01  0.72547481301E-02  0.23245712573E-01  0.00000000000E+00 0.  1.
     999901    1    3    3    0    0  0.13277126235E+00 -0.38058814268E-01 -0.31985293540E-01  0.89134714924E+00  0.88000000000E+00 0. -1.
        -11    1    4    4    0    0 -0.11198384755E+00  0.18705591797E-01  0.16408481931E-01  0.11471608727E+00  0.51100000000E-03 0.  1.
         11    1    4    4    0    0 -0.11977100944E-01 -0.89795409669E-03  0.83220634791E-02  0.14621050924E-01  0.51100000000E-03 0. -1.
</event>
<event>
 8    1  0.1143506E+005  0.1043930E+01  0.7957747E-01            NaN
         13   -1    0    0    0    0  0.00000000000E+00  0.00000000000E+00  0.74505805969E-08  0.10566000000E+00  0.10566000000E+00 0.  1.
     999900   -1    0    0    0    0 -0.00000000000E+00 -0.00000000000E+00 -0.74505805969E-08  0.93827000000E+00  0.93827000000E+00 0.  1.
     999902    2    1    2    0    0 -0.67463339285E-02 -0.15048428513E-02 -0.23018637066E-01  0.10198959569E+01  0.10196127342E+01 0.  0.
     999903    2    3    3    0    0  0.12251435508E+00  0.24396191071E-01  0.24385501431E-01  0.12881439971E+00  0.19838234636E-01 0.  0.
         14    1    1    2    0    0  0.67463339285E-02  0.15048428513E-02  0.23018637066E-01  0.24034043061E-01  0.00000000000E+00 0.  1.
     999901    1    3    3    0    0 -0.12926068901E+00 -0.25901033922E-01 -0.47404138497E-01  0.89108155723E+00  0.88000000000E+00 0. -1.
        -11    1    4    4    0    0  0.88400912469E-01  0.14537851609E-01  0.25933116371E-01  0.93267669106E-01  0.51100000000E-03 0. -1.
         11    1    4    4    0    0  0.34113442612E-01  0.98583394624E-02 -0.15476149398E-02  0.35546730607E-01  0.51100000000E-03 0.  1.
</event>
<event>
 8    1  0.1143506E+005  0.1043930E+01  0.7957747E-01            NaN
         13   -1    0    0    0    0  0.00000000000E+00  0.00000000000E+00  0.74505805969E-08  0.10566000000E+00  0.10566000000E+00 0.  1.
     999900   -1    0    0    0    0 -0.00000000000E+00 -0.00000000000E+00 -0.74505805969E-08  0.93827000000E+00  0.93827000000E+00 0.  1.
     999902    2    1    2    0    0  0.17137635505E-01 -0.70440583852E-02 -0.16672420845E-01  0.10190043721E+01  0.10186994765E+01 0.  0.
     999903    2    3    3    0    0 -0.30325221740E-01  0.38116886290E-01  0.11522339302E+00  0.12676632121E+00  0.20512284125E-01 0.  0.
         14    1    1    2    0    0 -0.17137635505E-01  0.70440583852E-02  0.16672420845E-01  0.24925627897E-01  0.00000000000E+00 0.  1.
     999901    1    3    3    0    0  0.47462857245E-01 -0.45160944675E-01 -0.13189581387E+00  0.89223805089E+00  0.88000000000E+00 0.  1.
        -11    1    4    4    0    0 -0.16136213826E-01  0.56422458738E-02  0.44130083538E-01  0.47327980405E-01  0.51100000000E-03 0.  1.
         11    1    4    4    0    0 -0.14189007914E-01  0.32474640416E-01  0.71093309484E-01  0.79438340807E-01  0.51100000000E-03 0. -1.
</event>
<event>
 8    1  0.1143506E+005  0.1043930E+01  0.7957747E-01            NaN
         13   -1    0    0    0    0  0.00000000000E+00  0.00000000000E+00  0.74505805969E-08  0.10566000000E+00  0.10566000000E+00 0. -1.
     999900   -1    0    0    0    0 -0.00000000000E+00 -0.00000000000E+00 -0.74505805969E-08  0.93827000000E+00  0.93827000000E+00 0. -1.
     999902    2    1    2    0    0  0.11074699595E-01 -0.13484880494E-01  0.15983166721E-01  0.10202666826E+01  0.10199922308E+01 0.  0.
     999903    2    3    3    0    0  0.10809325728E+00  0.43788609930E-01 -0.54916279447E-01  0.13025568000E+00  0.18685550403E-01 0.  0.
         14    1    1    2    0    0 -0.11074699595E-01  0.13484880494E-01 -0.15983166721E-01  0.23663317424E-01  0.00000000000E+00 0.  1.
     999901    1    3    3    0    0 -0.97018557689E-01 -0.57273490423E-01  0.70899446169E-01  0.89001100258E+00  0.88000000000E+00 0.  1.
        -11    1    4    4    0    0  0.40000044601E-01  0.23265080605E-01 -0.14718162402E-01  0.48560817221E-01  0.51100000000E-03 0.  1.
         11    1    4    4    0    0  0.68093212683E-01  0.20523529325E-01 -0.40198117045E-01  0.81694862779E-01  0.51100000000E-03 0. -1.
</event>
<event>
 8    1  0.1143506E+005  0.1043930E+01  0.7957747E-01            NaN
         13   -1    0    0    0    0  0.00000000000E+00  0.00000000000E+00  0.74505805969E-08  0.10566000000E+00  0.10566000000E+00 0.  1.
     999900   -1    0    0    0    0 -0.00000000000E+00 -0.00000000000E+00 -0.74505805969E-08  0.93827000000E+00  0.93827000000E+00 0.  1.
     999902    2    1    2    0    0 -0.21472579182E-01  0.60610200729E-02 -0.63289017403E-02  0.10207381347E+01  0.10204746332E+01 0.  0.
     999903    2    3    3    0    0 -0.12861940055E+00  0.16750736530E-02 -0.31003272083E-01  0.13388498874E+00  0.20450703198E-01 0.  0.
         14    1    1    2    0    0  0.21472579182E-01 -0.60610200729E-02  0.63289017403E-02  0.23191865347E-01  0.00000000000E+00 0.  1.
     999901    1    3    3    0    0  0.10714682137E+00  0.43859464199E-02  0.24674370343E-01  0.88685314591E+00  0.88000000000E+00 0.  1.
        -11    1    4    4    0    0 -0.70743001379E-01 -0.92363559823E-02 -0.16576009329E-01  0.73245530391E-01  0.51100000000E-03 0. -1.
         11    1    4    4    0    0 -0.57876399172E-01  0.10911429635E-01 -0.14427262755E-01  0.60639458354E-01  0.51100000000E-03 0.  1.
</event>
<event>
 8    1  0.1143506E+005  0.1043930E+01  0.7957747E-01            NaN
         13   -1    0    0    0    0  0.00000000000E+00  0.00000000000E+00  0.74505805969E-08  0.10566000000E+00  0.10566000000E+00 0.  1.
     999900   -1    0    0    0    0 -0.00000000000E+00 -0.00000000000E+00 -0.74505805969E-08  0.93827000000E+00  0.93827000000E+00 0. -1.
     999902    2    1    2    0    0  0.25292852370E-02  0.85261345149E-02  0.21748302664E-01  0.10204335977E+01  0.10201630489E+01 0.  0.
     999903    2    3    3    0    0 -0.39464244395E-01  0.11877399933E+00 -0.32548272209E-01  0.13090216693E+00  0.20280477849E-01 0.  0.
         14    1    1    2    0    0 -0.25292852370E-02 -0.85261345149E-02 -0.21748302664E-01  0.23496402328E-01  0.00000000000E+00 0.  1.
     999901    1    3    3    0    0  0.41993529632E-01 -0.11024786482E+00  0.54296574873E-01  0.88953143074E+00  0.88000000000E+00 0.  1.
        -11    1    4    4    0    0 -0.21487677665E-01  0.92396430337E-01 -0.23974424767E-01  0.97846077052E-01  0.51100000000E-03 0. -1.
         11    1    4    4    0    0 -0.17976566730E-01  0.26377568993E-01 -0.85738474420E-02  0.33056089883E-01  0.51100000000E-03 0.  1.
</event>
<event>
 8    1  0.1143506E+005  0.1043930E+01  0.7957747E-01            NaN
         13   -1    0    0    0    0  0.00000000000E+00  0.00000000000E+00  0.74505805969E-08  0.10566000000E+00  0.10566000000E+00 0. -1.
     999900   -1    0    0    0    0 -0.00000000000E+00 -0.00000000000E+00 -0.74505805969E-08  0.93827000000E+00  0.93827000000E+00 0. -1.
     999902    2    1    2    0    0  0.42634681914E-02 -0.29880825757E-02  0.23260127329E-01  0.10200943267E+01  0.10198158148E+01 0.  0.
     999903    2    3    3    0    0 -0.71642911163E-01 -0.85583173281E-01 -0.61369003445E-01  0.12894573235E+00  0.20091317468E-01 0.  0.
         14    1    1    2    0    0 -0.42634681914E-02  0.29880825757E-02 -0.23260127329E-01  0.23835673304E-01  0.00000000000E+00 0.  1.
     999901    1    3    3    0    0  0.75906379354E-01  0.82595090706E-01  0.84629130774E-01  0.89114859435E+00  0.88000000000E+00 0.  1.
        -11    1    4    4    0    0 -0.21427081155E-01 -0.40890963377E-01 -0.25924384261E-01  0.52948328708E-01  0.51100000000E-03 0.  1.
         11    1    4    4    0    0 -0.50215830008E-01 -0.44692209905E-01 -0.35444619184E-01  0.75997403638E-01  0.51100000000E-03 0. -1.
</event>
<event>
 8    1  0.1143506E+005  0.1043930E+01  0.7957747E-01            NaN
         13   -1    0    0    0    0  0.00000000000E+00  0.00000000000E+00  0.74505805969E-08  0.10566000000E+00  0.10566000000E+00 0. -1.
     999900   -1    0    0    0    0 -0.00000000000E+00 -0.00000000000E+00 -0.74505805969E-08  0.93827000000E+00  0.93827000000E+00 0. -1.
     999902    2    1    2    0    0 -0.22341301042E-01  0.46441029984E-02  0.57059949114E-02  0.10204085246E+01  0.10201373914E+01 0.  0.
     999903    2    3    3    0    0 -0.58557795654E-01  0.70426077274E-01  0.95016174303E-01  0.13270631627E+00  0.13930010966E-01 0.  0.
         14    1    1    2    0    0  0.22341301042E-01 -0.46441029984E-02 -0.57059949114E-02  0.23521475354E-01  0.00000000000E+00 0. -1.
     999901    1    3    3    0    0  0.36216494612E-01 -0.65781974275E-01 -0.89310179391E-01  0.88770220838E+00  0.88000000000E+00 0. -1.
        -11    1    4    4    0    0 -0.21753842426E-01  0.23695476383E-01  0.24418173731E-01  0.40388285315E-01  0.51100000000E-03 0. -1.
         11    1    4    4    0    0 -0.36803953228E-01  0.46730600891E-01  0.70598000572E-01  0.92318030950E-01  0.51100000000E-03 0.  1.
</event>
<event>
 8    1  0.1143506E+005  0.1043930E+01  0.7957747E-01            NaN
         13   -1    0    0    0    0  0.00000000000E+00  0.00000000000E+00  0.74505805969E-08  0.10566000000E+00  0.10566000000E+00 0.  1.
     999900   -1    0    0    0    0 -0.00000000000E+00 -0.00000000000E+00 -0.74505805969E-08  0.93827000000E+00  0.93827000000E+00 0.  1.
     999902    2    1    2    0    0  0.55637166244E-02  0.23291627289E-01 -0.30496915775E-02  0.10197896714E+01  0.10195039080E+01 0.  0.
     999903    2    3    3    0    0 -0.67193343124E-01  0.11195594631E+00  0.12784939634E-01  0.13220548571E+00  0.16302039634E-01 0.  0.
         14    1    1    2    0    0 -0.55637166244E-02 -0.23291627289E-01  0.30496915775E-02  0.24140328564E-01  0.00000000000E+00 0.  1.
     999901    1    3    3    0    0  0.72757059748E-01 -0.88664319017E-01 -0.15834631212E-01  0.88758418573E+00  0.88000000000E+00 0.  1.
        -11    1    4    4    0    0 -0.29276940877E-01  0.40497159524E-01 -0.17903886991E-02  0.50006257702E-01  0.51100000000E-03 0. -1.
         11    1    4    4    0    0 -0.37916402247E-01  0.71458786782E-01  0.14575328333E-01  0.82199228006E-01  0.51100000000E-03 0.  1.
</event>
<event>
 8    1  0.1143506E+005  0.1043930E+01  0.7957747E-01            NaN
         13   -1    0    0    0    0  0.00000000000E+00  0.00000000000E+00  0.74505805969E-08  0.10566000000E+00  0.10566000000E+00 0.  1.
     999900   -1    0    0    0    0 -0.00000000000E+00 -0.00000000000E+00 -0.74505805969E-08  0.93827000000E+00  0.93827000000E+00 0. -1.
     999902    2    1    2    0    0  0.23288727592E-02  0.11215261700E-01  0.21745941388E-01  0.10193517228E+01  0.10190553680E+01 0.  0.
     999903    2    3    3    0    0 -0.10406459234E+00  0.63627190958E-01  0.44055253960E-01  0.13111510727E+00  0.19298889730E-01 0.  0.
         14    1    1    2    0    0 -0.23288727592E-02 -0.11215261700E-01 -0.21745941388E-01  0.24578277201E-01  0.00000000000E+00 0. -1.
     999901    1    3    3    0    0  0.10639346510E+00 -0.52411929257E-01 -0.22309312572E-01  0.88823661553E+00  0.88000000000E+00 0.  1.
        -11    1    4    4    0    0 -0.54077222578E-01  0.34664362942E-01  0.13053099269E-01  0.65548520818E-01  0.51100000000E-03 0. -1.
         11    1    4    4    0    0 -0.49987369759E-01  0.28962828016E-01  0.31002154691E-01  0.65566586449E-01  0.51100000000E-03 0.  1.
</event>
<event>
 8    1  0.1143506E+005  0.1043930E+01  0.7957747E-01            NaN
         13   -1    0    0    0    0  0.00000000000E+00  0.00000000000E+00  0.74505805969E-08  0.10566000000E+00  0.10566000000E+00 0.  1.
     999900   -1    0    0    0    0 -0.00000000000E+00 -0.00000000000E+00 -0.74505805969E-08  0.93827000000E+00  0.93827000000E+00 0. -1.
     999902    2    1    2    0    0 -0.75632966831E-02 -0.16487513981E-01 -0.15597031374E-01  0.10200070202E+01  0.10197264399E+01 0.  0.
     999903    2    3    3    0    0  0.14858141736E-01 -0.17817372646E-01  0.12616403311E+00  0.12837890894E+00  0.50554787879E-02 0.  0.
         14    1    1    2    0    0  0.75632966831E-02  0.16487513981E-01  0.15597031374E-01  0.23922979782E-01  0.00000000000E+00 0.  1.
     999901    1    3    3    0    0 -0.22421438419E-01  0.13298586648E-02 -0.14176106448E+00  0.89162811128E+00  0.88000000000E+00 0. -1.
        -11    1    4    4    0    0  0.11523958038E-01 -0.13862646472E-01  0.10760270690E+00  0.10910352070E+00  0.51100000000E-03 0.  1.
         11    1    4    4    0    0  0.33341836985E-02 -0.39547261737E-02  0.18561326212E-01  0.19275388240E-01  0.51100000000E-03 0. -1.
</event>
<event>
 8    1  0.1143506E+005  0.1043930E+01  0.7957747E-01            NaN
         13   -1    0    0    0    0  0.00000000000E+00  0.00000000000E+00  0.74505805969E-08  0.10566000000E+00  0.10566000000E+00 0.  1.
     999900   -1    0    0    0    0 -0.00000000000E+00 -0.00000000000E+00 -0.74505805969E-08  0.93827000000E+00  0.93827000000E+00 0.  1.
     999902    2    1    2    0    0  0.16376324099E-01 -0.13623616175E-01  0.10456240291E-01  0.10201998531E+01  0.10199238307E+01 0.  0.
     999903    2    3    3    0    0  0.63033321679E-01  0.11183003164E+00  0.26307516366E-02  0.13004439962E+00  0.20626909584E-01 0.  0.
         14    1    1    2    0    0 -0.16376324099E-01  0.13623616175E-01 -0.10456240291E-01  0.23730146854E-01  0.00000000000E+00 0. -1.
     999901    1    3    3    0    0 -0.46656997580E-01 -0.12545364782E+00  0.78254886539E-02  0.89015545353E+00  0.88000000000E+00 0. -1.
        -11    1    4    4    0    0  0.40153316143E-01  0.53476405804E-01  0.68299820196E-02  0.67222946606E-01  0.51100000000E-03 0. -1.
         11    1    4    4    0    0  0.22880005535E-01  0.58353625838E-01 -0.41992303830E-02  0.62821453012E-01  0.51100000000E-03 0.  1.
</event>
<event>
 8    1  0.1143506E+005  0.1043930E+01  0.7957747E-01            NaN
         13   -1    0    0    0    0  0.00000000000E+00  0.00000000000E+00  0.74505805969E-08  0.10566000000E+00  0.10566000000E+00 0. -1.
     999900   -1    0    0    0    0 -0.00000000000E+00 -0.00000000000E+00 -0.74505805969E-08  0.93827000000E+00  0.93827000000E+00 0. -1.
     999902    2    1    2    0    0 -0.34796621574E-02 -0.14272862312E-01  0.17785238559E-01  0.10208618974E+01  0.10206012327E+01 0.  0.
     999903    2    3    3    0    0 -0.41334786389E-02  0.95303621256E-01 -0.83691695150E-01  0.12827856722E+00  0.18741000530E-01 0.  0.
         14    1    1    2    0    0  0.34796621574E-02  0.14272862312E-01 -0.17785238559E-01  0.23068102607E-01  0.00000000000E+00 0.  1.
     999901    1    3    3    0    0  0.65381648155E-03 -0.10957648357E+00  0.10147693371E+00  0.89258333017E+00  0.88000000000E+00 0.  1.
        -11    1    4    4    0    0  0.60232783827E-02  0.34634051150E-01 -0.37080187799E-01  0.51097933713E-01  0.51100000000E-03 0.  1.
         11    1    4    4    0    0 -0.10156757022E-01  0.60669570106E-01 -0.46611507351E-01  0.77180633507E-01  0.51100000000E-03 0. -1.
</event>
<event>
 8    1  0.1143506E+005  0.1043930E+01  0.7957747E-01            NaN
         13   -1    0    0    0    0  0.00000000000E+00  0.00000000000E+00  0.74505805969E-08  0.10566000000E+00  0.10566000000E+00 0.  1.
     999900   -1    0    0    0    0 -0.00000000000E+00 -0.00000000000E+00 -0.74505805969E-08  0.93827000000E+00  0.93827000000E+00 0.  1.
     999902    2    1    2    0    0 -0.22055108215E-01  0.52288638474E-02 -0.59964616562E-02  0.10204837558E+01  0.10202143743E+01 0.  0.
     999903    2    3    3    0    0  0.43710985477E-01  0.96361117304E-01 -0.74033094472E-01  0.13073140254E+00  0.20339256446E-01 0.  0.
         14    1    1    2    0    0  0.22055108215E-01 -0.52288638474E-02  0.59964616562E-02  0.23446244218E-01  0.00000000000E+00 0. -1.
     999901    1    3    3    0    0 -0.65766093693E-01 -0.91132253456E-01  0.68036632816E-01  0.88975235324E+00  0.88000000000E+00 0. -1.
        -11    1    4    4    0    0  0.41726722748E-01  0.93768174434E-01 -0.65945148304E-01  0.12199431804E+00  0.51100000000E-03 0.  1.
         11    1    4    4    0    0  0.19842627293E-02  0.25929428697E-02 -0.80879461686E-02  0.87370844983E-02  0.51100000000E-03 0. -1.
</event>
<event>
 8    1  0.1143506E+005  0.1043930E+01  0.7957747E-01            NaN
         13   -1    0    0    0    0  0.00000000000E+00  0.00000000000E+00  0.74505805969E-08  0.10566000000E+00  0.10566000000E+00 0.  1.
     999900   -1    0    0    0    0 -0.00000000000E+00 -0.00000000000E+00 -0.74505805969E-08  0.93827000000E+00  0.93827000000E+00 0.  1.
     999902    2    1    2    0    0 -0.82321284339E-02 -0.12437990077E-02  0.21958091298E-01  0.10204465431E+01  0.10201762958E+01 0.  0.
     999903    2    3    3    0    0 -0.42204275912E-01  0.93214206997E-01 -0.76284220825E-01  0.12930796039E+00  0.20764801515E-01 0.  0.
         14    1    1    2    0    0  0.82321284339E-02  0.12437990077E-02 -0.21958091298E-01  0.23483456900E-01  0.00000000000E+00 0. -1.
     999901    1    3    3    0    0  0.33972147478E-01 -0.94458006005E-01  0.98242312123E-01  0.89113858271E+00  0.88000000000E+00 0. -1.
        -11    1    4    4    0    0 -0.21367482019E-01  0.60435470841E-01 -0.57699200328E-01  0.86246589863E-01  0.51100000000E-03 0.  1.
         11    1    4    4    0    0 -0.20836793893E-01  0.32778736156E-01 -0.18585020497E-01  0.43061370527E-01  0.51100000000E-03 0. -1.
</event>
<event>
 8    1  0.1143506E+005  0.1043930E+01  0.7957747E-01            NaN
         13   -1    0    0    0    0  0.00000000000E+00  0.00000000000E+00  0.74505805969E-08  0.10566000000E+00  0.10566000000E+00 0. -1.
     999900   -1    0    0    0    0 -0.00000000000E+00 -0.00000000000E+00 -0.74505805969E-08  0.93827000000E+00  0.93827000000E+00 0. -1.
     999902    2    1    2    0    0  0.41027326033E-02 -0.22054232529E-01  0.67052013410E-02  0.10205167279E+01  0.10202481122E+01 0.  0.
     999903    2    3    3    0    0 -0.10082290748E-01  0.59991643696E-01  0.11334548829E+00  0.13017696603E+00  0.19954770575E-01 0.  0.
         14    1    1    2    0    0 -0.41027326033E-02  0.22054232529E-01 -0.67052013410E-02  0.23413272140E-01  0.00000000000E+00 0. -1.
     999901    1    3    3    0    0  0.14185023351E-01 -0.82045876225E-01 -0.10664028695E+00  0.89033976183E+00  0.88000000000E+00 0.  1.
        -11    1    4    4    0    0 -0.73236546589E-02  0.33067322005E-01  0.42573298384E-01  0.54404324814E-01  0.51100000000E-03 0. -1.
         11    1    4    4    0    0 -0.27586360889E-02  0.26924321691E-01  0.70772189909E-01  0.75772641217E-01  0.51100000000E-03 0.  1.
</event>
<event>
 8    1  0.1143506E+005  0.1043930E+01  0.7957747E-01            NaN
         13   -1    0    0    0    0  0.00000000000E+00  0.00000000000E+00  0.74505805969E-08  0.10566000000E+00  0.10566000000E+00 0.  1.
     999900   -1    0    0    0    0 -0.00000000000E+00 -0.00000000000E+00 -0.74505805969E-08  0.93827000000E+00  0.93827000000E+00 0.  1.
     999902    2    1    2    0    0  0.24166703553E-01 -0.79413357398E-03  0.20116019841E-02  0.10196667201E+01  0.10193780032E+01 0.  0.
     999903    2    3    3    0    0  0.46870506780E-01  0.61155646629E-01  0.10445138479E+00  0.13127089219E+00  0.19623909677E-01 0.  0.
         14    1    1    2    0    0 -0.24166703553E-01  0.79413357398E-03 -0.20116019841E-02  0.24263279896E-01  0.00000000000E+00 0. -1.
     999901    1    3    3    0    0 -0.22703803227E-01 -0.61949780203E-01 -0.10243978281E+00  0.88839582791E+00  0.88000000000E+00 0.  1.
        -11    1    4    4    0    0  0.27759128947E-01  0.48264521085E-01  0.65123593590E-01  0.85681834706E-01  0.51100000000E-03 0.  1.
         11    1    4    4    0    0  0.19111377833E-01  0.12891125543E-01  0.39327791205E-01  0.45589057486E-01  0.51100000000E-03 0. -1.
</event>
<event>
 8    1  0.1143506E+005  0.1043930E+01  0.7957747E-01            NaN
         13   -1    0    0    0    0  0.00000000000E+00  0.00000000000E+00  0.74505805969E-08  0.10566000000E+00  0.10566000000E+00 0. -1.
     999900   -1    0    0    0    0 -0.00000000000E+00 -0.00000000000E+00 -0.74505805969E-08  0.93827000000E+00  0.93827000000E+00 0.  1.
     999902    2    1    2    0    0 -0.22537039071E-01 -0.33867553541E-02 -0.88899567865E-02  0.10194673842E+01  0.10191738457E+01 0.  0.
     999903    2    3    3    0    0  0.76271497994E-01 -0.99777074576E-01  0.18908250059E-01  0.12827326337E+00  0.17991724693E-01 0.  0.
         14    1    1    2    0    0  0.22537039071E-01  0.33867553541E-02  0.88899567865E-02  0.24462615837E-01  0.00000000000E+00 0. -1.
     999901    1    3    3    0    0 -0.98808537065E-01  0.96390319222E-01 -0.27798206846E-01  0.89119412080E+00  0.88000000000E+00 0. -1.
        -11    1    4    4    0    0  0.92181942920E-02 -0.15124368616E-01  0.88674283540E-02  0.19814490623E-01  0.51100000000E-03 0.  1.
         11    1    4    4    0    0  0.67053303702E-01 -0.84652705960E-01  0.10040821705E-01  0.10845877274E+00  0.51100000000E-03 0. -1.
</event>
<event>
 8    1  0.1143506E+005  0.1043930E+01  0.7957747E-01            NaN
         13   -1    0    0    0    0  0.00000000000E+00  0.00000000000E+00  0.74505805969E-08  0.10566000000E+00  0.10566000000E+00 0.  1.
     999900   -1    0    0    0    0 -0.00000000000E+00 -0.00000000000E+00 -0.74505805969E-08  0.93827000000E+00  0.93827000000E+00 0. -1.
     999902    2    1    2    0    0 -0.19631951643E-01 -0.86946756518E-02 -0.40997261161E-02  0.10220709363E+01  0.10218371594E+01 0.  0.
     999903    2    3    3    0    0  0.99782298006E-01 -0.14060059583E-01  0.79710106236E-01  0.13004367310E+00  0.20086403496E-01 0.  0.
         14    1    1    2    0    0  0.19631951643E-01  0.86946756518E-02  0.40997261161E-02  0.21859063664E-01  0.00000000000E+00 0. -1.
     999901    1    3    3    0    0 -0.11941424965E+00  0.53653839313E-02 -0.83809832352E-01  0.89202726324E+00  0.88000000000E+00 0. -1.
        -11    1    4    4    0    0  0.35331730956E-01 -0.10649624280E-01  0.39210116934E-01  0.53846449285E-01  0.51100000000E-03 0. -1.
         11    1    4    4    0    0  0.64450567051E-01 -0.34104353028E-02  0.40499989302E-01  0.76197223811E-01  0.51100000000E-03 0.  1.
</event>
<event>
 8    1  0.1143506E+005  0.1043930E+01  0.7957747E-01            NaN
         13   -1    0    0    0    0  0.00000000000E+00  0.00000000000E+00  0.74505805969E-08  0.10566000000E+00  0.10566000000E+00 0. -1.
     999900   -1    0    0    0    0 -0.00000000000E+00 -0.00000000000E+00 -0.74505805969E-08  0.93827000000E+00  0.93827000000E+00 0. -1.
     999902    2    1    2    0    0  0.86232449200E-02  0.22307280114E-01  0.83442017661E-02  0.10186001598E+01  0.10182851687E+01 0.  0.
     999903    2    3    3    0    0 -0.19022750223E-01 -0.11559979711E+00  0.44009407850E-01  0.12671750505E+00  0.19882655520E-01 0.  0.
         14    1    1    2    0    0 -0.86232449200E-02 -0.22307280114E-01 -0.83442017661E-02  0.25329840153E-01  0.00000000000E+00 0. -1.
     999901    1    3    3    0    0  0.27645995143E-01  0.13790707722E+00 -0.35665206084E-01  0.89188265479E+00  0.88000000000E+00 0. -1.
        -11    1    4    4    0    0 -0.72891057954E-02 -0.90188117076E-01  0.29399858535E-01  0.95140108934E-01  0.51100000000E-03 0.  1.
         11    1    4    4    0    0 -0.11733644428E-01 -0.25411680032E-01  0.14609549315E-01  0.31577396121E-01  0.51100000000E-03 0. -1.
</event>
<event>
 8    1  0.1143506E+005  0.1043930E+01  0.7957747E-01            NaN
         13   -1    0    0    0    0  0.00000000000E+00  0.00000000000E+00  0.74505805969E-08  0.10566000000E+00  0.10566000000E+00 0.  1.
     999900   -1    0    0    0    0 -0.00000000000E+00 -0.00000000000E+00 -0.74505805969E-08  0.93827000000E+00  0.93827000000E+00 0.  1.
     999902    2    1    2    0    0 -0.11084150536E-01  0.10997786576E-02  0.22299461219E-01  0.10190034303E+01  0.10186985114E+01 0.  0.
     999903    2    3    3    0    0 -0.14799957565E-01  0.73122221693E-01  0.10720689421E+00  0.13198014329E+00  0.18961592960E-01 0.  0.
         14    1    1    2    0    0  0.11084150536E-01 -0.10997786576E-02 -0.22299461219E-01  0.24926569697E-01  0.00000000000E+00 0. -1.
     999901    1    3    3    0    0  0.37158070283E-02 -0.72022443036E-01 -0.84907432992E-01  0.88702328701E+00  0.88000000000E+00 0.  1.
        -11    1    4    4    0    0 -0.93605896259E-02  0.54497242285E-01  0.63786192074E-01  0.84418655966E-01  0.51100000000E-03 0.  1.
         11    1    4    4    0    0 -0.54393679388E-02  0.18624979408E-01  0.43420702138E-01  0.47561487326E-01  0.51100000000E-03 0. -1.
</event>
<event>
 8    1  0.1143506E+005  0.1043930E+01  0.7957747E-01            NaN
         13   -1    0    0    0    0  0.00000000000E+00  0.00000000000E+00  0.74505805969E-08  0.10566000000E+00  0.10566000000E+00 0. -1.
     999900   -1    0    0    0    0 -0.00000000000E+00 -0.00000000000E+00 -0.74505805969E-08  0.93827000000E+00  0.93827000000E+00 0. -1.
     999902    2    1    2    0    0 -0.96525582356E-02 -0.17086805056E-01 -0.60526461061E-02  0.10233930744E+01  0.10231869914E+01 0.  0.
     999903    2    3    3    0    0  0.12195264447E+00 -0.24156934594E-01  0.40502919343E-01  0.13236146062E+00  0.20568539050E-01 0.  0.
         14    1    1    2    0    0  0.96525582356E-02  0.17086805056E-01  0.60526461061E-02  0.20536925583E-01  0.00000000000E+00 0.  1.
     999901    1    3    3    0    0 -0.13160520271E+00  0.70701295376E-02 -0.46555565449E-01  0.89103161380E+00  0.88000000000E+00 0. -1.
        -11    1    4    4    0    0  0.91229460345E-01 -0.26567658583E-01  0.27600331590E-01  0.98947937534E-01  0.51100000000E-03 0. -1.
         11    1    4    4    0    0  0.30723184130E-01  0.24107239896E-02  0.12902587753E-01  0.33413523085E-01  0.51100000000E-03 0.  1.
</event>
<event>
 8    1  0.1143506E+005  0.1043930E+01  0.7957747E-01            NaN
         13   -1    0    0    0    0  0.00000000000E+00  0.00000000000E+00  0.74505805969E-08  0.10566000000E+00  0.10566000000E+00 0.  1.
     999900   -1    0    0    0    0 -0.00000000000E+00 -0.00000000000E+00 -0.74505805969E-08  0.93827000000E+00  0.93827000000E+00 0. -1.
     999902    2    1    2    0    0  0.54647712480E-02  0.12165766710E-01  0.18963904044E-01  0.10207459697E+01  0.10204826483E+01 0.  0.
     999903    2    3    3    0    0  0.29441821717E-01 -0.67397469671E-02 -0.12369755429E+00  0.12873441759E+00  0.18953107433E-01 0.  0.
         14    1    1    2    0    0 -0.54647712480E-02 -0.12165766710E-01 -0.18963904044E-01  0.23184030301E-01  0.00000000000E+00 0. -1.
     999901    1    3    3    0    0 -0.23977050469E-01  0.18905513677E-01  0.14266145833E+00  0.89201155211E+00  0.88000000000E+00 0.  1.
        -11    1    4    4    0    0  0.82825646049E-02  0.44903609756E-02 -0.58857895897E-01  0.59609372153E-01  0.51100000000E-03 0.  1.
         11    1    4    4    0    0  0.21159257112E-01 -0.11230107943E-01 -0.64839658390E-01  0.69125045440E-01  0.51100000000E-03 0. -1.
</event>
<event>
 8    1  0.1143506E+005  0.1043930E+01  0.7957747E-01            NaN
         13   -1    0    0    0    0  0.00000000000E+00  0.00000000000E+00  0.74505805969E-08  0.10566000000E+00  0.10566000000E+00 0. -1.
     999900   -1    0    0    0    0 -0.00000000000E+00 -0.00000000000E+00 -0.74505805969E-08  0.93827000000E+00  0.93827000000E+00 0. -1.
     999902    2    1    2    0    0 -0.46132862556E-02 -0.23090834140E-01  0.27303192767E-02  0.10202250707E+01  0.10199496415E+01 0.  0.
     999903    2    3    3    0    0  0.24930615679E-02  0.84970127070E-01 -0.94032927482E-01  0.12832216259E+00  0.19956154691E-01 0.  0.
         14    1    1    2    0    0  0.46132862556E-02  0.23090834140E-01 -0.27303192767E-02  0.23704929333E-01  0.00000000000E+00 0.  1.
     999901    1    3    3    0    0 -0.71063478235E-02 -0.10806096121E+00  0.96763246759E-01  0.89190290808E+00  0.88000000000E+00 0.  1.
        -11    1    4    4    0    0  0.69527724341E-02  0.32613539969E-01 -0.25609950422E-01  0.42048956176E-01  0.51100000000E-03 0.  1.
         11    1    4    4    0    0 -0.44597108662E-02  0.52356587101E-01 -0.68422977060E-01  0.86273206412E-01  0.51100000000E-03 0. -1.
</event>
<event>
 8    1  0.1143506E+005  0.1043930E+01  0.7957747E-01            NaN
         13   -1    0    0    0    0  0.00000000000E+00  0.00000000000E+00  0.74505805969E-08  0.10566000000E+00  0.10566000000E+00 0.  1.
     999900   -1    0    0    0    0 -0.00000000000E+00 -0.00000000000E+00 -0.74505805969E-08  0.93827000000E+00  0.93827000000E+00 0. -1.
     999902    2    1    2    0    0 -0.96307578015E-02 -0.48015552767E-02  0.26906655880E-01  0.10149511360E+01  0.10145373497E+01 0.  0.
     999903    2    3    3    0    0  0.37558053523E-01  0.80166881634E-01  0.89624763719E-01  0.12738143155E+00  0.18870467299E-01 0.  0.
         14    1    1    2    0    0  0.96307578015E-02  0.48015552767E-02 -0.26906655880E-01  0.28978864014E-01  0.00000000000E+00 0. -1.
     999901    1    3    3    0    0 -0.47188811325E-01 -0.84968436911E-01 -0.62718107840E-01  0.88756970444E+00  0.88000000000E+00 0. -1.
        -11    1    4    4    0    0  0.20402419297E-01  0.22648686980E-01  0.30873557552E-01  0.43389623322E-01  0.51100000000E-03 0.  1.
         11    1    4    4    0    0  0.17155634226E-01  0.57518194654E-01  0.58751206167E-01  0.83991808226E-01  0.51100000000E-03 0. -1.
</event>
<event>
 8    1  0.1143506E+005  0.1043930E+01  0.7957747E-01            NaN
         13   -1    0    0    0    0  0.00000000000E+00  0.00000000000E+00  0.74505805969E-08  0.10566000000E+00  0.10566000000E+00 0. -1.
     999900   -1    0    0    0    0 -0.00000000000E+00 -0.00000000000E+00 -0.74505805969E-08  0.93827000000E+00  0.93827000000E+00 0.  1.
     999902    2    1    2    0    0 -0.19799116814E-01 -0.11175450363E-01  0.69275516053E-02  0.10201626550E+01  0.10198857563E+01 0.  0.
     999903    2    3    3    0    0 -0.46819465181E-01 -0.11089698123E+00  0.53071041862E-01  0.13291764676E+00  0.18983218135E-01 0.  0.
         14    1    1    2    0    0  0.19799116814E-01  0.11175450363E-01 -0.69275516053E-02  0.23767345007E-01  0.00000000000E+00 0. -1.
     999901    1    3    3    0    0  0.27020348367E-01  0.99721530863E-01 -0.46143490256E-01  0.88724500823E+00  0.88000000000E+00 0.  1.
        -11    1    4    4    0    0 -0.42857363791E-01 -0.90400645900E-01  0.37396334719E-01  0.10680719724E+00  0.51100000000E-03 0.  1.
         11    1    4    4    0    0 -0.39621013902E-02 -0.20496335326E-01  0.15674707142E-01  0.26110449522E-01  0.51100000000E-03 0. -1.
</event>
<event>
 7    1  0.1143506E+005  0.1043930E+01  0.7957747E-01            NaN
         13   -1    0    0    0    0  0.00000000000E+00  0.00000000000E+00  0.74505805969E-08  0.10566000000E+00  0.10566000000E+00 0.  1.
     999900   -1    0    0    0    0 -0.00000000000E+00 -0.00000000000E+00 -0.74505805969E-08  0.93827000000E+00  0.93827000000E+00 0.  1.
     999903    2    1    2    0    0  0.66780458020E-01 -0.92673062828E-02  0.78654718736E-01  0.10549931232E+00  0.19950628591E-01 0.  0.
         14    1    1    2    0    0  0.32920115259E-01 -0.32839018371E-01 -0.17539015942E-01  0.49696601458E-01  0.00000000000E+00 0.  1.
     999901    1    1    2    0    0 -0.99700573279E-01  0.42106324654E-01 -0.61115702794E-01  0.88873408622E+00  0.88000000000E+00 0. -1.
        -11    1    3    3    0    0  0.53696403865E-01 -0.35886199375E-02  0.71620596433E-01  0.89587682945E-01  0.51100000000E-03 0. -1.
         11    1    3    3    0    0  0.13084054155E-01 -0.56786863453E-02  0.70341223029E-02  0.15911629374E-01  0.51100000000E-03 0.  1.
</event>
<event>
 8    1  0.1143506E+005  0.1043930E+01  0.7957747E-01            NaN
         13   -1    0    0    0    0  0.00000000000E+00  0.00000000000E+00  0.74505805969E-08  0.10566000000E+00  0.10566000000E+00 0.  1.
     999900   -1    0    0    0    0 -0.00000000000E+00 -0.00000000000E+00 -0.74505805969E-08  0.93827000000E+00  0.93827000000E+00 0.  1.
     999902    2    1    2    0    0  0.18695496295E-01  0.14827064679E-01  0.22609092179E-02  0.10199617890E+01  0.10196801341E+01 0.  0.
     999903    2    3    3    0    0 -0.73736307538E-01  0.74285027961E-01 -0.73911486077E-01  0.12986004112E+00  0.21104835366E-01 0.  0.
         14    1    1    2    0    0 -0.18695496295E-01 -0.14827064679E-01 -0.22609092179E-02  0.23968211014E-01  0.00000000000E+00 0. -1.
     999901    1    3    3    0    0  0.92431803833E-01 -0.59457963282E-01  0.76172395295E-01  0.89010174787E+00  0.88000000000E+00 0. -1.
        -11    1    4    4    0    0 -0.33726915101E-01  0.24506855523E-01 -0.19816323098E-01  0.46163173114E-01  0.51100000000E-03 0.  1.
         11    1    4    4    0    0 -0.40009392437E-01  0.49778172438E-01 -0.54095162979E-01  0.83696868001E-01  0.51100000000E-03 0. -1.
</event>
<event>
 8    1  0.1143506E+005  0.1043930E+01  0.7957747E-01            NaN
         13   -1    0    0    0    0  0.00000000000E+00  0.00000000000E+00  0.74505805969E-08  0.10566000000E+00  0.10566000000E+00 0.  1.
     999900   -1    0    0    0    0 -0.00000000000E+00 -0.00000000000E+00 -0.74505805969E-08  0.93827000000E+00  0.93827000000E+00 0. -1.
     999902    2    1    2    0    0 -0.21188265630E-01  0.14714921432E-02 -0.95049486726E-02  0.10206608801E+01  0.10203955999E+01 0.  0.
     999903    2    3    3    0    0 -0.38293546185E-01 -0.83156922779E-01 -0.93654601867E-01  0.13244034257E+00  0.19692394573E-01 0.  0.
         14    1    1    2    0    0  0.21188265630E-01 -0.14714921432E-02  0.95049486726E-02  0.23269119855E-01  0.00000000000E+00 0. -1.
     999901    1    3    3    0    0  0.17105280555E-01  0.84628414923E-01  0.84149653194E-01  0.88822053757E+00  0.88000000000E+00 0.  1.
        -11    1    4    4    0    0 -0.24022082106E-02 -0.23688691182E-01 -0.18977088879E-01  0.30451859016E-01  0.51100000000E-03 0. -1.
         11    1    4    4    0    0 -0.35891337975E-01 -0.59468231598E-01 -0.74677512988E-01  0.10198848356E+00  0.51100000000E-03 0.  1.
</event>
<event>
 8    1  0.1143506E+005  0.1043930E+01  0.7957747E-01            NaN
         13   -1    0    0    0    0  0.00000000000E+00  0.00000000000E+00  0.74505805969E-08  0.10566000000E+00  0.10566000000E+00 0. -1.
     999900   -1    0    0    0    0 -0.00000000000E+00 -0.00000000000E+00 -0.74505805969E-08  0.93827000000E+00  0.93827000000E+00 0. -1.
     999902    2    1    2    0    0  0.71974132170E-02 -0.15466870640E-01 -0.50480922512E-02  0.10261392698E+01  0.10259850345E+01 0.  0.
     999903    2    3    3    0    0 -0.51329040158E-01  0.11623973694E+00  0.35794516428E-01  0.13348026724E+00  0.19732904751E-01 0.  0.
         14    1    1    2    0    0 -0.71974132170E-02  0.15466870640E-01  0.50480922512E-02  0.17790730165E-01  0.00000000000E+00 0. -1.
     999901    1    3    3    0    0  0.58526453375E-01 -0.13170660758E+00 -0.40842608679E-01  0.89265900259E+00  0.88000000000E+00 0.  1.
        -11    1    4    4    0    0 -0.40983488843E-01  0.10556777022E+00  0.27851132204E-01  0.11661966881E+00  0.51100000000E-03 0. -1.
         11    1    4    4    0    0 -0.10345551316E-01  0.10671966720E-01  0.79433842233E-02  0.16860598436E-01  0.51100000000E-03 0.  1.
</event>
<event>
 8    1  0.1143506E+005  0.1043930E+01  0.7957747E-01            NaN
         13   -1    0    0    0    0  0.00000000000E+00  0.00000000000E+00  0.74505805969E-08  0.10566000000E+00  0.10566000000E+00 0. -1.
     999900   -1    0    0    0    0 -0.00000000000E+00 -0.00000000000E+00 -0.74505805969E-08  0.93827000000E+00  0.93827000000E+00 0.  1.
     999902    2    1    2    0    0 -0.13379944491E-01  0.17797975180E-01 -0.61348761556E-02  0.10208339497E+01  0.10205726458E+01 0.  0.
     999903    2    3    3    0    0 -0.12381381597E+00  0.51808442755E-02 -0.43858137509E-01  0.13304012428E+00  0.20480143336E-01 0.  0.
         14    1    1    2    0    0  0.13379944491E-01 -0.17797975180E-01  0.61348761556E-02  0.23096050323E-01  0.00000000000E+00 0. -1.
     999901    1    3    3    0    0  0.11043387148E+00  0.12617130904E-01  0.37723261353E-01  0.88779382539E+00  0.88000000000E+00 0.  1.
        -11    1    4    4    0    0 -0.61505066520E-01  0.11443309216E-01 -0.16510700171E-01  0.64704612467E-01  0.51100000000E-03 0.  1.
         11    1    4    4    0    0 -0.62308749450E-01 -0.62624649406E-02 -0.27347437337E-01  0.68335511815E-01  0.51100000000E-03 0. -1.
</event>
<event>
 8    1  0.1143506E+005  0.1043930E+01  0.7957747E-01            NaN
         13   -1    0    0    0    0  0.00000000000E+00  0.00000000000E+00  0.74505805969E-08  0.10566000000E+00  0.10566000000E+00 0. -1.
     999900   -1    0    0    0    0 -0.00000000000E+00 -0.00000000000E+00 -0.74505805969E-08  0.93827000000E+00  0.93827000000E+00 0.  1.
     999902    2    1    2    0    0 -0.38488173795E-02 -0.20661725809E-01  0.77834076773E-02  0.10215179108E+01  0.10212720207E+01 0.  0.
     999903    2    3    3    0    0  0.12813145925E+00  0.16909995475E-01  0.60598799189E-02  0.13088139781E+00  0.19738271237E-01 0.  0.
         14    1    1    2    0    0  0.38488173795E-02  0.20661725809E-01 -0.77834076773E-02  0.22412089231E-01  0.00000000000E+00 0.  1.
     999901    1    3    3    0    0 -0.13198027663E+00 -0.37571721284E-01  0.17235277584E-02  0.89063651295E+00  0.88000000000E+00 0. -1.
        -11    1    4    4    0    0  0.41180325804E-01  0.14702525145E-01  0.67950065280E-03  0.43734498066E-01  0.51100000000E-03 0.  1.
         11    1    4    4    0    0  0.86951133451E-01  0.22074703296E-02  0.53803792661E-02  0.87146899748E-01  0.51100000000E-03 0. -1.
</event>
<event>
 8    1  0.1143506E+005  0.1043930E+01  0.7957747E-01            NaN
         13   -1    0    0    0    0  0.00000000000E+00  0.00000000000E+00  0.74505805969E-08  0.10566000000E+00  0.10566000000E+00 0.  1.
     999900   -1    0    0    0    0 -0.00000000000E+00 -0.00000000000E+00 -0.74505805969E-08  0.93827000000E+00  0.93827000000E+00 0.  1.
     999902    2    1    2    0    0  0.11309896656E-01 -0.12813210876E-01 -0.16668693892E-01  0.10200566364E+01  0.10197772325E+01 0.  0.
     999903    2    3    3    0    0 -0.89689797305E-01  0.66727468854E-01 -0.62008788287E-01  0.12956049259E+00  0.21071700812E-01 0.  0.
         14    1    1    2    0    0 -0.11309896656E-01  0.12813210876E-01  0.16668693892E-01  0.23873363638E-01  0.00000000000E+00 0.  1.
     999901    1    3    3    0    0  0.10099969396E+00 -0.79540679730E-01  0.45340094395E-01  0.89049614377E+00  0.88000000000E+00 0. -1.
        -11    1    4    4    0    0 -0.38107242296E-01  0.34845677211E-01 -0.18213458559E-01  0.54757413465E-01  0.51100000000E-03 0. -1.
         11    1    4    4    0    0 -0.51582555009E-01  0.31881791644E-01 -0.43795329728E-01  0.74803079125E-01  0.51100000000E-03 0.  1.
</event>
<event>
 8    1  0.1143506E+005  0.1043930E+01  0.7957747E-01            NaN
         13   -1    0    0    0    0  0.00000000000E+00  0.00000000000E+00  0.74505805969E-08  0.10566000000E+00  0.10566000000E+00 0. -1.
     999900   -1    0    0    0    0 -0.00000000000E+00 -0.00000000000E+00 -0.74505805969E-08  0.93827000000E+00  0.93827000000E+00 0. -1.
     999902    2    1    2    0    0  0.11169715383E-01  0.20742086018E-01  0.15117593726E-03  0.10203711476E+01  0.10200991419E+01 0.  0.
     999903    2    3    3    0    0  0.75195449775E-02  0.12013515100E+00  0.53497064286E-01  0.13316311732E+00  0.19531560735E-01 0.  0.
         14    1    1    2    0    0 -0.11169715383E-01 -0.20742086018E-01 -0.15117593726E-03  0.23558852440E-01  0.00000000000E+00 0.  1.
     999901    1    3    3    0    0  0.36501704060E-02 -0.99393064987E-01 -0.53345888349E-01  0.88720803024E+00  0.88000000000E+00 0. -1.
        -11    1    4    4    0    0  0.90528972132E-02  0.34088105488E-01  0.21705305342E-01  0.41416606388E-01  0.51100000000E-03 0. -1.
         11    1    4    4    0    0 -0.15333522357E-02  0.86047045516E-01  0.31791758944E-01  0.91746510936E-01  0.51100000000E-03 0.  1.
</event>
<event>
 8    1  0.1143506E+005  0.1043930E+01  0.7957747E-01            NaN
         13   -1    0    0    0    0  0.00000000000E+00  0.00000000000E+00  0.74505805969E-08  0.10566000000E+00  0.10566000000E+00 0.  1.
     999900   -1    0    0    0    0 -0.00000000000E+00 -0.00000000000E+00 -0.74505805969E-08  0.93827000000E+00  0.93827000000E+00 0.  1.
     999902    2    1    2    0    0 -0.20868183961E-01  0.40815740192E-02  0.10200366499E-01  0.10203463653E+01  0.10200737804E+01 0.  0.
     999903    2    3    3    0    0  0.74106536387E-01 -0.53890200061E-01 -0.86961739666E-01  0.12803397665E+00  0.20842807208E-01 0.  0.
         14    1    1    2    0    0  0.20868183961E-01 -0.40815740192E-02 -0.10200366499E-01  0.23583634686E-01  0.00000000000E+00 0. -1.
     999901    1    3    3    0    0 -0.94974720348E-01  0.57971774080E-01  0.97162106164E-01  0.89231238867E+00  0.88000000000E+00 0. -1.
        -11    1    4    4    0    0  0.23077022038E-01 -0.87161015843E-02 -0.32429178961E-01  0.40748400485E-01  0.51100000000E-03 0.  1.
         11    1    4    4    0    0  0.51029514349E-01 -0.45174098477E-01 -0.54532560704E-01  0.87285576161E-01  0.51100000000E-03 0. -1.
</event>
<event>
 8    1  0.1143506E+005  0.1043930E+01  0.7957747E-01            NaN
         13   -1    0    0    0    0  0.00000000000E+00  0.00000000000E+00  0.74505805969E-08  0.10566000000E+00  0.10566000000E+00 0. -1.
     999900   -1    0    0    0    0 -0.00000000000E+00 -0.00000000000E+00 -0.74505805969E-08  0.93827000000E+00  0.93827000000E+00 0. -1.
     999902    2    1    2    0    0 -0.21720262296E-02 -0.18662906738E-01  0.13893900956E-01  0.10205620247E+01  0.10202944595E+01 0.  0.
     999903    2    3    3    0    0  0.86306162374E-01 -0.79877589346E-02  0.97424714055E-01  0.13212533851E+00  0.21283143798E-01 0.  0.
         14    1    1    2    0    0  0.21720262296E-02  0.18662906738E-01 -0.13893900956E-01  0.23367975300E-01  0.00000000000E+00 0.  1.
     999901    1    3    3    0    0 -0.88478188603E-01 -0.10675147803E-01 -0.83530813099E-01  0.88843668619E+00  0.88000000000E+00 0. -1.
        -11    1    4    4    0    0  0.61462215513E-01 -0.75075467507E-02  0.54328779522E-01  0.82376238075E-01  0.51100000000E-03 0. -1.
         11    1    4    4    0    0  0.24843946860E-01 -0.48021218397E-03  0.43095934533E-01  0.49749100430E-01  0.51100000000E-03 0.  1.
</event>
<event>
 8    1  0.1143506E+005  0.1043930E+01  0.7957747E-01            NaN
         13   -1    0    0    0    0  0.00000000000E+00  0.00000000000E+00  0.74505805969E-08  0.10566000000E+00  0.10566000000E+00 0. -1.
     999900   -1    0    0    0    0 -0.00000000000E+00 -0.00000000000E+00 -0.74505805969E-08  0.93827000000E+00  0.93827000000E+00 0.  1.
     999902    2    1    2    0    0 -0.50203261999E-02  0.14025957729E-01 -0.27038934365E-01  0.10130587328E+01  0.10125882485E+01 0.  0.
     999903    2    3    3    0    0  0.42425623769E-01 -0.44198234186E-01  0.10179783060E+00  0.12051176672E+00  0.20171022470E-01 0.  0.
         14    1    1    2    0    0  0.50203261999E-02 -0.14025957729E-01  0.27038934365E-01  0.30871267174E-01  0.00000000000E+00 0. -1.
     999901    1    3    3    0    0 -0.47445949969E-01  0.58224191915E-01 -0.12883676496E+00  0.89254696610E+00  0.88000000000E+00 0.  1.
        -11    1    4    4    0    0  0.26211117968E-01 -0.16357273711E-01  0.37495337322E-01  0.48587493765E-01  0.51100000000E-03 0. -1.
         11    1    4    4    0    0  0.16214505801E-01 -0.27840960475E-01  0.64302493273E-01  0.71924272959E-01  0.51100000000E-03 0.  1.
</event>
<event>
 8    1  0.1143506E+005  0.1043930E+01  0.7957747E-01            NaN
         13   -1    0    0    0    0  0.00000000000E+00  0.00000000000E+00  0.74505805969E-08  0.10566000000E+00  0.10566000000E+00 0.  1.
     999900   -1    0    0    0    0 -0.00000000000E+00 -0.00000000000E+00 -0.74505805969E-08  0.93827000000E+00  0.93827000000E+00 0. -1.
     999902    2    1    2    0    0 -0.52479286419E-02 -0.13851399963E-01  0.19281701920E-01  0.10196156819E+01  0.10193257343E+01 0.  0.
     999903    2    3    3    0    0 -0.12722068872E+00 -0.11685688604E-01 -0.17543567493E-01  0.13043732803E+00  0.19607672680E-01 0.  0.
         14    1    1    2    0    0  0.52479286419E-02  0.13851399963E-01 -0.19281701920E-01  0.24314318105E-01  0.00000000000E+00 0. -1.
     999901    1    3    3    0    0  0.12197276008E+00 -0.21657113592E-02  0.36825269413E-01  0.88917835386E+00  0.88000000000E+00 0. -1.
        -11    1    4    4    0    0 -0.78210124983E-01 -0.39429558124E-02 -0.19764078004E-01  0.80766641943E-01  0.51100000000E-03 0. -1.
         11    1    4    4    0    0 -0.49010563736E-01 -0.77427327917E-02  0.22205105108E-02  0.49670686091E-01  0.51100000000E-03 0.  1.
</event>
<event>
 8    1  0.1143506E+005  0.1043930E+01  0.7957747E-01            NaN
         13   -1    0    0    0    0  0.00000000000E+00  0.00000000000E+00  0.74505805969E-08  0.10566000000E+00  0.10566000000E+00 0.  1.
     999900   -1    0    0    0    0 -0.00000000000E+00 -0.00000000000E+00 -0.74505805969E-08  0.93827000000E+00  0.93827000000E+00 0. -1.
     999902    2    1    2    0    0  0.52143069752E-03  0.23080145825E-01 -0.68320793612E-02  0.10198542377E+01  0.10195700191E+01 0.  0.
     999903    2    3    3    0    0 -0.10790075631E+00  0.25103951414E-01 -0.67355647776E-01  0.13113461446E+00  0.19665254474E-01 0.  0.
         14    1    1    2    0    0 -0.52143069752E-03 -0.23080145825E-01  0.68320793612E-02  0.24075762286E-01  0.00000000000E+00 0. -1.
     999901    1    3    3    0    0  0.10842218701E+00 -0.20238055887E-02  0.60523568415E-01  0.88871962325E+00  0.88000000000E+00 0.  1.
        -11    1    4    4    0    0 -0.87115898951E-01  0.23111672369E-01 -0.45725794753E-01  0.10106650620E+00  0.51100000000E-03 0. -1.
         11    1    4    4    0    0 -0.20784857357E-01  0.19922790447E-02 -0.21629853024E-01  0.30068108254E-01  0.51100000000E-03 0.  1.
</event>
<event>
 8    1  0.1143506E+005  0.1043930E+01  0.7957747E-01            NaN
         13   -1    0    0    0    0  0.00000000000E+00  0.00000000000E+00  0.74505805969E-08  0.10566000000E+00  0.10566000000E+00 0. -1.
     999900   -1    0    0    0    0 -0.00000000000E+00 -0.00000000000E+00 -0.74505805969E-08  0.93827000000E+00  0.93827000000E+00 0.  1.
     999902    2    1    2    0    0 -0.94949998962E-02  0.18135395919E-01 -0.10968650115E-01  0.10207058984E+01  0.10204416555E+01 0.  0.
     999903    2    3    3    0    0  0.10537799952E+00  0.70130332204E-01 -0.29502344069E-01  0.13152493980E+00  0.20140387382E-01 0.  0.
         14    1    1    2    0    0  0.94949998962E-02 -0.18135395919E-01  0.10968650115E-01  0.23224101565E-01  0.00000000000E+00 0. -1.
     999901    1    3    3    0    0 -0.11487299942E+00 -0.51994936285E-01  0.18533693955E-01  0.88918095864E+00  0.88000000000E+00 0. -1.
        -11    1    4    4    0    0  0.40826033330E-01  0.21255653109E-01 -0.19310545401E-01  0.49917192141E-01  0.51100000000E-03 0. -1.
         11    1    4    4    0    0  0.64551966194E-01  0.48874679095E-01 -0.10191798669E-01  0.81607747655E-01  0.51100000000E-03 0.  1.
</event>
<event>
 7    1  0.1143506E+005  0.1043930E+01  0.7957747E-01            NaN
         13   -1    0    0    0    0  0.00000000000E+00  0.00000000000E+00  0.74505805969E-08  0.10566000000E+00  0.10566000000E+00 0.  1.
     999900   -1    0    0    0    0 -0.00000000000E+00 -0.00000000000E+00 -0.74505805969E-08  0.93827000000E+00  0.93827000000E+00 0.  1.
     999903    2    1    2    0    0  0.11205174894E+00  0.18265725182E-01 -0.12416178463E-01  0.11606995621E+00  0.20708502812E-01 0.  0.
         14    1    1    2    0    0 -0.36957551631E-01 -0.11226501628E-01 -0.21071949146E-01  0.43999113653E-01  0.00000000000E+00 0. -1.
     999901    1    1    2    0    0 -0.75094197311E-01 -0.70392235541E-02  0.33488127609E-01  0.88386093014E+00  0.88000000000E+00 0.  1.
        -11    1    3    3    0    0  0.14675389790E-01  0.93460586962E-02  0.63305069923E-03  0.17417742473E-01  0.51100000000E-03 0. -1.
         11    1    3    3    0    0  0.97376359152E-01  0.89196664861E-02 -0.13049229162E-01  0.98652213734E-01  0.51100000000E-03 0.  1.
</event>
<event>
 8    1  0.1143506E+005  0.1043930E+01  0.7957747E-01            NaN
         13   -1    0    0    0    0  0.00000000000E+00  0.00000000000E+00  0.74505805969E-08  0.10566000000E+00  0.10566000000E+00 0.  1.
     999900   -1    0    0    0    0 -0.00000000000E+00 -0.00000000000E+00 -0.74505805969E-08  0.93827000000E+00  0.93827000000E+00 0.  1.
     999902    2    1    2    0    0 -0.11534566063E-01 -0.35267541830E-03 -0.21674166592E-01  0.10193751615E+01  0.10190793786E+01 0.  0.
     999903    2    3    3    0    0 -0.12619627385E+00  0.15606382570E-01  0.22567562782E-01  0.13069111792E+00  0.20045316242E-01 0.  0.
         14    1    1    2    0    0  0.11534566063E-01  0.35267541830E-03  0.21674166592E-01  0.24554838457E-01  0.00000000000E+00 0.  1.
     999901    1    3    3    0    0  0.11466170779E+00 -0.15959057988E-01 -0.44241729373E-01  0.88868404362E+00  0.88000000000E+00 0.  1.
        -11    1    4    4    0    0 -0.76910955536E-01  0.11483193603E-02  0.82140488133E-02  0.77358551161E-01  0.51100000000E-03 0.  1.
         11    1    4    4    0    0 -0.49285318317E-01  0.14458063210E-01  0.14353513968E-01  0.53332566764E-01  0.51100000000E-03 0. -1.
</event>
<event>
 8    1  0.1143506E+005  0.1043930E+01  0.7957747E-01            NaN
         13   -1    0    0    0    0  0.00000000000E+00  0.00000000000E+00  0.74505805969E-08  0.10566000000E+00  0.10566000000E+00 0.  1.
     999900   -1    0    0    0    0 -0.00000000000E+00 -0.00000000000E+00 -0.74505805969E-08  0.93827000000E+00  0.93827000000E+00 0. -1.
     999902    2    1    2    0    0  0.87719071459E-02  0.19226072173E-01  0.94712243102E-02  0.10207720144E+01  0.10205092911E+01 0.  0.
     999903    2    3    3    0    0  0.11338233068E+00 -0.45459326868E-01  0.44537502511E-01  0.13152672462E+00  0.19839023413E-01 0.  0.
         14    1    1    2    0    0 -0.87719071459E-02 -0.19226072173E-01 -0.94712243102E-02  0.23157985580E-01  0.00000000000E+00 0.  1.
     999901    1    3    3    0    0 -0.10461042354E+00  0.64685399041E-01 -0.35066278200E-01  0.88924528980E+00  0.88000000000E+00 0.  1.
        -11    1    4    4    0    0  0.92144089802E-01 -0.40853324332E-01  0.29258858243E-01  0.10495651148E+00  0.51100000000E-03 0. -1.
         11    1    4    4    0    0  0.21238240879E-01 -0.46060025359E-02  0.15278644268E-01  0.26570213147E-01  0.51100000000E-03 0.  1.
</event>
<event>
 8    1  0.1143506E+005  0.1043930E+01  0.7957747E-01            NaN
         13   -1    0    0    0    0  0.00000000000E+00  0.00000000000E+00  0.74505805969E-08  0.10566000000E+00  0.10566000000E+00 0. -1.
     999900   -1    0    0    0    0 -0.00000000000E+00 -0.00000000000E+00 -0.74505805969E-08  0.93827000000E+00  0.93827000000E+00 0. -1.
     999902    2    1    2    0    0 -0.61124163137E-02 -0.84391800041E-04 -0.23839018169E-01  0.10193196863E+01  0.10190225489E+01 0.  0.
     999903    2    3    3    0    0  0.24694989062E-01  0.47398381764E-01  0.11326759885E+00  0.12690614174E+00  0.20473660748E-01 0.  0.
         14    1    1    2    0    0  0.61124163137E-02  0.84391800041E-04  0.23839018169E-01  0.24610313741E-01  0.00000000000E+00 0. -1.
     999901    1    3    3    0    0 -0.30807405376E-01 -0.47482773564E-01 -0.13710661701E+00  0.89241354452E+00  0.88000000000E+00 0. -1.
        -11    1    4    4    0    0  0.99402704110E-02  0.58623856345E-02  0.37601040895E-01  0.39335428542E-01  0.51100000000E-03 0. -1.
         11    1    4    4    0    0  0.14754718651E-01  0.41535996130E-01  0.75666557951E-01  0.87570713199E-01  0.51100000000E-03 0.  1.
</event>
<event>
 8    1  0.1143506E+005  0.1043930E+01  0.7957747E-01            NaN
         13   -1    0    0    0    0  0.00000000000E+00  0.00000000000E+00  0.74505805969E-08  0.10566000000E+00  0.10566000000E+00 0. -1.
     999900   -1    0    0    0    0 -0.00000000000E+00 -0.00000000000E+00 -0.74505805969E-08  0.93827000000E+00  0.93827000000E+00 0. -1.
     999902    2    1    2    0    0 -0.17095048046E-01 -0.53878915219E-02 -0.14944540625E-01  0.10205931335E+01  0.10203262884E+01 0.  0.
     999903    2    3    3    0    0  0.12618462272E+00 -0.98063799133E-02 -0.14991061254E-01  0.12899423869E+00  0.19901195946E-01 0.  0.
         14    1    1    2    0    0  0.17095048046E-01  0.53878915219E-02  0.14944540625E-01  0.23336866483E-01  0.00000000000E+00 0. -1.
     999901    1    3    3    0    0 -0.14327967076E+00  0.44184883915E-02  0.46520629112E-04  0.89159889483E+00  0.88000000000E+00 0. -1.
        -11    1    4    4    0    0  0.10779066130E+00 -0.12591144164E-01 -0.70294791791E-02  0.10875218744E+00  0.51100000000E-03 0. -1.
         11    1    4    4    0    0  0.18393961417E-01  0.27847642503E-02 -0.79615820751E-02  0.20242051247E-01  0.51100000000E-03 0.  1.
</event>
<event>
 8    1  0.1143506E+005  0.1043930E+01  0.7957747E-01            NaN
         13   -1    0    0    0    0  0.00000000000E+00  0.00000000000E+00  0.74505805969E-08  0.10566000000E+00  0.10566000000E+00 0. -1.
     999900   -1    0    0    0    0 -0.00000000000E+00 -0.00000000000E+00 -0.74505805969E-08  0.93827000000E+00  0.93827000000E+00 0.  1.
     999902    2    1    2    0    0  0.14959566674E-01  0.10552817503E-01  0.15347782227E-01  0.10200405669E+01  0.10197607823E+01 0.  0.
     999903    2    3    3    0    0 -0.56144996657E-01  0.71611899506E-01 -0.89338588503E-01  0.12889338122E+00  0.18750880642E-01 0.  0.
         14    1    1    2    0    0 -0.14959566674E-01 -0.10552817503E-01 -0.15347782227E-01  0.23889433053E-01  0.00000000000E+00 0.  1.
     999901    1    3    3    0    0  0.71104563331E-01 -0.61059082003E-01  0.10468637073E+00  0.89114718573E+00  0.88000000000E+00 0. -1.
        -11    1    4    4    0    0 -0.55635352451E-02  0.13927177462E-02 -0.24441472331E-02  0.62552029417E-02  0.51100000000E-03 0. -1.
         11    1    4    4    0    0 -0.50581461412E-01  0.70219181760E-01 -0.86894441270E-01  0.12263817827E+00  0.51100000000E-03 0.  1.
</event>
<event>
 8    1  0.1143506E+005  0.1043930E+01  0.7957747E-01            NaN
         13   -1    0    0    0    0  0.00000000000E+00  0.00000000000E+00  0.74505805969E-08  0.10566000000E+00  0.10566000000E+00 0.  1.
     999900   -1    0    0    0    0 -0.00000000000E+00 -0.00000000000E+00 -0.74505805969E-08  0.93827000000E+00  0.93827000000E+00 0.  1.
     999902    2    1    2    0    0  0.21910393727E-01  0.68815330545E-03  0.65090630825E-02  0.10210628443E+01  0.10208067521E+01 0.  0.
     999903    2    3    3    0    0  0.96748785477E-02 -0.12367728162E+00  0.38950927585E-01  0.13164227796E+00  0.20563105874E-01 0.  0.
         14    1    1    2    0    0 -0.21910393727E-01 -0.68815330545E-03 -0.65090630825E-02  0.22867155714E-01  0.00000000000E+00 0. -1.
     999901    1    3    3    0    0  0.12235515179E-01  0.12436543492E+00 -0.32441864502E-01  0.88942056633E+00  0.88000000000E+00 0.  1.
        -11    1    4    4    0    0 -0.21870198817E-02 -0.71166935325E-01  0.15234297674E-01  0.72813877016E-01  0.51100000000E-03 0. -1.
         11    1    4    4    0    0  0.11861898429E-01 -0.52510346292E-01  0.23716629911E-01  0.58828400942E-01  0.51100000000E-03 0.  1.
</event>
<event>
 8    1  0.1143506E+005  0.1043930E+01  0.7957747E-01            NaN
         13   -1    0    0    0    0  0.00000000000E+00  0.00000000000E+00  0.74505805969E-08  0.10566000000E+00  0.10566000000E+00 0.  1.
     999900   -1    0    0    0    0 -0.00000000000E+00 -0.00000000000E+00 -0.74505805969E-08  0.93827000000E+00  0.93827000000E+00 0.  1.
     999902    2    1    2    0    0  0.98397652792E-02 -0.16271693792E-01  0.10547829783E-01  0.10221849842E+01  0.10219536664E+01 0.  0.
     999903    2    3    3    0    0  0.90365768223E-02  0.93979492608E-01  0.89794634707E-01  0.13177158284E+00  0.19668982417E-01 0.  0.
         14    1    1    2    0    0 -0.98397652792E-02  0.16271693792E-01 -0.10547829783E-01  0.21745015814E-01  0.00000000000E+00 0. -1.
     999901    1    3    3    0    0  0.80318845694E-03 -0.11025118640E+00 -0.79246804924E-01  0.89041340135E+00  0.88000000000E+00 0.  1.
        -11    1    4    4    0    0  0.12636041939E-02  0.63117819071E-01  0.48378928741E-01  0.79537649243E-01  0.51100000000E-03 0. -1.
         11    1    4    4    0    0  0.77729726283E-02  0.30861673537E-01  0.41415705966E-01  0.52233933593E-01  0.51100000000E-03 0.  1.
</event>
<event>
 8    1  0.1143506E+005  0.1043930E+01  0.7957747E-01            NaN
         13   -1    0    0    0    0  0.00000000000E+00  0.00000000000E+00  0.74505805969E-08  0.10566000000E+00  0.10566000000E+00 0. -1.
     999900   -1    0    0    0    0 -0.00000000000E+00 -0.00000000000E+00 -0.74505805969E-08  0.93827000000E+00  0.93827000000E+00 0. -1.
     999902    2    1    2    0    0 -0.17294657610E-01 -0.61516231704E-02  0.74185242439E-02  0.10241314609E+01  0.10239400700E+01 0.  0.
     999903    2    3    3    0    0  0.11037784200E-01  0.11048317691E+00 -0.69704607860E-01  0.13264148261E+00  0.20165948824E-01 0.  0.
         14    1    1    2    0    0  0.17294657610E-01  0.61516231704E-02 -0.74185242439E-02  0.19798539124E-01  0.00000000000E+00 0.  1.
     999901    1    3    3    0    0 -0.28332441810E-01 -0.11663480008E+00  0.77123132104E-01  0.89148997827E+00  0.88000000000E+00 0.  1.
        -11    1    4    4    0    0 -0.29567125973E-02  0.60179482258E-01 -0.42741941457E-01  0.73874534954E-01  0.51100000000E-03 0. -1.
         11    1    4    4    0    0  0.13994496797E-01  0.50303694649E-01 -0.26962666403E-01  0.58766947653E-01  0.51100000000E-03 0.  1.
</event>
<event>
 8    1  0.1143506E+005  0.1043930E+01  0.7957747E-01            NaN
         13   -1    0    0    0    0  0.00000000000E+00  0.00000000000E+00  0.74505805969E-08  0.10566000000E+00  0.10566000000E+00 0. -1.
     999900   -1    0    0    0    0 -0.00000000000E+00 -0.00000000000E+00 -0.74505805969E-08  0.93827000000E+00  0.93827000000E+00 0. -1.
     999902    2    1    2    0    0  0.11150556880E-01  0.23273812522E-01 -0.86211135138E-03  0.10181085263E+01  0.10177810289E+01 0.  0.
     999903    2    3    3    0    0  0.11720123649E+00  0.10960703080E-01  0.50444578126E-01  0.13017230354E+00  0.23321798821E-01 0.  0.
         14    1    1    2    0    0 -0.11150556880E-01 -0.23273812522E-01  0.86211135138E-03  0.25821473700E-01  0.00000000000E+00 0. -1.
     999901    1    3    3    0    0 -0.10605067961E+00  0.12313109442E-01 -0.51306689477E-01  0.88793622276E+00  0.88000000000E+00 0. -1.
        -11    1    4    4    0    0  0.54970449906E-01  0.16827307927E-01  0.24473065208E-01  0.62482803207E-01  0.51100000000E-03 0. -1.
         11    1    4    4    0    0  0.62230786579E-01 -0.58666048472E-02  0.25971512918E-01  0.67689500330E-01  0.51100000000E-03 0.  1.
</event>
<event>
 8    1  0.1143506E+005  0.1043930E+01  0.7957747E-01            NaN
         13   -1    0    0    0    0  0.00000000000E+00  0.00000000000E+00  0.74505805969E-08  0.10566000000E+00  0.10566000000E+00 0.  1.
     999900   -1    0    0    0    0 -0.00000000000E+00 -0.00000000000E+00 -0.74505805969E-08  0.93827000000E+00  0.93827000000E+00 0.  1.
     999902    2    1    2    0    0 -0.13077817009E-01  0.19395126022E-01 -0.31089090925E-02  0.10203320016E+01  0.10200590807E+01 0.  0.
     999903    2    3    3    0    0  0.31841335609E-01 -0.58976021750E-01  0.10811869698E+00  0.12874277591E+00  0.19824427297E-01 0.  0.
         14    1    1    2    0    0  0.13077817009E-01 -0.19395126022E-01  0.31089090925E-02  0.23597998366E-01  0.00000000000E+00 0.  1.
     999901    1    3    3    0    0 -0.44919152618E-01  0.78371147772E-01 -0.11122760607E+00  0.89158922572E+00  0.88000000000E+00 0.  1.
        -11    1    4    4    0    0  0.19853068089E-01 -0.24040156808E-01  0.64072787756E-01  0.71257678209E-01  0.51100000000E-03 0.  1.
         11    1    4    4    0    0  0.11988267519E-01 -0.34935864942E-01  0.44045909223E-01  0.57485097700E-01  0.51100000000E-03 0. -1.
</event>
<event>
 8    1  0.1143506E+005  0.1043930E+01  0.7957747E-01            NaN
         13   -1    0    0    0    0  0.00000000000E+00  0.00000000000E+00  0.74505805969E-08  0.10566000000E+00  0.10566000000E+00 0.  1.
     999900   -1    0    0    0    0 -0.00000000000E+00 -0.00000000000E+00 -0.74505805969E-08  0.93827000000E+00  0.93827000000E+00 0. -1.
     999902    2    1    2    0    0 -0.27083990634E-01 -0.21025833556E-01 -0.15937138519E-01  0.10061196759E+01  0.10054089624E+01 0.  0.
     999903    2    3    3    0    0 -0.68143212470E-01 -0.87509129784E-01  0.43136300371E-01  0.12068443853E+00  0.20066093078E-01 0.  0.
         14    1    1    2    0    0  0.27083990634E-01  0.21025833556E-01  0.15937138519E-01  0.37810324114E-01  0.00000000000E+00 0.  1.
     999901    1    3    3    0    0  0.41059221836E-01  0.66483296228E-01 -0.59073438891E-01  0.88543523736E+00  0.88000000000E+00 0. -1.
        -11    1    4    4    0    0 -0.47493904069E-01 -0.45634466373E-01  0.22133269445E-01  0.69486100640E-01  0.51100000000E-03 0. -1.
         11    1    4    4    0    0 -0.20649308402E-01 -0.41874663412E-01  0.21003030926E-01  0.51198337887E-01  0.51100000000E-03 0.  1.
</event>
<event>
 8    1  0.1143506E+005  0.1043930E+01  0.7957747E-01            NaN
         13   -1    0    0    0    0  0.00000000000E+00  0.00000000000E+00  0.74505805969E-08  0.10566000000E+00  0.10566000000E+00 0.  1.
     999900   -1    0    0    0    0 -0.00000000000E+00 -0.00000000000E+00 -0.74505805969E-08  0.93827000000E+00  0.93827000000E+00 0.  1.
     999902    2    1    2    0    0 -0.99603019616E-02 -0.20456516102E-01  0.87094451095E-02  0.10195675063E+01  0.10192763947E+01 0.  0.
     999903    2    3    3    0    0  0.77708500198E-01 -0.14142775345E-01 -0.99177278773E-01  0.12863247644E+00  0.21715254410E-01 0.  0.
         14    1    1    2    0    0  0.99603019616E-02  0.20456516102E-01 -0.87094451095E-02  0.24362493722E-01  0.00000000000E+00 0. -1.
     999901    1    3    3    0    0 -0.87668802159E-01 -0.63137407578E-02  0.10788672388E+00  0.89093502983E+00  0.88000000000E+00 0.  1.
        -11    1    4    4    0    0  0.35670176459E-02 -0.11061912163E-02 -0.16037717962E-01  0.16474731935E-01  0.51100000000E-03 0.  1.
         11    1    4    4    0    0  0.74141482552E-01 -0.13036584128E-01 -0.83139560811E-01  0.11215774451E+00  0.51100000000E-03 0. -1.
</event>
<event>
 8    1  0.1143506E+005  0.1043930E+01  0.7957747E-01            NaN
         13   -1    0    0    0    0  0.00000000000E+00  0.00000000000E+00  0.74505805969E-08  0.10566000000E+00  0.10566000000E+00 0.  1.
     999900   -1    0    0    0    0 -0.00000000000E+00 -0.00000000000E+00 -0.74505805969E-08  0.93827000000E+00  0.93827000000E+00 0. -1.
     999902    2    1    2    0    0  0.18855624868E-02  0.10105117673E-01 -0.21261191438E-01  0.10203141788E+01  0.10200408406E+01 0.  0.
     999903    2    3    3    0    0  0.12788020749E+00 -0.49841420308E-02  0.15217056641E-01  0.13046419207E+00  0.20277018002E-01 0.  0.
         14    1    1    2    0    0 -0.18855624868E-02 -0.10105117673E-01  0.21261191438E-01  0.23615821189E-01  0.00000000000E+00 0.  1.
     999901    1    3    3    0    0 -0.12599464500E+00  0.15089259704E-01 -0.36478248079E-01  0.88984998675E+00  0.88000000000E+00 0.  1.
        -11    1    4    4    0    0  0.79910312561E-01  0.15447225722E-02  0.73675234142E-03  0.79930270527E-01  0.51100000000E-03 0. -1.
         11    1    4    4    0    0  0.47969894929E-01 -0.65288646030E-02  0.14480304300E-01  0.50533921539E-01  0.51100000000E-03 0.  1.
</event>
<event>
 8    1  0.1143506E+005  0.1043930E+01  0.7957747E-01            NaN
         13   -1    0    0    0    0  0.00000000000E+00  0.00000000000E+00  0.74505805969E-08  0.10566000000E+00  0.10566000000E+00 0.  1.
     999900   -1    0    0    0    0 -0.00000000000E+00 -0.00000000000E+00 -0.74505805969E-08  0.93827000000E+00  0.93827000000E+00 0. -1.
     999902    2    1    2    0    0 -0.44986527622E-02  0.16366092050E-01 -0.15721348522E-01  0.10207945803E+01  0.10205323746E+01 0.  0.
     999903    2    3    3    0    0 -0.12226614463E+00  0.44922795278E-01  0.10545791365E-01  0.13210192809E+00  0.19303834600E-01 0.  0.
         14    1    1    2    0    0  0.44986527622E-02 -0.16366092050E-01  0.15721348522E-01  0.23135419707E-01  0.00000000000E+00 0.  1.
     999901    1    3    3    0    0  0.11776749187E+00 -0.28556703229E-01 -0.26267139887E-01  0.88869265220E+00  0.88000000000E+00 0.  1.
        -11    1    4    4    0    0 -0.11439919984E+00  0.45407345030E-01  0.65655905739E-02  0.12325734058E+00  0.51100000000E-03 0. -1.
         11    1    4    4    0    0 -0.78669447962E-02 -0.48454975177E-03  0.39802007908E-02  0.88445875101E-02  0.51100000000E-03 0.  1.
</event>
<event>
 8    1  0.1143506E+005  0.1043930E+01  0.7957747E-01            NaN
         13   -1    0    0    0    0  0.00000000000E+00  0.00000000000E+00  0.74505805969E-08  0.10566000000E+00  0.10566000000E+00 0. -1.
     999900   -1    0    0    0    0 -0.00000000000E+00 -0.00000000000E+00 -0.74505805969E-08  0.93827000000E+00  0.93827000000E+00 0.  1.
     999902    2    1    2    0    0 -0.52447250792E-02  0.10060155392E-01 -0.20817979712E-01  0.10202213065E+01  0.10199457888E+01 0.  0.
     999903    2    3    3    0    0  0.98812664607E-01 -0.90896734704E-02 -0.84166155146E-01  0.13162260765E+00  0.19849542084E-01 0.  0.
         14    1    1    2    0    0  0.52447250792E-02 -0.10060155392E-01  0.20817979712E-01  0.23708693489E-01  0.00000000000E+00 0. -1.
     999901    1    3    3    0    0 -0.10405738969E+00  0.19149828863E-01  0.63348175434E-01  0.88859869886E+00  0.88000000000E+00 0.  1.
        -11    1    4    4    0    0  0.56358937338E-01  0.40768257739E-02 -0.51542350268E-01  0.76484150767E-01  0.51100000000E-03 0.  1.
         11    1    4    4    0    0  0.42453727268E-01 -0.13166499244E-01 -0.32623804878E-01  0.55138456879E-01  0.51100000000E-03 0. -1.
</event>
<event>
 8    1  0.1143506E+005  0.1043930E+01  0.7957747E-01            NaN
         13   -1    0    0    0    0  0.00000000000E+00  0.00000000000E+00  0.74505805969E-08  0.10566000000E+00  0.10566000000E+00 0. -1.
     999900   -1    0    0    0    0 -0.00000000000E+00 -0.00000000000E+00 -0.74505805969E-08  0.93827000000E+00  0.93827000000E+00 0. -1.
     999902    2    1    2    0    0 -0.35804436273E-02  0.13709541661E-01 -0.86554533821E-02  0.10273261456E+01  0.10271919594E+01 0.  0.
     999903    2    3    3    0    0 -0.28084785337E-01  0.13003429254E+00 -0.34479148559E-01  0.13895754320E+00  0.20560027277E-01 0.  0.
         14    1    1    2    0    0  0.35804436273E-02 -0.13709541661E-01  0.86554533821E-02  0.16603854443E-01  0.00000000000E+00 0.  1.
     999901    1    3    3    0    0  0.24504341710E-01 -0.11632475088E+00  0.25823695177E-01  0.88836860236E+00  0.88000000000E+00 0.  1.
        -11    1    4    4    0    0 -0.26966018007E-01  0.80170367259E-01 -0.18539443409E-01  0.86593452388E-01  0.51100000000E-03 0.  1.
         11    1    4    4    0    0 -0.11187673306E-02  0.49863925281E-01 -0.15939705150E-01  0.52364090807E-01  0.51100000000E-03 0. -1.
</event>
<event>
 8    1  0.1143506E+005  0.1043930E+01  0.7957747E-01            NaN
         13   -1    0    0    0    0  0.00000000000E+00  0.00000000000E+00  0.74505805969E-08  0.10566000000E+00  0.10566000000E+00 0. -1.
     999900   -1    0    0    0    0 -0.00000000000E+00 -0.00000000000E+00 -0.74505805969E-08  0.93827000000E+00  0.93827000000E+00 0. -1.
     999902    2    1    2    0    0  0.21830590963E-02 -0.22233925908E-01 -0.79173398569E-02  0.10202277326E+01  0.10199523660E+01 0.  0.
     999903    2    3    3    0    0 -0.12603409428E+00 -0.35151213874E-02  0.25100699171E-01  0.13012648953E+00  0.20147187831E-01 0.  0.
         14    1    1    2    0    0 -0.21830590963E-02  0.22233925908E-01  0.79173398569E-02  0.23702267375E-01  0.00000000000E+00 0. -1.
     999901    1    3    3    0    0  0.12821715338E+00 -0.18718804521E-01 -0.33018039028E-01  0.89010124310E+00  0.88000000000E+00 0.  1.
        -11    1    4    4    0    0 -0.99369892957E-01 -0.23114397848E-02  0.28017710226E-01  0.10327134931E+00  0.51100000000E-03 0.  1.
         11    1    4    4    0    0 -0.26664201327E-01 -0.12036816026E-02 -0.29170110555E-02  0.26855140221E-01  0.51100000000E-03 0. -1.
</event>
<event>
 8    1  0.1143506E+005  0.1043930E+01  0.7957747E-01            NaN
         13   -1    0    0    0    0  0.00000000000E+00  0.00000000000E+00  0.74505805969E-08  0.10566000000E+00  0.10566000000E+00 0.  1.
     999900   -1    0    0    0    0 -0.00000000000E+00 -0.00000000000E+00 -0.74505805969E-08  0.93827000000E+00  0.93827000000E+00 0.  1.
     999902    2    1    2    0    0 -0.11231094041E-01 -0.13178651127E-01 -0.16112263480E-01  0.10202779524E+01  0.10200037651E+01 0.  0.
     999903    2    3    3    0    0  0.10579964842E+00  0.41862815320E-01  0.54713274787E-01  0.12801004729E+00  0.21141638000E-01 0.  0.
         14    1    1    2    0    0  0.11231094041E-01  0.13178651127E-01  0.16112263480E-01  0.23652047551E-01  0.00000000000E+00 0.  1.
     999901    1    3    3    0    0 -0.11703074246E+00 -0.55041466447E-01 -0.70825538267E-01  0.89226790516E+00  0.88000000000E+00 0.  1.
        -11    1    4    4    0    0  0.66796625423E-01  0.21207854876E-01  0.23379229071E-01  0.73881064890E-01  0.51100000000E-03 0.  1.
         11    1    4    4    0    0  0.39003022994E-01  0.20654960444E-01  0.31334045716E-01  0.54128982399E-01  0.51100000000E-03 0. -1.
</event>
<event>
 8    1  0.1143506E+005  0.1043930E+01  0.7957747E-01            NaN
         13   -1    0    0    0    0  0.00000000000E+00  0.00000000000E+00  0.74505805969E-08  0.10566000000E+00  0.10566000000E+00 0. -1.
     999900   -1    0    0    0    0 -0.00000000000E+00 -0.00000000000E+00 -0.74505805969E-08  0.93827000000E+00  0.93827000000E+00 0.  1.
     999902    2    1    2    0    0 -0.67065723757E-02 -0.69529027467E-02 -0.21524021908E-01  0.10203375332E+01  0.10200647417E+01 0.  0.
     999903    2    3    3    0    0  0.44275063081E-01  0.10507986515E-01 -0.12347636290E+00  0.13281384923E+00  0.17955705544E-01 0.  0.
         14    1    1    2    0    0  0.67065723757E-02  0.69529027467E-02  0.21524021908E-01  0.23592466780E-01  0.00000000000E+00 0. -1.
     999901    1    3    3    0    0 -0.50981635457E-01 -0.17460889261E-01  0.10195234099E+00  0.88752368399E+00  0.88000000000E+00 0. -1.
        -11    1    4    4    0    0  0.13837154426E-01  0.26452549719E-02 -0.18678309545E-01  0.23400952650E-01  0.51100000000E-03 0.  1.
         11    1    4    4    0    0  0.30437908656E-01  0.78627315427E-02 -0.10479805335E+00  0.10941289658E+00  0.51100000000E-03 0. -1.
</event>
<event>
 8    1  0.1143506E+005  0.1043930E+01  0.7957747E-01            NaN
         13   -1    0    0    0    0  0.00000000000E+00  0.00000000000E+00  0.74505805969E-08  0.10566000000E+00  0.10566000000E+00 0.  1.
     999900   -1    0    0    0    0 -0.00000000000E+00 -0.00000000000E+00 -0.74505805969E-08  0.93827000000E+00  0.93827000000E+00 0. -1.
     999902    2    1    2    0    0 -0.13215555901E-01  0.21470760926E-01 -0.15604872008E-01  0.10142794263E+01  0.10138459439E+01 0.  0.
     999903    2    3    3    0    0  0.17047662322E-01 -0.20124492293E-01 -0.12179463932E+00  0.12640426941E+00  0.21177515893E-01 0.  0.
         14    1    1    2    0    0  0.13215555901E-01 -0.21470760926E-01  0.15604872008E-01  0.29650573737E-01  0.00000000000E+00 0.  1.
     999901    1    3    3    0    0 -0.30263218223E-01  0.41595253220E-01  0.10618976731E+00  0.88787515685E+00  0.88000000000E+00 0.  1.
        -11    1    4    4    0    0  0.90492376261E-02  0.11274985460E-02 -0.18373920766E-01  0.20518821601E-01  0.51100000000E-03 0.  1.
         11    1    4    4    0    0  0.79984246957E-02 -0.21251990839E-01 -0.10342071855E+00  0.10588544781E+00  0.51100000000E-03 0. -1.
</event>
<event>
 8    1  0.1143506E+005  0.1043930E+01  0.7957747E-01            NaN
         13   -1    0    0    0    0  0.00000000000E+00  0.00000000000E+00  0.74505805969E-08  0.10566000000E+00  0.10566000000E+00 0.  1.
     999900   -1    0    0    0    0 -0.00000000000E+00 -0.00000000000E+00 -0.74505805969E-08  0.93827000000E+00  0.93827000000E+00 0.  1.
     999902    2    1    2    0    0 -0.17872230631E-01 -0.56703850784E-02  0.13038131227E-01  0.10210922514E+01  0.10208368249E+01 0.  0.
     999903    2    3    3    0    0 -0.77599023719E-01 -0.10267086109E+00  0.29779504680E-01  0.13359202282E+00  0.19927254323E-01 0.  0.
         14    1    1    2    0    0  0.17872230631E-01  0.56703850784E-02 -0.13038131227E-01  0.22837748588E-01  0.00000000000E+00 0.  1.
     999901    1    3    3    0    0  0.59726793087E-01  0.97000476008E-01 -0.16741373454E-01  0.88750022859E+00  0.88000000000E+00 0.  1.
        -11    1    4    4    0    0 -0.45484095479E-01 -0.55161945304E-01  0.26150676120E-01  0.76129903020E-01  0.51100000000E-03 0.  1.
         11    1    4    4    0    0 -0.32114928240E-01 -0.47508915782E-01  0.36288285601E-02  0.57462119804E-01  0.51100000000E-03 0. -1.
</event>
<event>
 8    1  0.1143506E+005  0.1043930E+01  0.7957747E-01            NaN
         13   -1    0    0    0    0  0.00000000000E+00  0.00000000000E+00  0.74505805969E-08  0.10566000000E+00  0.10566000000E+00 0. -1.
     999900   -1    0    0    0    0 -0.00000000000E+00 -0.00000000000E+00 -0.74505805969E-08  0.93827000000E+00  0.93827000000E+00 0.  1.
     999902    2    1    2    0    0  0.20170424280E-02  0.22682965547E-01  0.10270666454E-01  0.10189485674E+01  0.10186422880E+01 0.  0.
     999903    2    3    3    0    0  0.35314952763E-01  0.10065468533E+00  0.75809966801E-01  0.13244772711E+00  0.20414156422E-01 0.  0.
         14    1    1    2    0    0 -0.20170424280E-02 -0.22682965547E-01 -0.10270666454E-01  0.24981432616E-01  0.00000000000E+00 0.  1.
     999901    1    3    3    0    0 -0.33297910335E-01 -0.77971719783E-01 -0.65539300347E-01  0.88650084028E+00  0.88000000000E+00 0.  1.
        -11    1    4    4    0    0  0.13453372717E-01  0.14814351311E-01  0.14519165111E-01  0.24729042011E-01  0.51100000000E-03 0. -1.
         11    1    4    4    0    0  0.21861580046E-01  0.85840334018E-01  0.61290801690E-01  0.10771868510E+00  0.51100000000E-03 0.  1.
</event>
<event>
 8    1  0.1143506E+005  0.1043930E+01  0.7957747E-01            NaN
         13   -1    0    0    0    0  0.00000000000E+00  0.00000000000E+00  0.74505805969E-08  0.10566000000E+00  0.10566000000E+00 0. -1.
     999900   -1    0    0    0    0 -0.00000000000E+00 -0.00000000000E+00 -0.74505805969E-08  0.93827000000E+00  0.93827000000E+00 0. -1.
     999902    2    1    2    0    0  0.52754251301E-02 -0.28539471155E-01 -0.16097147370E-01  0.10107419046E+01  0.10101968858E+01 0.  0.
     999903    2    3    3    0    0 -0.27131955760E-01  0.24910070227E-02  0.11503464733E+00  0.11989473672E+00  0.19985736580E-01 0.  0.
         14    1    1    2    0    0 -0.52754251301E-02  0.28539471155E-01  0.16097147370E-01  0.33188095420E-01  0.00000000000E+00 0.  1.
     999901    1    3    3    0    0  0.32407380890E-01 -0.31030478178E-01 -0.13113179470E+00  0.89084716786E+00  0.88000000000E+00 0. -1.
        -11    1    4    4    0    0 -0.12651544749E-01  0.97703376388E-02  0.39030514652E-01  0.42180128937E-01  0.51100000000E-03 0. -1.
         11    1    4    4    0    0 -0.14480411011E-01 -0.72793306161E-02  0.76004132676E-01  0.77714607778E-01  0.51100000000E-03 0.  1.
</event>
<event>
 8    1  0.1143506E+005  0.1043930E+01  0.7957747E-01            NaN
         13   -1    0    0    0    0  0.00000000000E+00  0.00000000000E+00  0.74505805969E-08  0.10566000000E+00  0.10566000000E+00 0. -1.
     999900   -1    0    0    0    0 -0.00000000000E+00 -0.00000000000E+00 -0.74505805969E-08  0.93827000000E+00  0.93827000000E+00 0.  1.
     999902    2    1    2    0    0 -0.60042285386E-02  0.23795491807E-01 -0.42275893173E-02  0.10190272150E+01  0.10187228849E+01 0.  0.
     999903    2    3    3    0    0  0.27071122092E-01  0.12746305491E+00  0.96507788799E-02  0.13221632670E+00  0.20207510806E-01 0.  0.
         14    1    1    2    0    0  0.60042285386E-02 -0.23795491807E-01  0.42275893173E-02  0.24902785028E-01  0.00000000000E+00 0. -1.
     999901    1    3    3    0    0 -0.33075350631E-01 -0.10366756311E+00 -0.13878368197E-01  0.88681088828E+00  0.88000000000E+00 0. -1.
        -11    1    4    4    0    0  0.62851483609E-02  0.54625415955E-01  0.12594003560E-01  0.56411959767E-01  0.51100000000E-03 0. -1.
         11    1    4    4    0    0  0.20785973731E-01  0.72837638959E-01 -0.29432246796E-02  0.75804366930E-01  0.51100000000E-03 0.  1.
</event>
<event>
 8    1  0.1143506E+005  0.1043930E+01  0.7957747E-01            NaN
         13   -1    0    0    0    0  0.00000000000E+00  0.00000000000E+00  0.74505805969E-08  0.10566000000E+00  0.10566000000E+00 0. -1.
     999900   -1    0    0    0    0 -0.00000000000E+00 -0.00000000000E+00 -0.74505805969E-08  0.93827000000E+00  0.93827000000E+00 0. -1.
     999902    2    1    2    0    0 -0.22602631170E-02 -0.91178376392E-02 -0.21080549979E-01  0.10208511495E+01  0.10205902391E+01 0.  0.
     999903    2    3    3    0    0  0.95200530327E-01  0.81663451040E-01 -0.30917456742E-01  0.13077440373E+00  0.20346875198E-01 0.  0.
         14    1    1    2    0    0  0.22602631170E-02  0.91178376392E-02  0.21080549979E-01  0.23078850491E-01  0.00000000000E+00 0. -1.
     999901    1    3    3    0    0 -0.97460793444E-01 -0.90781288680E-01  0.98369067626E-02  0.89007674577E+00  0.88000000000E+00 0.  1.
        -11    1    4    4    0    0  0.29047533451E-01  0.29621914281E-01 -0.11898132166E-02  0.41507755682E-01  0.51100000000E-03 0. -1.
         11    1    4    4    0    0  0.66152996876E-01  0.52041536759E-01 -0.29727643525E-01  0.89266648052E-01  0.51100000000E-03 0.  1.
</event>
<event>
 8    1  0.1143506E+005  0.1043930E+01  0.7957747E-01            NaN
         13   -1    0    0    0    0  0.00000000000E+00  0.00000000000E+00  0.74505805969E-08  0.10566000000E+00  0.10566000000E+00 0.  1.
     999900   -1    0    0    0    0 -0.00000000000E+00 -0.00000000000E+00 -0.74505805969E-08  0.93827000000E+00  0.93827000000E+00 0. -1.
     999902    2    1    2    0    0 -0.22148367807E-01  0.11816522994E-01 -0.13667013511E-01  0.10153473537E+01  0.10149449645E+01 0.  0.
     999903    2    3    3    0    0 -0.14951134613E-01  0.44441697222E-01  0.11475464683E+00  0.12539885798E+00  0.18911471036E-01 0.  0.
         14    1    1    2    0    0  0.22148367807E-01 -0.11816522994E-01  0.13667013511E-01  0.28582646317E-01  0.00000000000E+00 0. -1.
     999901    1    3    3    0    0 -0.71972331939E-02 -0.32625174228E-01 -0.12842166034E+00  0.88994849570E+00  0.88000000000E+00 0. -1.
        -11    1    4    4    0    0 -0.29226366575E-02  0.34499125105E-01  0.85330753928E-01  0.92088707912E-01  0.51100000000E-03 0.  1.
         11    1    4    4    0    0 -0.12028497955E-01  0.99425721166E-02  0.29423892897E-01  0.33310150068E-01  0.51100000000E-03 0. -1.
</event>
<event>
 8    1  0.1143506E+005  0.1043930E+01  0.7957747E-01            NaN
         13   -1    0    0    0    0  0.00000000000E+00  0.00000000000E+00  0.74505805969E-08  0.10566000000E+00  0.10566000000E+00 0. -1.
     999900   -1    0    0    0    0 -0.00000000000E+00 -0.00000000000E+00 -0.74505805969E-08  0.93827000000E+00  0.93827000000E+00 0.  1.
     999902    2    1    2    0    0  0.13736686697E-01 -0.44726787218E-02  0.22193475171E-01  0.10174488415E+01  0.10171041703E+01 0.  0.
     999903    2    3    3    0    0  0.15693020209E-02  0.12212599113E+00 -0.27162923560E-01  0.12693700969E+00  0.21399990511E-01 0.  0.
         14    1    1    2    0    0 -0.13736686697E-01  0.44726787218E-02 -0.22193475171E-01  0.26481158519E-01  0.00000000000E+00 0.  1.
     999901    1    3    3    0    0  0.12167384676E-01 -0.12659866986E+00  0.49356398731E-01  0.89051183179E+00  0.88000000000E+00 0. -1.
        -11    1    4    4    0    0 -0.72732811661E-02  0.40119439441E-01 -0.15545694234E-01  0.43639429077E-01  0.51100000000E-03 0.  1.
         11    1    4    4    0    0  0.88425831870E-02  0.82006551694E-01 -0.11617229326E-01  0.83297580615E-01  0.51100000000E-03 0. -1.
</event>
<event>
 8    1  0.1143506E+005  0.1043930E+01  0.7957747E-01            NaN
         13   -1    0    0    0    0  0.00000000000E+00  0.00000000000E+00  0.74505805969E-08  0.10566000000E+00  0.10566000000E+00 0. -1.
     999900   -1    0    0    0    0 -0.00000000000E+00 -0.00000000000E+00 -0.74505805969E-08  0.93827000000E+00  0.93827000000E+00 0. -1.
     999902    2    1    2    0    0 -0.82355885505E-02  0.12357141391E-01  0.18337579905E-01  0.10203335872E+01  0.10200607033E+01 0.  0.
     999903    2    3    3    0    0  0.48008775039E-01  0.10478183125E+00  0.63673861359E-01  0.13254919321E+00  0.15193859260E-01 0.  0.
         14    1    1    2    0    0  0.82355885505E-02 -0.12357141391E-01 -0.18337579905E-01  0.23596412840E-01  0.00000000000E+00 0. -1.
     999901    1    3    3    0    0 -0.56244363589E-01 -0.92424689856E-01 -0.45336281455E-01  0.88778439395E+00  0.88000000000E+00 0. -1.
        -11    1    4    4    0    0  0.56607733104E-03  0.10967856669E-01  0.79268062557E-02  0.13553955211E-01  0.51100000000E-03 0. -1.
         11    1    4    4    0    0  0.47442697708E-01  0.93813974579E-01  0.55747055104E-01  0.11899523800E+00  0.51100000000E-03 0.  1.
</event>
<event>
 8    1  0.1143506E+005  0.1043930E+01  0.7957747E-01            NaN
         13   -1    0    0    0    0  0.00000000000E+00  0.00000000000E+00  0.74505805969E-08  0.10566000000E+00  0.10566000000E+00 0.  1.
     999900   -1    0    0    0    0 -0.00000000000E+00 -0.00000000000E+00 -0.74505805969E-08  0.93827000000E+00  0.93827000000E+00 0.  1.
     999902    2    1    2    0    0 -0.12625076774E-01 -0.65211263961E-02 -0.12850556186E-01  0.10247713349E+01  0.10245922284E+01 0.  0.
     999903    2    3    3    0    0  0.74889305411E-01 -0.12292611326E-01 -0.11004234107E+00  0.13508694135E+00  0.19484571797E-01 0.  0.
         14    1    1    2    0    0  0.12625076774E-01  0.65211263961E-02  0.12850556186E-01  0.19158665071E-01  0.00000000000E+00 0.  1.
     999901    1    3    3    0    0 -0.87514382185E-01  0.57714849301E-02  0.97191784880E-01  0.88968439358E+00  0.88000000000E+00 0. -1.
        -11    1    4    4    0    0  0.34045137404E-01 -0.23755488545E-02 -0.33860489549E-01  0.48078149784E-01  0.51100000000E-03 0. -1.
         11    1    4    4    0    0  0.40844168007E-01 -0.99170624716E-02 -0.76181851517E-01  0.87008791566E-01  0.51100000000E-03 0.  1.
</event>
<event>
 8    1  0.1143506E+005  0.1043930E+01  0.7957747E-01            NaN
         13   -1    0    0    0    0  0.00000000000E+00  0.00000000000E+00  0.74505805969E-08  0.10566000000E+00  0.10566000000E+00 0. -1.
     999900   -1    0    0    0    0 -0.00000000000E+00 -0.00000000000E+00 -0.74505805969E-08  0.93827000000E+00  0.93827000000E+00 0.  1.
     999902    2    1    2    0    0  0.10945324556E-01 -0.93426507137E-02 -0.18221603022E-01  0.10207112130E+01  0.10204470924E+01 0.  0.
     999903    2    3    3    0    0 -0.74281894208E-01 -0.10569424884E+00 -0.12169940664E-01  0.13133843859E+00  0.20312654971E-01 0.  0.
         14    1    1    2    0    0 -0.10945324556E-01  0.93426507137E-02  0.18221603022E-01  0.23218786978E-01  0.00000000000E+00 0. -1.
     999901    1    3    3    0    0  0.85227218764E-01  0.96351598123E-01 -0.60516623587E-02  0.88937277443E+00  0.88000000000E+00 0.  1.
        -11    1    4    4    0    0 -0.31011808418E-01 -0.53258768473E-01  0.29097232540E-02  0.61700537202E-01  0.51100000000E-03 0. -1.
         11    1    4    4    0    0 -0.43270085790E-01 -0.52435480364E-01 -0.15079663918E-01  0.69637901391E-01  0.51100000000E-03 0.  1.
</event>
<event>
 8    1  0.1143506E+005  0.1043930E+01  0.7957747E-01            NaN
         13   -1    0    0    0    0  0.00000000000E+00  0.00000000000E+00  0.74505805969E-08  0.10566000000E+00  0.10566000000E+00 0. -1.
     999900   -1    0    0    0    0 -0.00000000000E+00 -0.00000000000E+00 -0.74505805969E-08  0.93827000000E+00  0.93827000000E+00 0.  1.
     999902    2    1    2    0    0  0.20341406525E-01  0.38982564227E-02 -0.87408063094E-02  0.10214495437E+01  0.10212021344E+01 0.  0.
     999903    2    3    3    0    0 -0.10603662431E+00  0.47011033256E-01  0.53294271067E-01  0.12921724821E+00  0.20075232589E-01 0.  0.
         14    1    1    2    0    0 -0.20341406525E-01 -0.38982564227E-02  0.87408063094E-02  0.22480456345E-01  0.00000000000E+00 0. -1.
     999901    1    3    3    0    0  0.12637803084E+00 -0.43112776834E-01 -0.62035077376E-01  0.89223229544E+00  0.88000000000E+00 0.  1.
        -11    1    4    4    0    0 -0.53766784373E-01  0.34666363708E-01  0.27539244415E-01  0.69651238169E-01  0.51100000000E-03 0.  1.
         11    1    4    4    0    0 -0.52269839941E-01  0.12344669548E-01  0.25755026652E-01  0.59566010044E-01  0.51100000000E-03 0. -1.
</event>
<event>
 8    1  0.1143506E+005  0.1043930E+01  0.7957747E-01            NaN
         13   -1    0    0    0    0  0.00000000000E+00  0.00000000000E+00  0.74505805969E-08  0.10566000000E+00  0.10566000000E+00 0.  1.
     999900   -1    0    0    0    0 -0.00000000000E+00 -0.00000000000E+00 -0.74505805969E-08  0.93827000000E+00  0.93827000000E+00 0. -1.
     999902    2    1    2    0    0 -0.18952120388E-01 -0.14173681639E-01  0.76870673434E-02  0.10190469310E+01  0.10187430885E+01 0.  0.
     999903    2    3    3    0    0 -0.79971734509E-01  0.63128356545E-01  0.80169540921E-01  0.13059169443E+00  0.15696102780E-01 0.  0.
         14    1    1    2    0    0  0.18952120388E-01  0.14173681639E-01 -0.76870673434E-02  0.24883068998E-01  0.00000000000E+00 0. -1.
     999901    1    3    3    0    0  0.61019614121E-01 -0.77302038185E-01 -0.72482473578E-01  0.88845523657E+00  0.88000000000E+00 0. -1.
        -11    1    4    4    0    0 -0.60602771769E-01  0.38865722270E-01  0.57692676811E-01  0.92260210234E-01  0.51100000000E-03 0. -1.
         11    1    4    4    0    0 -0.19368962739E-01  0.24262634276E-01  0.22476864109E-01  0.38331484198E-01  0.51100000000E-03 0.  1.
</event>
<event>
 8    1  0.1143506E+005  0.1043930E+01  0.7957747E-01            NaN
         13   -1    0    0    0    0  0.00000000000E+00  0.00000000000E+00  0.74505805969E-08  0.10566000000E+00  0.10566000000E+00 0. -1.
     999900   -1    0    0    0    0 -0.00000000000E+00 -0.00000000000E+00 -0.74505805969E-08  0.93827000000E+00  0.93827000000E+00 0.  1.
     999902    2    1    2    0    0  0.23369146661E-01  0.34029783919E-02  0.66242952384E-02  0.10194029014E+01  0.10191077945E+01 0.  0.
     999903    2    3    3    0    0 -0.98114294370E-01  0.53858873462E-01  0.59181041036E-01  0.12807454704E+00  0.19326173187E-01 0.  0.
         14    1    1    2    0    0 -0.23369146661E-01 -0.34029783919E-02 -0.66242952384E-02  0.24527098585E-01  0.00000000000E+00 0. -1.
     999901    1    3    3    0    0  0.12148344103E+00 -0.50455895070E-01 -0.52556745798E-01  0.89132835438E+00  0.88000000000E+00 0.  1.
        -11    1    4    4    0    0 -0.30019030627E-01  0.17304763909E-01  0.85940521256E-02  0.35703163818E-01  0.51100000000E-03 0. -1.
         11    1    4    4    0    0 -0.68095263743E-01  0.36554109554E-01  0.50586988911E-01  0.92371383217E-01  0.51100000000E-03 0.  1.
</event>
<event>
 8    1  0.1143506E+005  0.1043930E+01  0.7957747E-01            NaN
         13   -1    0    0    0    0  0.00000000000E+00  0.00000000000E+00  0.74505805969E-08  0.10566000000E+00  0.10566000000E+00 0.  1.
     999900   -1    0    0    0    0 -0.00000000000E+00 -0.00000000000E+00 -0.74505805969E-08  0.93827000000E+00  0.93827000000E+00 0.  1.
     999902    2    1    2    0    0  0.22382491346E-02 -0.22369189914E-01  0.44074440218E-02  0.10210211375E+01  0.10207640997E+01 0.  0.
     999903    2    3    3    0    0  0.68218727024E-01 -0.10246414129E+00 -0.47639375943E-01  0.13339650056E+00  0.19298218968E-01 0.  0.
         14    1    1    2    0    0 -0.22382491346E-02  0.22369189914E-01 -0.44074440218E-02  0.22908862465E-01  0.00000000000E+00 0. -1.
     999901    1    3    3    0    0 -0.65980477889E-01  0.80094951371E-01  0.52046819965E-01  0.88762463698E+00  0.88000000000E+00 0.  1.
        -11    1    4    4    0    0  0.31207439438E-01 -0.35365398423E-01 -0.10891283469E-01  0.48409677323E-01  0.51100000000E-03 0. -1.
         11    1    4    4    0    0  0.37011287585E-01 -0.67098742862E-01 -0.36748092474E-01  0.84986823237E-01  0.51100000000E-03 0.  1.
</event>
<event>
 8    1  0.1143506E+005  0.1043930E+01  0.7957747E-01            NaN
         13   -1    0    0    0    0  0.00000000000E+00  0.00000000000E+00  0.74505805969E-08  0.10566000000E+00  0.10566000000E+00 0. -1.
     999900   -1    0    0    0    0 -0.00000000000E+00 -0.00000000000E+00 -0.74505805969E-08  0.93827000000E+00  0.93827000000E+00 0. -1.
     999902    2    1    2    0    0 -0.15191752919E-01  0.15860120144E-01 -0.96990029667E-02  0.10199215968E+01  0.10196389852E+01 0.  0.
     999903    2    3    3    0    0  0.62429334673E-01 -0.72842345323E-01  0.81513115267E-01  0.12738991041E+00  0.19503133445E-01 0.  0.
         14    1    1    2    0    0  0.15191752919E-01 -0.15860120144E-01  0.96990029667E-02  0.24008403243E-01  0.00000000000E+00 0. -1.
     999901    1    3    3    0    0 -0.77621087592E-01  0.88702465467E-01 -0.91212118233E-01  0.89253168635E+00  0.88000000000E+00 0. -1.
        -11    1    4    4    0    0  0.39985811483E-01 -0.52203208079E-01  0.44353005271E-01  0.79318914839E-01  0.51100000000E-03 0.  1.
         11    1    4    4    0    0  0.22443523191E-01 -0.20639137243E-01  0.37160109996E-01  0.48070995572E-01  0.51100000000E-03 0. -1.
</event>
<event>
 8    1  0.1143506E+005  0.1043930E+01  0.7957747E-01            NaN
         13   -1    0    0    0    0  0.00000000000E+00  0.00000000000E+00  0.74505805969E-08  0.10566000000E+00  0.10566000000E+00 0. -1.
     999900   -1    0    0    0    0 -0.00000000000E+00 -0.00000000000E+00 -0.74505805969E-08  0.93827000000E+00  0.93827000000E+00 0.  1.
     999902    2    1    2    0    0  0.14549125898E-02  0.23630415543E-01  0.13478518883E-02  0.10202165014E+01  0.10199408707E+01 0.  0.
     999903    2    3    3    0    0 -0.68985484034E-03 -0.73358224214E-01  0.10569442234E+00  0.12875724660E+00  0.50212229437E-02 0.  0.
         14    1    1    2    0    0 -0.14549125898E-02 -0.23630415543E-01 -0.13478518883E-02  0.23713498563E-01  0.00000000000E+00 0.  1.
     999901    1    3    3    0    0  0.21447674302E-02  0.96988639757E-01 -0.10434657045E+00  0.89145925484E+00  0.88000000000E+00 0.  1.
        -11    1    4    4    0    0 -0.27255075453E-02 -0.51402132558E-01  0.74061922558E-01  0.90194440609E-01  0.51100000000E-03 0.  1.
         11    1    4    4    0    0  0.20356527049E-02 -0.21956091656E-01  0.31632499777E-01  0.38562805991E-01  0.51100000000E-03 0. -1.
</event>
<event>
 8    1  0.1143506E+005  0.1043930E+01  0.7957747E-01            NaN
         13   -1    0    0    0    0  0.00000000000E+00  0.00000000000E+00  0.74505805969E-08  0.10566000000E+00  0.10566000000E+00 0. -1.
     999900   -1    0    0    0    0 -0.00000000000E+00 -0.00000000000E+00 -0.74505805969E-08  0.93827000000E+00  0.93827000000E+00 0. -1.
     999902    2    1    2    0    0  0.13167595875E-01 -0.17072404701E-01  0.80783073334E-02  0.10209058468E+01  0.10206461857E+01 0.  0.
     999903    2    3    3    0    0 -0.98472463617E-02 -0.12811566210E+00  0.29461449057E-01  0.13337132532E+00  0.20232209540E-01 0.  0.
         14    1    1    2    0    0 -0.13167595875E-01  0.17072404701E-01 -0.80783073334E-02  0.23024153248E-01  0.00000000000E+00 0. -1.
     999901    1    3    3    0    0  0.23014842237E-01  0.11104325739E+00 -0.21383141724E-01  0.88753452143E+00  0.88000000000E+00 0. -1.
        -11    1    4    4    0    0  0.19055874114E-02 -0.70274460434E-01  0.88807630332E-02  0.70860850445E-01  0.51100000000E-03 0.  1.
         11    1    4    4    0    0 -0.11752833773E-01 -0.57841201662E-01  0.20580686024E-01  0.62510474879E-01  0.51100000000E-03 0. -1.
</event>
<event>
 8    1  0.1143506E+005  0.1043930E+01  0.7957747E-01            NaN
         13   -1    0    0    0    0  0.00000000000E+00  0.00000000000E+00  0.74505805969E-08  0.10566000000E+00  0.10566000000E+00 0.  1.
     999900   -1    0    0    0    0 -0.00000000000E+00 -0.00000000000E+00 -0.74505805969E-08  0.93827000000E+00  0.93827000000E+00 0.  1.
     999902    2    1    2    0    0  0.23164911944E-01  0.33221431193E-03 -0.10119581957E-03  0.10207624850E+01  0.10204995429E+01 0.  0.
     999903    2    3    3    0    0 -0.51944762098E-01 -0.11480364885E+00 -0.23826111600E-01  0.12977393188E+00  0.19886017807E-01 0.  0.
         14    1    1    2    0    0 -0.23164911944E-01 -0.33221431193E-03  0.10119581957E-03  0.23167515022E-01  0.00000000000E+00 0.  1.
     999901    1    3    3    0    0  0.75109674042E-01  0.11513586316E+00  0.23724915781E-01  0.89098855310E+00  0.88000000000E+00 0. -1.
        -11    1    4    4    0    0 -0.52454587621E-02 -0.13154518101E-01 -0.93480776362E-02  0.16976567986E-01  0.51100000000E-03 0. -1.
         11    1    4    4    0    0 -0.46699303336E-01 -0.10164913075E+00 -0.14478033964E-01  0.11279736390E+00  0.51100000000E-03 0.  1.
</event>
<event>
 8    1  0.1143506E+005  0.1043930E+01  0.7957747E-01            NaN
         13   -1    0    0    0    0  0.00000000000E+00  0.00000000000E+00  0.74505805969E-08  0.10566000000E+00  0.10566000000E+00 0. -1.
     999900   -1    0    0    0    0 -0.00000000000E+00 -0.00000000000E+00 -0.74505805969E-08  0.93827000000E+00  0.93827000000E+00 0.  1.
     999902    2    1    2    0    0 -0.10771847029E-01  0.17924116148E-01 -0.84862738926E-02  0.10213618040E+01  0.10211124380E+01 0.  0.
     999903    2    3    3    0    0  0.26005655700E-01  0.38222312501E-01 -0.12294644361E+00  0.13295551631E+00  0.20593737396E-01 0.  0.
         14    1    1    2    0    0  0.10771847029E-01 -0.17924116148E-01  0.84862738926E-02  0.22568196044E-01  0.00000000000E+00 0. -1.
     999901    1    3    3    0    0 -0.36777502729E-01 -0.20298196353E-01  0.11446016971E+00  0.88840628765E+00  0.88000000000E+00 0. -1.
        -11    1    4    4    0    0  0.19070245060E-01  0.13196309085E-01 -0.73910744796E-01  0.77465322160E-01  0.51100000000E-03 0.  1.
         11    1    4    4    0    0  0.69354106399E-02  0.25026003416E-01 -0.49035698810E-01  0.55490194147E-01  0.51100000000E-03 0. -1.
</event>
<event>
 8    1  0.1143506E+005  0.1043930E+01  0.7957747E-01            NaN
         13   -1    0    0    0    0  0.00000000000E+00  0.00000000000E+00  0.74505805969E-08  0.10566000000E+00  0.10566000000E+00 0. -1.
     999900   -1    0    0    0    0 -0.00000000000E+00 -0.00000000000E+00 -0.74505805969E-08  0.93827000000E+00  0.93827000000E+00 0. -1.
     999902    2    1    2    0    0 -0.13877791098E-01  0.17369939838E-01  0.83804167629E-02  0.10201699646E+01  0.10198932383E+01 0.  0.
     999903    2    3    3    0    0  0.85196755018E-01  0.26775641337E-01  0.94308843610E-01  0.13040149618E+00  0.11617667050E-01 0.  0.
         14    1    1    2    0    0  0.13877791098E-01 -0.17369939838E-01 -0.83804167629E-02  0.23760035372E-01  0.00000000000E+00 0. -1.
     999901    1    3    3    0    0 -0.99074546116E-01 -0.94057014989E-02 -0.85928426847E-01  0.88976846845E+00  0.88000000000E+00 0. -1.
        -11    1    4    4    0    0  0.64098741605E-01  0.17980948061E-01  0.63210203801E-01  0.91802800361E-01  0.51100000000E-03 0.  1.
         11    1    4    4    0    0  0.21098013414E-01  0.87946932758E-02  0.31098639809E-01  0.38598695817E-01  0.51100000000E-03 0. -1.
</event>
<event>
 7    1  0.1143506E+005  0.1043930E+01  0.7957747E-01            NaN
         13   -1    0    0    0    0  0.00000000000E+00  0.00000000000E+00  0.74505805969E-08  0.10566000000E+00  0.10566000000E+00 0.  1.
     999900   -1    0    0    0    0 -0.00000000000E+00 -0.00000000000E+00 -0.74505805969E-08  0.93827000000E+00  0.93827000000E+00 0.  1.
     999902    2    1    2    0    0 -0.12440856547E-01 -0.11048658502E-01  0.15232212368E-01  0.10213718959E+01  0.10211227555E+01 0.  0.
         14    1    1    2    0    0  0.12440856547E-01  0.11048658502E-01 -0.15232212368E-01  0.22558104086E-01  0.00000000000E+00 0. -1.
     999901    1    3    3    0    0  0.13752668408E-01  0.71280954769E-01  0.10807585286E+00  0.88957883314E+00  0.88000000000E+00 0. -1.
        -11    1    3    3    0    0  0.36710993091E-02 -0.45619535544E-01 -0.39252792671E-01  0.60296449704E-01  0.51100000000E-03 0. -1.
         11    1    3    3    0    0 -0.29864624264E-01 -0.36710077727E-01 -0.53590847822E-01  0.71496613070E-01  0.51100000000E-03 0.  1.
</event>
<event>
 8    1  0.1143506E+005  0.1043930E+01  0.7957747E-01            NaN
         13   -1    0    0    0    0  0.00000000000E+00  0.00000000000E+00  0.74505805969E-08  0.10566000000E+00  0.10566000000E+00 0.  1.
     999900   -1    0    0    0    0 -0.00000000000E+00 -0.00000000000E+00 -0.74505805969E-08  0.93827000000E+00  0.93827000000E+00 0.  1.
     999902    2    1    2    0    0 -0.21132022121E-01 -0.78433851019E-02  0.39715434743E-02  0.10210421384E+01  0.10207855770E+01 0.  0.
     999903    2    3    3    0    0  0.64759168413E-01  0.61016645004E-01 -0.91383195566E-01  0.12907155227E+00  0.19793845298E-01 0.  0.
         14    1    1    2    0    0  0.21132022121E-01  0.78433851019E-02 -0.39715434743E-02  0.22887861551E-01  0.00000000000E+00 0.  1.
     999901    1    3    3    0    0 -0.85891190534E-01 -0.68860030106E-01  0.95354739040E-01  0.89197058618E+00  0.88000000000E+00 0. -1.
        -11    1    4    4    0    0  0.24300595167E-01  0.10633591372E-01 -0.27007357318E-01  0.37858297125E-01  0.51100000000E-03 0. -1.
         11    1    4    4    0    0  0.40458573246E-01  0.50383053632E-01 -0.64375838248E-01  0.91213255142E-01  0.51100000000E-03 0.  1.
</event>
<event>
 8    1  0.1143506E+005  0.1043930E+01  0.7957747E-01            NaN
         13   -1    0    0    0    0  0.00000000000E+00  0.00000000000E+00  0.74505805969E-08  0.10566000000E+00  0.10566000000E+00 0. -1.
     999900   -1    0    0    0    0 -0.00000000000E+00 -0.00000000000E+00 -0.74505805969E-08  0.93827000000E+00  0.93827000000E+00 0. -1.
     999902    2    1    2    0    0  0.22485716768E-01  0.12571240359E-03  0.54472498601E-02  0.10207935397E+01  0.10205313101E+01 0.  0.
     999903    2    3    3    0    0  0.39506519410E-01 -0.56580470786E-01 -0.10996003706E+00  0.13128573157E+00  0.19560644492E-01 0.  0.
         14    1    1    2    0    0 -0.22485716768E-01 -0.12571240359E-03 -0.54472498601E-02  0.23136460256E-01  0.00000000000E+00 0. -1.
     999901    1    3    3    0    0 -0.17020802643E-01  0.56706183189E-01  0.11540728692E+00  0.88950780818E+00  0.88000000000E+00 0.  1.
        -11    1    4    4    0    0  0.16657838743E-01 -0.20743648683E-01 -0.60362016672E-01  0.65966785051E-01  0.51100000000E-03 0. -1.
         11    1    4    4    0    0  0.22848680668E-01 -0.35836822103E-01 -0.49598020385E-01  0.65318946515E-01  0.51100000000E-03 0.  1.
</event>
<event>
 8    1  0.1143506E+005  0.1043930E+01  0.7957747E-01            NaN
         13   -1    0    0    0    0  0.00000000000E+00  0.00000000000E+00  0.74505805969E-08  0.10566000000E+00  0.10566000000E+00 0.  1.
     999900   -1    0    0    0    0 -0.00000000000E+00 -0.00000000000E+00 -0.74505805969E-08  0.93827000000E+00  0.93827000000E+00 0.  1.
     999902    2    1    2    0    0 -0.14693932859E-01  0.19645199644E-01 -0.34742994806E-03  0.10193949997E+01  0.10190997003E+01 0.  0.
     999903    2    3    3    0    0 -0.28186502673E-01  0.12064736842E+00  0.42369357229E-01  0.13248564050E+00  0.20174639234E-01 0.  0.
         14    1    1    2    0    0  0.14693932859E-01 -0.19645199644E-01  0.34742994806E-03  0.24535000295E-01  0.00000000000E+00 0. -1.
     999901    1    3    3    0    0  0.13492569814E-01 -0.10100216877E+00 -0.42716787177E-01  0.88690935920E+00  0.88000000000E+00 0.  1.
        -11    1    4    4    0    0 -0.93907365033E-02  0.23784474081E-01  0.13015515550E-02  0.25609418127E-01  0.51100000000E-03 0.  1.
         11    1    4    4    0    0 -0.18795766170E-01  0.96862894336E-01  0.41067805674E-01  0.10687622237E+00  0.51100000000E-03 0. -1.
</event>
<event>
 8    1  0.1143506E+005  0.1043930E+01  0.7957747E-01            NaN
         13   -1    0    0    0    0  0.00000000000E+00  0.00000000000E+00  0.74505805969E-08  0.10566000000E+00  0.10566000000E+00 0. -1.
     999900   -1    0    0    0    0 -0.00000000000E+00 -0.00000000000E+00 -0.74505805969E-08  0.93827000000E+00  0.93827000000E+00 0.  1.
     999902    2    1    2    0    0  0.18283389328E-01 -0.11794088945E-02  0.15259213594E-01  0.10200864069E+01  0.10198077077E+01 0.  0.
     999903    2    3    3    0    0  0.71020520033E-01 -0.72525474438E-01  0.83401725820E-01  0.13300418527E+00  0.20746245961E-01 0.  0.
         14    1    1    2    0    0 -0.18283389328E-01  0.11794088945E-02 -0.15259213594E-01  0.23843593063E-01  0.00000000000E+00 0.  1.
     999901    1    3    3    0    0 -0.52737130705E-01  0.71346065543E-01 -0.68142512226E-01  0.88708222167E+00  0.88000000000E+00 0.  1.
        -11    1    4    4    0    0  0.32922261699E-01 -0.39044893612E-01  0.54216040195E-01  0.74485026468E-01  0.51100000000E-03 0. -1.
         11    1    4    4    0    0  0.38098258334E-01 -0.33480580826E-01  0.29185685625E-01  0.58519158802E-01  0.51100000000E-03 0.  1.
</event>
<event>
 8    1  0.1143506E+005  0.1043930E+01  0.7957747E-01            NaN
         13   -1    0    0    0    0  0.00000000000E+00  0.00000000000E+00  0.74505805969E-08  0.10566000000E+00  0.10566000000E+00 0. -1.
     999900   -1    0    0    0    0 -0.00000000000E+00 -0.00000000000E+00 -0.74505805969E-08  0.93827000000E+00  0.93827000000E+00 0.  1.
     999902    2    1    2    0    0 -0.12833719037E-02  0.97152916943E-02 -0.22064765459E-01  0.10197869304E+01  0.10195011013E+01 0.  0.
     999903    2    3    3    0    0 -0.90350246721E-01  0.92172657816E-01 -0.12749803562E-01  0.13140700381E+00  0.21125274597E-01 0.  0.
         14    1    1    2    0    0  0.12833719037E-02 -0.97152916943E-02  0.22064765459E-01  0.24143069625E-01  0.00000000000E+00 0. -1.
     999901    1    3    3    0    0  0.89066874817E-01 -0.82457366122E-01 -0.93149618973E-02  0.88837992657E+00  0.88000000000E+00 0. -1.
        -11    1    4    4    0    0 -0.32578881066E-01  0.36509587991E-01 -0.14899050150E-01  0.51152481105E-01  0.51100000000E-03 0.  1.
         11    1    4    4    0    0 -0.57771365654E-01  0.55663069825E-01  0.21492465887E-02  0.80254522700E-01  0.51100000000E-03 0. -1.
</event>
<event>
 8    1  0.1143506E+005  0.1043930E+01  0.7957747E-01            NaN
         13   -1    0    0    0    0  0.00000000000E+00  0.00000000000E+00  0.74505805969E-08  0.10566000000E+00  0.10566000000E+00 0. -1.
     999900   -1    0    0    0    0 -0.00000000000E+00 -0.00000000000E+00 -0.74505805969E-08  0.93827000000E+00  0.93827000000E+00 0. -1.
     999902    2    1    2    0    0  0.18291081684E-01  0.12587940384E-01  0.81805141660E-02  0.10202669333E+01  0.10199924875E+01 0.  0.
     999903    2    3    3    0    0  0.49487344934E-01 -0.58098913111E-01  0.10530936472E+00  0.13155784048E+00  0.19822262256E-01 0.  0.
         14    1    1    2    0    0 -0.18291081684E-01 -0.12587940384E-01 -0.81805141660E-02  0.23663066671E-01  0.00000000000E+00 0.  1.
     999901    1    3    3    0    0 -0.31196263250E-01  0.70686853494E-01 -0.97128850556E-01  0.88870909285E+00  0.88000000000E+00 0.  1.
        -11    1    4    4    0    0  0.20099969875E-01 -0.10673071061E-01  0.25545005743E-01  0.34215956428E-01  0.51100000000E-03 0.  1.
         11    1    4    4    0    0  0.29387375059E-01 -0.47425842050E-01  0.79764358979E-01  0.97341884055E-01  0.51100000000E-03 0. -1.
</event>
<event>
 8    1  0.1143506E+005  0.1043930E+01  0.7957747E-01            NaN
         13   -1    0    0    0    0  0.00000000000E+00  0.00000000000E+00  0.74505805969E-08  0.10566000000E+00  0.10566000000E+00 0. -1.
     999900   -1    0    0    0    0 -0.00000000000E+00 -0.00000000000E+00 -0.74505805969E-08  0.93827000000E+00  0.93827000000E+00 0.  1.
     999902    2    1    2    0    0  0.18410208224E-01  0.13121043512E-01 -0.76067580213E-03  0.10213097397E+01  0.10210592089E+01 0.  0.
     999903    2    3    3    0    0  0.79795228280E-01 -0.10151342161E+00  0.15859031818E-01  0.13159889003E+00  0.19862168668E-01 0.  0.
         14    1    1    2    0    0 -0.18410208224E-01 -0.13121043512E-01  0.76067580213E-03  0.22620260330E-01  0.00000000000E+00 0. -1.
     999901    1    3    3    0    0 -0.61385020056E-01  0.11463446512E+00 -0.16619707620E-01  0.88971084964E+00  0.88000000000E+00 0.  1.
        -11    1    4    4    0    0  0.56668500442E-01 -0.84005674109E-01  0.86277106998E-02  0.10170039694E+00  0.51100000000E-03 0.  1.
         11    1    4    4    0    0  0.23126727838E-01 -0.17507747501E-01  0.72313211183E-02  0.29898493092E-01  0.51100000000E-03 0. -1.
</event>
<event>
 8    1  0.1143506E+005  0.1043930E+01  0.7957747E-01            NaN
         13   -1    0    0    0    0  0.00000000000E+00  0.00000000000E+00  0.74505805969E-08  0.10566000000E+00  0.10566000000E+00 0.  1.
     999900   -1    0    0    0    0 -0.00000000000E+00 -0.00000000000E+00 -0.74505805969E-08  0.93827000000E+00  0.93827000000E+00 0. -1.
     999902    2    1    2    0    0  0.18613442722E-01  0.15410245204E-02  0.28965907015E-02  0.10250295967E+01  0.10248553307E+01 0.  0.
     999903    2    3    3    0    0  0.77471603420E-01 -0.55669593764E-01 -0.94724076011E-01  0.13583494283E+00  0.19430082668E-01 0.  0.
         14    1    1    2    0    0 -0.18613442722E-01 -0.15410245204E-02 -0.28965907015E-02  0.18900403282E-01  0.00000000000E+00 0. -1.
     999901    1    3    3    0    0 -0.58858160697E-01  0.57210618284E-01  0.97620666712E-01  0.88919465388E+00  0.88000000000E+00 0.  1.
        -11    1    4    4    0    0  0.41001278770E-01 -0.17560309378E-01 -0.43284482348E-01  0.62155264133E-01  0.51100000000E-03 0.  1.
         11    1    4    4    0    0  0.36470324649E-01 -0.38109284386E-01 -0.51439593662E-01  0.73679678702E-01  0.51100000000E-03 0. -1.
</event>
<event>
 8    1  0.1143506E+005  0.1043930E+01  0.7957747E-01            NaN
         13   -1    0    0    0    0  0.00000000000E+00  0.00000000000E+00  0.74505805969E-08  0.10566000000E+00  0.10566000000E+00 0. -1.
     999900   -1    0    0    0    0 -0.00000000000E+00 -0.00000000000E+00 -0.74505805969E-08  0.93827000000E+00  0.93827000000E+00 0. -1.
     999902    2    1    2    0    0 -0.19839340725E-01 -0.64465240493E-02  0.10559009937E-01  0.10205494567E+01  0.10202816003E+01 0.  0.
     999903    2    3    3    0    0 -0.31500924709E-01  0.12259710786E+00 -0.24058230897E-01  0.13038845734E+00  0.19999805479E-01 0.  0.
         14    1    1    2    0    0  0.19839340725E-01  0.64465240493E-02 -0.10559009937E-01  0.23380543269E-01  0.00000000000E+00 0.  1.
     999901    1    3    3    0    0  0.11661583985E-01 -0.12904363191E+00  0.34617240834E-01  0.89016099939E+00  0.88000000000E+00 0. -1.
        -11    1    4    4    0    0 -0.18365813583E-01  0.10138968243E+00 -0.16784899035E-01  0.10439906498E+00  0.51100000000E-03 0.  1.
         11    1    4    4    0    0 -0.13135111126E-01  0.21207425427E-01 -0.72733318612E-02  0.25989392354E-01  0.51100000000E-03 0. -1.
</event>
<event>
 8    1  0.1143506E+005  0.1043930E+01  0.7957747E-01            NaN
         13   -1    0    0    0    0  0.00000000000E+00  0.00000000000E+00  0.74505805969E-08  0.10566000000E+00  0.10566000000E+00 0.  1.
     999900   -1    0    0    0    0 -0.00000000000E+00 -0.00000000000E+00 -0.74505805969E-08  0.93827000000E+00  0.93827000000E+00 0.  1.
     999902    2    1    2    0    0  0.83191060657E-02 -0.11657104279E-01  0.18511463138E-01  0.10205255160E+01  0.10202571043E+01 0.  0.
     999903    2    3    3    0    0 -0.10390590969E+00  0.67689661262E-01 -0.27732201304E-01  0.12865734192E+00  0.20132270835E-01 0.  0.
         14    1    1    2    0    0 -0.83191060657E-02  0.11657104279E-01 -0.18511463138E-01  0.23404484045E-01  0.00000000000E+00 0. -1.
     999901    1    3    3    0    0  0.11222501576E+00 -0.79346765541E-01  0.46243664442E-01  0.89186817404E+00  0.88000000000E+00 0. -1.
        -11    1    4    4    0    0 -0.11361153126E-01  0.13972754132E-01  0.38055600678E-03  0.18019977865E-01  0.51100000000E-03 0.  1.
         11    1    4    4    0    0 -0.92544756566E-01  0.53716907130E-01 -0.28112757311E-01  0.11063736405E+00  0.51100000000E-03 0. -1.
</event>
<event>
 8    1  0.1143506E+005  0.1043930E+01  0.7957747E-01            NaN
         13   -1    0    0    0    0  0.00000000000E+00  0.00000000000E+00  0.74505805969E-08  0.10566000000E+00  0.10566000000E+00 0.  1.
     999900   -1    0    0    0    0 -0.00000000000E+00 -0.00000000000E+00 -0.74505805969E-08  0.93827000000E+00  0.93827000000E+00 0.  1.
     999902    2    1    2    0    0 -0.91568617489E-02  0.17897413091E-01 -0.13730663927E-01  0.10195846381E+01  0.10192939408E+01 0.  0.
     999903    2    3    3    0    0  0.90390630617E-02 -0.51723944288E-01 -0.11616282444E+00  0.13072549711E+00  0.28953112748E-01 0.  0.
         14    1    1    2    0    0  0.91568617489E-02 -0.17897413091E-01  0.13730663927E-01  0.24345361865E-01  0.00000000000E+00 0.  1.
     999901    1    3    3    0    0 -0.18195924811E-01  0.69621357379E-01  0.10243216051E+00  0.88885914103E+00  0.88000000000E+00 0. -1.
        -11    1    4    4    0    0  0.14991295918E-01 -0.37043679451E-01 -0.10169338021E+00  0.10926471452E+00  0.51100000000E-03 0. -1.
         11    1    4    4    0    0 -0.59522328566E-02 -0.14680264837E-01 -0.14469444231E-01  0.21460782582E-01  0.51100000000E-03 0.  1.
</event>
<event>
 8    1  0.1143506E+005  0.1043930E+01  0.7957747E-01            NaN
         13   -1    0    0    0    0  0.00000000000E+00  0.00000000000E+00  0.74505805969E-08  0.10566000000E+00  0.10566000000E+00 0.  1.
     999900   -1    0    0    0    0 -0.00000000000E+00 -0.00000000000E+00 -0.74505805969E-08  0.93827000000E+00  0.93827000000E+00 0.  1.
     999902    2    1    2    0    0  0.20389802743E-01  0.13755956960E-01  0.57927686157E-02  0.10186609166E+01  0.10183474537E+01 0.  0.
     999903    2    3    3    0    0 -0.10764818613E+00 -0.46318917539E-01 -0.42060830809E-01  0.12608448619E+00  0.19864794771E-01 0.  0.
         14    1    1    2    0    0 -0.20389802743E-01 -0.13755956960E-01 -0.57927686157E-02  0.25269083403E-01  0.00000000000E+00 0. -1.
     999901    1    3    3    0    0  0.12803798887E+00  0.60074874499E-01  0.47853599425E-01  0.89257643041E+00  0.88000000000E+00 0. -1.
        -11    1    4    4    0    0 -0.37750725350E-01 -0.11301598768E-01 -0.22940902138E-01  0.45600323585E-01  0.51100000000E-03 0.  1.
         11    1    4    4    0    0 -0.69897460776E-01 -0.35017318771E-01 -0.19119928671E-01  0.80484162605E-01  0.51100000000E-03 0. -1.
</event>
<event>
 8    1  0.1143506E+005  0.1043930E+01  0.7957747E-01            NaN
         13   -1    0    0    0    0  0.00000000000E+00  0.00000000000E+00  0.74505805969E-08  0.10566000000E+00  0.10566000000E+00 0.  1.
     999900   -1    0    0    0    0 -0.00000000000E+00 -0.00000000000E+00 -0.74505805969E-08  0.93827000000E+00  0.93827000000E+00 0. -1.
     999902    2    1    2    0    0 -0.17350324643E-03  0.87909278899E-02 -0.21959101925E-01  0.10202759798E+01  0.10200017462E+01 0.  0.
     999903    2    3    3    0    0  0.12535407747E+00  0.17682837444E-02 -0.33346571859E-01  0.13126745025E+00  0.20059363779E-01 0.  0.
         14    1    1    2    0    0  0.17350324643E-03 -0.87909278899E-02  0.21959101925E-01  0.23654020248E-01  0.00000000000E+00 0.  1.
     999901    1    3    3    0    0 -0.12552758072E+00  0.70226441454E-02  0.11387469934E-01  0.88900852950E+00  0.88000000000E+00 0.  1.
        -11    1    4    4    0    0  0.39388305905E-01  0.62647106112E-02 -0.30349213451E-02  0.40001963823E-01  0.51100000000E-03 0.  1.
         11    1    4    4    0    0  0.85965771566E-01 -0.44964268668E-02 -0.30311650514E-01  0.91265486430E-01  0.51100000000E-03 0. -1.
</event>
<event>
 8    1  0.1143506E+005  0.1043930E+01  0.7957747E-01            NaN
         13   -1    0    0    0    0  0.00000000000E+00  0.00000000000E+00  0.74505805969E-08  0.10566000000E+00  0.10566000000E+00 0.  1.
     999900   -1    0    0    0    0 -0.00000000000E+00 -0.00000000000E+00 -0.74505805969E-08  0.93827000000E+00  0.93827000000E+00 0.  1.
     999902    2    1    2    0    0 -0.10886267672E-01  0.10079096184E-01 -0.14043247398E-01  0.10235017891E+01  0.10232979041E+01 0.  0.
     999903    2    3    3    0    0  0.12216023676E+00 -0.13484876139E-01 -0.45343297505E-01  0.13263910254E+00  0.20788255493E-01 0.  0.
         14    1    1    2    0    0  0.10886267672E-01 -0.10079096184E-01  0.14043247398E-01  0.20428210916E-01  0.00000000000E+00 0.  1.
     999901    1    3    3    0    0 -0.13304650443E+00  0.23563972323E-01  0.31300050106E-01  0.89086268654E+00  0.88000000000E+00 0. -1.
        -11    1    4    4    0    0  0.19703358969E-01  0.30114220510E-02 -0.13525489392E-01  0.24093380869E-01  0.51100000000E-03 0.  1.
         11    1    4    4    0    0  0.10245687779E+00 -0.16496298190E-01 -0.31817808113E-01  0.10854572168E+00  0.51100000000E-03 0. -1.
</event>
<event>
 8    1  0.1143506E+005  0.1043930E+01  0.7957747E-01            NaN
         13   -1    0    0    0    0  0.00000000000E+00  0.00000000000E+00  0.74505805969E-08  0.10566000000E+00  0.10566000000E+00 0.  1.
     999900   -1    0    0    0    0 -0.00000000000E+00 -0.00000000000E+00 -0.74505805969E-08  0.93827000000E+00  0.93827000000E+00 0.  1.
     999902    2    1    2    0    0  0.94761493943E-02  0.19377605025E-01  0.10391141908E-01  0.10199870509E+01  0.10197059964E+01 0.  0.
     999903    2    3    3    0    0 -0.27464688906E-02 -0.40709898372E-01  0.12258359766E+00  0.13074746132E+00  0.20082861049E-01 0.  0.
         14    1    1    2    0    0 -0.94761493943E-02 -0.19377605025E-01 -0.10391141908E-01  0.23942949150E-01  0.00000000000E+00 0. -1.
     999901    1    3    3    0    0  0.12222618285E-01  0.60087503397E-01 -0.11219245576E+00  0.88923958953E+00  0.88000000000E+00 0.  1.
        -11    1    4    4    0    0  0.63908140062E-02 -0.40169539225E-02  0.23748242899E-01  0.24924256945E-01  0.51100000000E-03 0.  1.
         11    1    4    4    0    0 -0.91372828968E-02 -0.36692944450E-01  0.98835354766E-01  0.10582320437E+00  0.51100000000E-03 0. -1.
</event>
<event>
 8    1  0.1143506E+005  0.1043930E+01  0.7957747E-01            NaN
         13   -1    0    0    0    0  0.00000000000E+00  0.00000000000E+00  0.74505805969E-08  0.10566000000E+00  0.10566000000E+00 0. -1.
     999900   -1    0    0    0    0 -0.00000000000E+00 -0.00000000000E+00 -0.74505805969E-08  0.93827000000E+00  0.93827000000E+00 0. -1.
     999902    2    1    2    0    0 -0.13796280832E-01 -0.10241199025E-02  0.19443226129E-01  0.10200673675E+01  0.10197882177E+01 0.  0.
     999903    2    3    3    0    0 -0.46425020159E-01 -0.23602784422E-01 -0.11616441418E+00  0.12879644192E+00  0.19544267668E-01 0.  0.
         14    1    1    2    0    0  0.13796280832E-01  0.10241199025E-02 -0.19443226129E-01  0.23862632476E-01  0.00000000000E+00 0.  1.
     999901    1    3    3    0    0  0.32628739327E-01  0.22578664519E-01  0.13560764031E+00  0.89127092561E+00  0.88000000000E+00 0.  1.
        -11    1    4    4    0    0 -0.34296721852E-01 -0.16065491657E-01 -0.60925512787E-01  0.71739419996E-01  0.51100000000E-03 0.  1.
         11    1    4    4    0    0 -0.12128298307E-01 -0.75372927644E-02 -0.55238901396E-01  0.57057021921E-01  0.51100000000E-03 0. -1.
</event>
<event>
 8    1  0.1143506E+005  0.1043930E+01  0.7957747E-01            NaN
         13   -1    0    0    0    0  0.00000000000E+00  0.00000000000E+00  0.74505805969E-08  0.10566000000E+00  0.10566000000E+00 0. -1.
     999900   -1    0    0    0    0 -0.00000000000E+00 -0.00000000000E+00 -0.74505805969E-08  0.93827000000E+00  0.93827000000E+00 0.  1.
     999902    2    1    2    0    0 -0.66462800171E-02 -0.16682549848E-01  0.14813348582E-01  0.10206509149E+01  0.10203854048E+01 0.  0.
     999903    2    3    3    0    0  0.23612908118E-01 -0.86591156152E-01  0.96959308397E-01  0.13354844594E+00  0.19454618315E-01 0.  0.
         14    1    1    2    0    0  0.66462800171E-02  0.16682549848E-01 -0.14813348582E-01  0.23279085113E-01  0.00000000000E+00 0. -1.
     999901    1    3    3    0    0 -0.30259188135E-01  0.69908606304E-01 -0.82145959816E-01  0.88710246895E+00  0.88000000000E+00 0.  1.
        -11    1    4    4    0    0  0.17199009700E-01 -0.81212592082E-01  0.91474634217E-01  0.12352797608E+00  0.51100000000E-03 0. -1.
         11    1    4    4    0    0  0.64138984178E-02 -0.53785640707E-02  0.54846741802E-02  0.10020469861E-01  0.51100000000E-03 0.  1.
</event>
<event>
 8    1  0.1143506E+005  0.1043930E+01  0.7957747E-01            NaN
         13   -1    0    0    0    0  0.00000000000E+00  0.00000000000E+00  0.74505805969E-08  0.10566000000E+00  0.10566000000E+00 0.  1.
     999900   -1    0    0    0    0 -0.00000000000E+00 -0.00000000000E+00 -0.74505805969E-08  0.93827000000E+00  0.93827000000E+00 0.  1.
     999902    2    1    2    0    0 -0.48356817914E-02 -0.10195463357E-01  0.20965058479E-01  0.10201210738E+01  0.10198431939E+01 0.  0.
     999903    2    3    3    0    0 -0.12138823086E+00  0.32463421479E-02 -0.38242845816E-01  0.13036225545E+00  0.28038563819E-01 0.  0.
         14    1    1    2    0    0  0.48356817914E-02  0.10195463357E-01 -0.20965058479E-01  0.23808926236E-01  0.00000000000E+00 0. -1.
     999901    1    3    3    0    0  0.11655254907E+00 -0.13441805505E-01  0.59207904295E-01  0.88975881831E+00  0.88000000000E+00 0.  1.
        -11    1    4    4    0    0 -0.77847578845E-01  0.14451057895E-01 -0.18824874888E-01  0.81386212849E-01  0.51100000000E-03 0.  1.
         11    1    4    4    0    0 -0.43540652019E-01 -0.11204715747E-01 -0.19417970928E-01  0.48976042605E-01  0.51100000000E-03 0. -1.
</event>
<event>
 8    1  0.1143506E+005  0.1043930E+01  0.7957747E-01            NaN
         13   -1    0    0    0    0  0.00000000000E+00  0.00000000000E+00  0.74505805969E-08  0.10566000000E+00  0.10566000000E+00 0. -1.
     999900   -1    0    0    0    0 -0.00000000000E+00 -0.00000000000E+00 -0.74505805969E-08  0.93827000000E+00  0.93827000000E+00 0. -1.
     999902    2    1    2    0    0 -0.23332875165E-01 -0.17282689899E-02  0.73355031314E-02  0.10194102206E+01  0.10191152919E+01 0.  0.
     999903    2    3    3    0    0 -0.83090878015E-01  0.58412860281E-01 -0.79124856000E-01  0.13111783175E+00  0.24798925577E-01 0.  0.
         14    1    1    2    0    0  0.23332875165E-01  0.17282689899E-02 -0.73355031314E-02  0.24519779432E-01  0.00000000000E+00 0.  1.
     999901    1    3    3    0    0  0.59758002850E-01 -0.60141129271E-01  0.86460359132E-01  0.88829238882E+00  0.88000000000E+00 0. -1.
        -11    1    4    4    0    0 -0.26333879342E-01  0.15512290159E-01 -0.38601219280E-01  0.49238395568E-01  0.51100000000E-03 0. -1.
         11    1    4    4    0    0 -0.56756998673E-01  0.42900570122E-01 -0.40523636720E-01  0.81879436180E-01  0.51100000000E-03 0.  1.
</event>
<event>
 8    1  0.1143506E+005  0.1043930E+01  0.7957747E-01            NaN
         13   -1    0    0    0    0  0.00000000000E+00  0.00000000000E+00  0.74505805969E-08  0.10566000000E+00  0.10566000000E+00 0. -1.
     999900   -1    0    0    0    0 -0.00000000000E+00 -0.00000000000E+00 -0.74505805969E-08  0.93827000000E+00  0.93827000000E+00 0. -1.
     999902    2    1    2    0    0 -0.53406484291E-02  0.22665800256E-01  0.56936360864E-02  0.10199575467E+01  0.10196757909E+01 0.  0.
     999903    2    3    3    0    0 -0.82393018367E-01  0.53969364019E-01  0.86470938735E-01  0.13235293118E+00  0.18405798466E-01 0.  0.
         14    1    1    2    0    0  0.53406484291E-02 -0.22665800256E-01 -0.56936360864E-02  0.23972453332E-01  0.00000000000E+00 0.  1.
     999901    1    3    3    0    0  0.77052369938E-01 -0.31303563763E-01 -0.80777302649E-01  0.88760461549E+00  0.88000000000E+00 0. -1.
        -11    1    4    4    0    0 -0.74641331561E-01  0.51907963143E-01  0.84397890130E-01  0.12405252917E+00  0.51100000000E-03 0.  1.
         11    1    4    4    0    0 -0.77516868060E-02  0.20614008766E-02  0.20730486052E-02  0.83004020042E-02  0.51100000000E-03 0. -1.
</event>
<event>
 8    1  0.1143506E+005  0.1043930E+01  0.7957747E-01            NaN
         13   -1    0    0    0    0  0.00000000000E+00  0.00000000000E+00  0.74505805969E-08  0.10566000000E+00  0.10566000000E+00 0. -1.
     999900   -1    0    0    0    0 -0.00000000000E+00 -0.00000000000E+00 -0.74505805969E-08  0.93827000000E+00  0.93827000000E+00 0. -1.
     999902    2    1    2    0    0 -0.18223477187E-01 -0.32361780307E-02  0.15073246480E-01  0.10200601293E+01  0.10197808081E+01 0.  0.
     999903    2    3    3    0    0 -0.96468215031E-01  0.83085246069E-01 -0.25651864433E-01  0.13144763672E+00  0.20277781574E-01 0.  0.
         14    1    1    2    0    0  0.18223477187E-01  0.32361780307E-02 -0.15073246480E-01  0.23869870726E-01  0.00000000000E+00 0.  1.
     999901    1    3    3    0    0  0.78244737844E-01 -0.86321424100E-01  0.40725110913E-01  0.88861249255E+00  0.88000000000E+00 0.  1.
        -11    1    4    4    0    0 -0.75953400115E-02  0.12765561200E-01 -0.75876460302E-02  0.16687787029E-01  0.51100000000E-03 0. -1.
         11    1    4    4    0    0 -0.88872875020E-01  0.70319684869E-01 -0.18064218403E-01  0.11475984969E+00  0.51100000000E-03 0.  1.
</event>
<event>
 8    1  0.1143506E+005  0.1043930E+01  0.7957747E-01            NaN
         13   -1    0    0    0    0  0.00000000000E+00  0.00000000000E+00  0.74505805969E-08  0.10566000000E+00  0.10566000000E+00 0. -1.
     999900   -1    0    0    0    0 -0.00000000000E+00 -0.00000000000E+00 -0.74505805969E-08  0.93827000000E+00  0.93827000000E+00 0. -1.
     999902    2    1    2    0    0 -0.23303039988E-01  0.77438066563E-03  0.54920253825E-02  0.10199760091E+01  0.10196946923E+01 0.  0.
     999903    2    3    3    0    0  0.64938919297E-01 -0.29992626867E-02  0.11018347389E+00  0.12938003831E+00  0.19306412911E-01 0.  0.
         14    1    1    2    0    0  0.23303039988E-01 -0.77438066563E-03 -0.54920253825E-02  0.23953990918E-01  0.00000000000E+00 0.  1.
     999901    1    3    3    0    0 -0.88241959285E-01  0.37736433523E-02 -0.10469144851E+00  0.89059597077E+00  0.88000000000E+00 0. -1.
        -11    1    4    4    0    0  0.47743425133E-01 -0.21110148648E-02  0.95309530671E-01  0.10662109915E+00  0.51100000000E-03 0. -1.
         11    1    4    4    0    0  0.17195494165E-01 -0.88824782189E-03  0.14873943216E-01  0.22758939157E-01  0.51100000000E-03 0.  1.
</event>
<event>
 8    1  0.1560303E+005  0.1043930E+01  0.7957747E-01            NaN
         13   -1    0    0    0    0  0.00000000000E+00  0.00000000000E+00  0.74505805969E-08  0.10566000000E+00  0.10566000000E+00 0. -1.
     999900   -1    0    0    0    0 -0.00000000000E+00 -0.00000000000E+00 -0.74505805969E-08  0.93827000000E+00  0.93827000000E+00 0. -1.
     999902    2    1    2    0    0 -0.25177060015E-03  0.16294296224E-01  0.16122241161E-01  0.10210063411E+01  0.10207489674E+01 0.  0.
     999903    2    3    3    0    0  0.59937814442E-01  0.17331531423E-01  0.11571789036E+00  0.13334471899E+00  0.22299335220E-01 0.  0.
         14    1    1    2    0    0  0.25177060015E-03 -0.16294296224E-01 -0.16122241161E-01  0.22923658912E-01  0.00000000000E+00 0.  1.
     999901    1    3    3    0    0 -0.60189585042E-01 -0.10372351993E-02 -0.99595649202E-01  0.88766162210E+00  0.88000000000E+00 0. -1.
        -11    1    4    4    0    0  0.28352474483E-01  0.19457186213E-01  0.54972704989E-01  0.64843691439E-01  0.51100000000E-03 0.  1.
         11    1    4    4    0    0  0.31585339959E-01 -0.21256547896E-02  0.60745185374E-01  0.68501027552E-01  0.51100000000E-03 0. -1.
</event>
<event>
 8    1  0.1143506E+005  0.1043930E+01  0.7957747E-01            NaN
         13   -1    0    0    0    0  0.00000000000E+00  0.00000000000E+00  0.74505805969E-08  0.10566000000E+00  0.10566000000E+00 0. -1.
     999900   -1    0    0    0    0 -0.00000000000E+00 -0.00000000000E+00 -0.74505805969E-08  0.93827000000E+00  0.93827000000E+00 0.  1.
     999902    2    1    2    0    0 -0.15581377685E-01 -0.28612792091E-02 -0.20968596537E-01  0.10176498118E+01  0.10173104203E+01 0.  0.
     999903    2    3    3    0    0 -0.98612338514E-02 -0.94532237074E-01  0.81679120195E-01  0.12693502117E+00  0.20184973221E-01 0.  0.
         14    1    1    2    0    0  0.15581377685E-01  0.28612792091E-02  0.20968596537E-01  0.26280188165E-01  0.00000000000E+00 0. -1.
     999901    1    3    3    0    0 -0.57201438333E-02  0.91670957865E-01 -0.10264771673E+00  0.89071479067E+00  0.88000000000E+00 0. -1.
        -11    1    4    4    0    0 -0.22794549481E-02 -0.52669330809E-01  0.32621599852E-01  0.61997453340E-01  0.51100000000E-03 0.  1.
         11    1    4    4    0    0 -0.75817789034E-02 -0.41862906265E-01  0.49057520343E-01  0.64937567829E-01  0.51100000000E-03 0. -1.
</event>
<event>
 8    1  0.1143506E+005  0.1043930E+01  0.7957747E-01            NaN
         13   -1    0    0    0    0  0.00000000000E+00  0.00000000000E+00  0.74505805969E-08  0.10566000000E+00  0.10566000000E+00 0. -1.
     999900   -1    0    0    0    0 -0.00000000000E+00 -0.00000000000E+00 -0.74505805969E-08  0.93827000000E+00  0.93827000000E+00 0. -1.
     999902    2    1    2    0    0 -0.18027278603E-02 -0.23908554390E-01 -0.21326449276E-02  0.10198589183E+01  0.10195748115E+01 0.  0.
     999903    2    3    3    0    0  0.69523085532E-01 -0.44740888621E-01  0.99660925229E-01  0.13088012847E+00  0.19028964099E-01 0.  0.
         14    1    1    2    0    0  0.18027278603E-02  0.23908554390E-01  0.21326449276E-02  0.24071081720E-01  0.00000000000E+00 0.  1.
     999901    1    3    3    0    0 -0.71325813392E-01  0.20832334231E-01 -0.10179357016E+00  0.88897878981E+00  0.88000000000E+00 0. -1.
        -11    1    4    4    0    0  0.20669484888E-01 -0.36506170016E-02  0.24199671100E-01  0.32038099388E-01  0.51100000000E-03 0.  1.
         11    1    4    4    0    0  0.48853600643E-01 -0.41090271619E-01  0.75461254129E-01  0.98842029083E-01  0.51100000000E-03 0. -1.
</event>
<event>
 8    1  0.1143506E+005  0.1043930E+01  0.7957747E-01            NaN
         13   -1    0    0    0    0  0.00000000000E+00  0.00000000000E+00  0.74505805969E-08  0.10566000000E+00  0.10566000000E+00 0. -1.
     999900   -1    0    0    0    0 -0.00000000000E+00 -0.00000000000E+00 -0.74505805969E-08  0.93827000000E+00  0.93827000000E+00 0. -1.
     999902    2    1    2    0    0 -0.18438301836E-03 -0.12638079863E-01 -0.20063292261E-01  0.10202173292E+01  0.10199417180E+01 0.  0.
     999903    2    3    3    0    0  0.10807790039E+00 -0.69425075547E-01 -0.22686408782E-01  0.13176228497E+00  0.18599809953E-01 0.  0.
         14    1    1    2    0    0  0.18438301836E-03  0.12638079863E-01  0.20063292261E-01  0.23712670792E-01  0.00000000000E+00 0. -1.
     999901    1    3    3    0    0 -0.10826228341E+00  0.56786995684E-01  0.26231165213E-02  0.88845504424E+00  0.88000000000E+00 0. -1.
        -11    1    4    4    0    0  0.92624179990E-01 -0.61599641210E-01 -0.13235756227E-01  0.11202321581E+00  0.51100000000E-03 0.  1.
         11    1    4    4    0    0  0.15453720400E-01 -0.78254343369E-02 -0.94506525552E-02  0.19739069164E-01  0.51100000000E-03 0. -1.
</event>
<event>
 7    1  0.1143506E+005  0.1043930E+01  0.7957747E-01            NaN
         13   -1    0    0    0    0  0.00000000000E+00  0.00000000000E+00  0.74505805969E-08  0.10566000000E+00  0.10566000000E+00 0.  1.
     999900   -1    0    0    0    0 -0.00000000000E+00 -0.00000000000E+00 -0.74505805969E-08  0.93827000000E+00  0.93827000000E+00 0.  1.
     999903    2    1    2    0    0 -0.93673204260E-02 -0.71452140887E-01  0.46742881827E-02  0.74407082835E-01  0.17927907761E-01 0.  0.
         14    1    1    2    0    0 -0.33474946992E-01 -0.21849999353E-01 -0.70571384738E-01  0.81106811623E-01  0.00000000000E+00 0. -1.
     999901    1    1    2    0    0  0.42842267418E-01  0.93302140241E-01  0.65897096555E-01  0.88841610554E+00  0.88000000000E+00 0.  1.
        -11    1    3    3    0    0 -0.36715608946E-02 -0.26380559906E-01 -0.69084589334E-02  0.27520941593E-01  0.51100000000E-03 0.  1.
         11    1    3    3    0    0 -0.56957595313E-02 -0.45071580982E-01  0.11582747116E-01  0.46886141242E-01  0.51100000000E-03 0. -1.
</event>
<event>
 8    1  0.1143506E+005  0.1043930E+01  0.7957747E-01            NaN
         13   -1    0    0    0    0  0.00000000000E+00  0.00000000000E+00  0.74505805969E-08  0.10566000000E+00  0.10566000000E+00 0. -1.
     999900   -1    0    0    0    0 -0.00000000000E+00 -0.00000000000E+00 -0.74505805969E-08  0.93827000000E+00  0.93827000000E+00 0. -1.
     999902    2    1    2    0    0 -0.94281732378E-02  0.10579210301E-01  0.18431160673E-01  0.10206809608E+01  0.10204161435E+01 0.  0.
     999903    2    3    3    0    0  0.11914624936E+00  0.35418151392E-01 -0.30762612214E-01  0.12963192597E+00  0.20194646221E-01 0.  0.
         14    1    1    2    0    0  0.94281732378E-02 -0.10579210301E-01 -0.18431160673E-01  0.23249039226E-01  0.00000000000E+00 0.  1.
     999901    1    3    3    0    0 -0.12857442259E+00 -0.24838941091E-01  0.49193772887E-01  0.89104903481E+00  0.88000000000E+00 0.  1.
        -11    1    4    4    0    0  0.23486862851E-01  0.10232410674E-01  0.12658382111E-02  0.25655378036E-01  0.51100000000E-03 0. -1.
         11    1    4    4    0    0  0.95659386504E-01  0.25185740719E-01 -0.32028450425E-01  0.10397654793E+00  0.51100000000E-03 0.  1.
</event>
<event>
 8    1  0.1143506E+005  0.1043930E+01  0.7957747E-01            NaN
         13   -1    0    0    0    0  0.00000000000E+00  0.00000000000E+00  0.74505805969E-08  0.10566000000E+00  0.10566000000E+00 0.  1.
     999900   -1    0    0    0    0 -0.00000000000E+00 -0.00000000000E+00 -0.74505805969E-08  0.93827000000E+00  0.93827000000E+00 0.  1.
     999902    2    1    2    0    0 -0.73445126590E-02  0.11524064838E-01 -0.18013195727E-01  0.10213197997E+01  0.10210694943E+01 0.  0.
     999903    2    3    3    0    0 -0.10074301974E-01 -0.29937744129E-01  0.12327173782E+00  0.12908218237E+00  0.21645516324E-01 0.  0.
         14    1    1    2    0    0  0.73445126590E-02 -0.11524064838E-01  0.18013195727E-01  0.22610200285E-01  0.00000000000E+00 0.  1.
     999901    1    3    3    0    0  0.27297893150E-02  0.41461808968E-01 -0.14128493355E+00  0.89223761734E+00  0.88000000000E+00 0.  1.
        -11    1    4    4    0    0  0.61994858287E-03  0.32876208339E-02  0.10914789764E-01  0.11427446941E-01  0.51100000000E-03 0.  1.
         11    1    4    4    0    0 -0.10694250557E-01 -0.33225364963E-01  0.11235694806E+00  0.11765473543E+00  0.51100000000E-03 0. -1.
</event>
<event>
 8    1  0.1143506E+005  0.1043930E+01  0.7957747E-01            NaN
         13   -1    0    0    0    0  0.00000000000E+00  0.00000000000E+00  0.74505805969E-08  0.10566000000E+00  0.10566000000E+00 0.  1.
     999900   -1    0    0    0    0 -0.00000000000E+00 -0.00000000000E+00 -0.74505805969E-08  0.93827000000E+00  0.93827000000E+00 0.  1.
     999902    2    1    2    0    0 -0.12787508436E-01 -0.11646478859E-01 -0.17211247079E-01  0.10195294289E+01  0.10192373956E+01 0.  0.
     999903    2    3    3    0    0  0.11812266395E+00  0.41384106961E-01  0.14902643864E-01  0.12768806510E+00  0.20409437265E-01 0.  0.
         14    1    1    2    0    0  0.12787508436E-01  0.11646478859E-01  0.17211247079E-01  0.24400571055E-01  0.00000000000E+00 0.  1.
     999901    1    3    3    0    0 -0.13091017238E+00 -0.53030585820E-01 -0.32113890943E-01  0.89184136384E+00  0.88000000000E+00 0.  1.
        -11    1    4    4    0    0  0.27914359156E-01  0.65703083801E-02 -0.45951258110E-02  0.29047490451E-01  0.51100000000E-03 0. -1.
         11    1    4    4    0    0  0.90208304790E-01  0.34813798580E-01  0.19497769675E-01  0.98640574653E-01  0.51100000000E-03 0.  1.
</event>
<event>
 8    1  0.1143506E+005  0.1043930E+01  0.7957747E-01            NaN
         13   -1    0    0    0    0  0.00000000000E+00  0.00000000000E+00  0.74505805969E-08  0.10566000000E+00  0.10566000000E+00 0.  1.
     999900   -1    0    0    0    0 -0.00000000000E+00 -0.00000000000E+00 -0.74505805969E-08  0.93827000000E+00  0.93827000000E+00 0. -1.
     999902    2    1    2    0    0 -0.16887676525E-01 -0.78651576270E-02 -0.13907417625E-01  0.10206819767E+01  0.10204171828E+01 0.  0.
     999903    2    3    3    0    0  0.45932937520E-01 -0.73310867797E-01  0.94171639751E-01  0.12944090202E+00  0.20058197739E-01 0.  0.
         14    1    1    2    0    0  0.16887676525E-01  0.78651576270E-02  0.13907417625E-01  0.23248023312E-01  0.00000000000E+00 0. -1.
     999901    1    3    3    0    0 -0.62820614046E-01  0.65445710170E-01 -0.10807905738E+00  0.89124107467E+00  0.88000000000E+00 0. -1.
        -11    1    4    4    0    0  0.38824847394E-01 -0.60394856906E-01  0.87672909417E-01  0.11332125874E+00  0.51100000000E-03 0.  1.
         11    1    4    4    0    0  0.71080901260E-02 -0.12916010891E-01  0.64987303340E-02  0.16119643282E-01  0.51100000000E-03 0. -1.
</event>
<event>
 8    1  0.1143506E+005  0.1043930E+01  0.7957747E-01            NaN
         13   -1    0    0    0    0  0.00000000000E+00  0.00000000000E+00  0.74505805969E-08  0.10566000000E+00  0.10566000000E+00 0. -1.
     999900   -1    0    0    0    0 -0.00000000000E+00 -0.00000000000E+00 -0.74505805969E-08  0.93827000000E+00  0.93827000000E+00 0. -1.
     999902    2    1    2    0    0 -0.81265570924E-02 -0.96772985147E-02 -0.19940779400E-01  0.10203222530E+01  0.10200491038E+01 0.  0.
     999903    2    3    3    0    0 -0.72218129232E-01 -0.56445494716E-02 -0.10995174965E+00  0.13340288378E+00  0.21438820434E-01 0.  0.
         14    1    1    2    0    0  0.81265570924E-02  0.96772985147E-02  0.19940779400E-01  0.23607747030E-01  0.00000000000E+00 0.  1.
     999901    1    3    3    0    0  0.64091572140E-01 -0.40327490431E-02  0.90010970245E-01  0.88691936919E+00  0.88000000000E+00 0.  1.
        -11    1    4    4    0    0 -0.52537553123E-01  0.37586459931E-02 -0.66991166763E-01  0.85219712820E-01  0.51100000000E-03 0.  1.
         11    1    4    4    0    0 -0.19680576109E-01 -0.94031954647E-02 -0.42960582883E-01  0.48183170958E-01  0.51100000000E-03 0. -1.
</event>
<event>
 8    1  0.1143506E+005  0.1043930E+01  0.7957747E-01            NaN
         13   -1    0    0    0    0  0.00000000000E+00  0.00000000000E+00  0.74505805969E-08  0.10566000000E+00  0.10566000000E+00 0.  1.
     999900   -1    0    0    0    0 -0.00000000000E+00 -0.00000000000E+00 -0.74505805969E-08  0.93827000000E+00  0.93827000000E+00 0.  1.
     999902    2    1    2    0    0 -0.15054938853E-01  0.13333099750E-01 -0.92600732914E-02  0.10217901786E+01  0.10215502912E+01 0.  0.
     999903    2    3    3    0    0  0.53168931413E-01  0.11998611302E+00 -0.35641136981E-02  0.13271098887E+00  0.19388168407E-01 0.  0.
         14    1    1    2    0    0  0.15054938853E-01 -0.13333099750E-01  0.92600732914E-02  0.22139821367E-01  0.00000000000E+00 0.  1.
     999901    1    3    3    0    0 -0.68223870266E-01 -0.10665301327E+00 -0.56959595933E-02  0.88907918976E+00  0.88000000000E+00 0. -1.
        -11    1    4    4    0    0  0.40466342296E-01  0.67941807630E-01 -0.14472734580E-02  0.79094688850E-01  0.51100000000E-03 0. -1.
         11    1    4    4    0    0  0.12702589118E-01  0.52044305393E-01 -0.21168402401E-02  0.53616300019E-01  0.51100000000E-03 0.  1.
</event>
<event>
 8    1  0.1143506E+005  0.1043930E+01  0.7957747E-01            NaN
         13   -1    0    0    0    0  0.00000000000E+00  0.00000000000E+00  0.74505805969E-08  0.10566000000E+00  0.10566000000E+00 0.  1.
     999900   -1    0    0    0    0 -0.00000000000E+00 -0.00000000000E+00 -0.74505805969E-08  0.93827000000E+00  0.93827000000E+00 0. -1.
     999902    2    1    2    0    0 -0.14097211884E-01  0.98871960228E-02 -0.15620025248E-01  0.10206819201E+01  0.10204171250E+01 0.  0.
     999903    2    3    3    0    0 -0.25045329389E-01  0.10770904365E-01  0.12500205418E+00  0.12944950857E+00  0.19707379731E-01 0.  0.
         14    1    1    2    0    0  0.14097211884E-01 -0.98871960228E-02  0.15620025248E-01  0.23248079853E-01  0.00000000000E+00 0.  1.
     999901    1    3    3    0    0  0.10948117506E-01 -0.88370834196E-03 -0.14062207943E+00  0.89123241157E+00  0.88000000000E+00 0. -1.
        -11    1    4    4    0    0 -0.14076427336E-01  0.15483258222E-02  0.27880440237E-01  0.31274961042E-01  0.51100000000E-03 0.  1.
         11    1    4    4    0    0 -0.10968902054E-01  0.92225785426E-02  0.97121613942E-01  0.98174547531E-01  0.51100000000E-03 0. -1.
</event>
<event>
 8    1  0.1143506E+005  0.1043930E+01  0.7957747E-01            NaN
         13   -1    0    0    0    0  0.00000000000E+00  0.00000000000E+00  0.74505805969E-08  0.10566000000E+00  0.10566000000E+00 0. -1.
     999900   -1    0    0    0    0 -0.00000000000E+00 -0.00000000000E+00 -0.74505805969E-08  0.93827000000E+00  0.93827000000E+00 0. -1.
     999902    2    1    2    0    0  0.16106312243E-01  0.11439398958E-01  0.12840509636E-01  0.10203683398E+01  0.10200962685E+01 0.  0.
     999903    2    3    3    0    0 -0.74302556634E-01  0.34557443542E-02 -0.10253228163E+00  0.12820894640E+00  0.19795278958E-01 0.  0.
         14    1    1    2    0    0 -0.16106312243E-01 -0.11439398958E-01 -0.12840509636E-01  0.23561660177E-01  0.00000000000E+00 0.  1.
     999901    1    3    3    0    0  0.90408868877E-01  0.79836546040E-02  0.11537279127E+00  0.89215939343E+00  0.88000000000E+00 0.  1.
        -11    1    4    4    0    0 -0.47064296479E-02 -0.41358197542E-02 -0.13945851806E-01  0.15297169303E-01  0.51100000000E-03 0.  1.
         11    1    4    4    0    0 -0.69596126986E-01  0.75915641084E-02 -0.88586429822E-01  0.11291177709E+00  0.51100000000E-03 0. -1.
</event>
<event>
 8    1  0.1143506E+005  0.1043930E+01  0.7957747E-01            NaN
         13   -1    0    0    0    0  0.00000000000E+00  0.00000000000E+00  0.74505805969E-08  0.10566000000E+00  0.10566000000E+00 0.  1.
     999900   -1    0    0    0    0 -0.00000000000E+00 -0.00000000000E+00 -0.74505805969E-08  0.93827000000E+00  0.93827000000E+00 0. -1.
     999902    2    1    2    0    0 -0.96766303107E-02 -0.18059485776E-01  0.11457905551E-01  0.10204552093E+01  0.10201851637E+01 0.  0.
     999903    2    3    3    0    0 -0.11876936615E-01  0.12030598997E+00  0.41440423548E-01  0.12913663680E+00  0.18557193028E-01 0.  0.
         14    1    1    2    0    0  0.96766303107E-02  0.18059485776E-01 -0.11457905551E-01  0.23474790740E-01  0.00000000000E+00 0. -1.
     999901    1    3    3    0    0  0.22003063043E-02 -0.13836547575E+00 -0.29982517997E-01  0.89131857246E+00  0.88000000000E+00 0.  1.
        -11    1    4    4    0    0 -0.11986452490E-01  0.94217869512E-01  0.39834725702E-01  0.10299392444E+00  0.51100000000E-03 0.  1.
         11    1    4    4    0    0  0.10951587548E-03  0.26088120462E-01  0.16056978462E-02  0.26142712360E-01  0.51100000000E-03 0. -1.
</event>
<event>
 8    1  0.1143506E+005  0.1043930E+01  0.7957747E-01            NaN
         13   -1    0    0    0    0  0.00000000000E+00  0.00000000000E+00  0.74505805969E-08  0.10566000000E+00  0.10566000000E+00 0. -1.
     999900   -1    0    0    0    0 -0.00000000000E+00 -0.00000000000E+00 -0.74505805969E-08  0.93827000000E+00  0.93827000000E+00 0. -1.
     999902    2    1    2    0    0  0.58145379966E-02  0.15310459024E-02 -0.24044168141E-01  0.10191454287E+01  0.10188440164E+01 0.  0.
     999903    2    3    3    0    0 -0.10766232161E+00 -0.30745522652E-01  0.57509306401E-01  0.12753467070E+00  0.20525819123E-01 0.  0.
         14    1    1    2    0    0 -0.58145379966E-02 -0.15310459024E-02  0.24044168141E-01  0.24784571315E-01  0.00000000000E+00 0. -1.
     999901    1    3    3    0    0  0.11347685961E+00  0.32276568555E-01 -0.81553474541E-01  0.89161075798E+00  0.88000000000E+00 0. -1.
        -11    1    4    4    0    0 -0.69125145111E-01 -0.25821358064E-01  0.28749944699E-01  0.79195004009E-01  0.51100000000E-03 0.  1.
         11    1    4    4    0    0 -0.38537176499E-01 -0.49241645880E-02  0.28759361701E-01  0.48339666692E-01  0.51100000000E-03 0. -1.
</event>
<event>
 8    1  0.1143506E+005  0.1043930E+01  0.7957747E-01            NaN
         13   -1    0    0    0    0  0.00000000000E+00  0.00000000000E+00  0.74505805969E-08  0.10566000000E+00  0.10566000000E+00 0.  1.
     999900   -1    0    0    0    0 -0.00000000000E+00 -0.00000000000E+00 -0.74505805969E-08  0.93827000000E+00  0.93827000000E+00 0.  1.
     999902    2    1    2    0    0 -0.23007272414E-01  0.29892184317E-02  0.46841861055E-02  0.10202612102E+01  0.10199866300E+01 0.  0.
     999903    2    3    3    0    0 -0.35209226007E-01 -0.12365210198E+00 -0.14016265548E-01  0.13091503543E+00  0.20316468199E-01 0.  0.
         14    1    1    2    0    0  0.23007272414E-01 -0.29892184317E-02 -0.46841861055E-02  0.23668789793E-01  0.00000000000E+00 0. -1.
     999901    1    3    3    0    0  0.12201953593E-01  0.12664132041E+00  0.18700451654E-01  0.88934617478E+00  0.88000000000E+00 0. -1.
        -11    1    4    4    0    0 -0.83736292664E-02 -0.43950971677E-01  0.39488549129E-02  0.44918372127E-01  0.51100000000E-03 0. -1.
         11    1    4    4    0    0 -0.26835596741E-01 -0.79701130304E-01 -0.17965120461E-01  0.85996663298E-01  0.51100000000E-03 0.  1.
</event>
<event>
 8    1  0.1143506E+005  0.1043930E+01  0.7957747E-01            NaN
         13   -1    0    0    0    0  0.00000000000E+00  0.00000000000E+00  0.74505805969E-08  0.10566000000E+00  0.10566000000E+00 0.  1.
     999900   -1    0    0    0    0 -0.00000000000E+00 -0.00000000000E+00 -0.74505805969E-08  0.93827000000E+00  0.93827000000E+00 0. -1.
     999902    2    1    2    0    0  0.27818405325E-02 -0.16903600129E-01  0.16383334049E-01  0.10202259082E+01  0.10199504987E+01 0.  0.
     999903    2    3    3    0    0 -0.12003877360E-01  0.12606475100E+00 -0.50480201720E-02  0.12830782348E+00  0.20024997940E-01 0.  0.
         14    1    1    2    0    0 -0.27818405325E-02  0.16903600129E-01 -0.16383334049E-01  0.23704091812E-01  0.00000000000E+00 0. -1.
     999901    1    3    3    0    0  0.14785717892E-01 -0.14296835113E+00  0.21431354221E-01  0.89191808470E+00  0.88000000000E+00 0.  1.
        -11    1    4    4    0    0  0.45971084592E-02  0.28901682673E-01  0.29152934765E-02  0.29414294562E-01  0.51100000000E-03 0.  1.
         11    1    4    4    0    0 -0.16600985819E-01  0.97163068330E-01 -0.79633136485E-02  0.98893528922E-01  0.51100000000E-03 0. -1.
</event>
<event>
 8    1  0.1143506E+005  0.1043930E+01  0.7957747E-01            NaN
         13   -1    0    0    0    0  0.00000000000E+00  0.00000000000E+00  0.74505805969E-08  0.10566000000E+00  0.10566000000E+00 0. -1.
     999900   -1    0    0    0    0 -0.00000000000E+00 -0.00000000000E+00 -0.74505805969E-08  0.93827000000E+00  0.93827000000E+00 0. -1.
     999902    2    1    2    0    0  0.14665419416E-01 -0.33478936840E-02 -0.18488097582E-01  0.10200953053E+01  0.10198168165E+01 0.  0.
     999903    2    3    3    0    0 -0.86484515876E-01 -0.94288469790E-01 -0.27327315184E-02  0.12950576498E+00  0.19859212448E-01 0.  0.
         14    1    1    2    0    0 -0.14665419416E-01  0.33478936840E-02  0.18488097582E-01  0.23834694689E-01  0.00000000000E+00 0. -1.
     999901    1    3    3    0    0  0.10114993529E+00  0.90940576106E-01 -0.15755366063E-01  0.89058954033E+00  0.88000000000E+00 0.  1.
        -11    1    4    4    0    0 -0.59862932218E-01 -0.56543386617E-01  0.57280194427E-02  0.82545724005E-01  0.51100000000E-03 0.  1.
         11    1    4    4    0    0 -0.26621583657E-01 -0.37745083174E-01 -0.84607509611E-02  0.46960040971E-01  0.51100000000E-03 0. -1.
</event>
<event>
 8    1  0.1143506E+005  0.1043930E+01  0.7957747E-01            NaN
         13   -1    0    0    0    0  0.00000000000E+00  0.00000000000E+00  0.74505805969E-08  0.10566000000E+00  0.10566000000E+00 0.  1.
     999900   -1    0    0    0    0 -0.00000000000E+00 -0.00000000000E+00 -0.74505805969E-08  0.93827000000E+00  0.93827000000E+00 0.  1.
     999902    2    1    2    0    0  0.16576886494E-01  0.12018714991E-01  0.12197860729E-01  0.10200966099E+01  0.10198181520E+01 0.  0.
     999903    2    3    3    0    0  0.72894233756E-01 -0.69718066896E-02 -0.10584004953E+00  0.13022851197E+00  0.19878979870E-01 0.  0.
         14    1    1    2    0    0 -0.16576886494E-01 -0.12018714991E-01 -0.12197860729E-01  0.23833390070E-01  0.00000000000E+00 0. -1.
     999901    1    3    3    0    0 -0.56317347262E-01  0.18990521680E-01  0.11803791026E+00  0.88986809796E+00  0.88000000000E+00 0. -1.
        -11    1    4    4    0    0  0.53079767267E-01  0.37333724871E-02 -0.70711042320E-01  0.88496962605E-01  0.51100000000E-03 0.  1.
         11    1    4    4    0    0  0.19814466489E-01 -0.10705179177E-01 -0.35129007211E-01  0.41731549361E-01  0.51100000000E-03 0. -1.
</event>
<event>
 8    1  0.1143506E+005  0.1043930E+01  0.7957747E-01            NaN
         13   -1    0    0    0    0  0.00000000000E+00  0.00000000000E+00  0.74505805969E-08  0.10566000000E+00  0.10566000000E+00 0.  1.
     999900   -1    0    0    0    0 -0.00000000000E+00 -0.00000000000E+00 -0.74505805969E-08  0.93827000000E+00  0.93827000000E+00 0.  1.
     999902    2    1    2    0    0 -0.20093845959E-01 -0.13267475670E-02 -0.10158463912E-01  0.10213752379E+01  0.10211261721E+01 0.  0.
     999903    2    3    3    0    0 -0.12059986009E+00  0.30973687449E-01  0.43797641711E-01  0.13342476725E+00  0.19499731541E-01 0.  0.
         14    1    1    2    0    0  0.20093845959E-01  0.13267475670E-02  0.10158463912E-01  0.22554762104E-01  0.00000000000E+00 0.  1.
     999901    1    3    3    0    0  0.10050601413E+00 -0.32300435016E-01 -0.53956105624E-01  0.88795047064E+00  0.88000000000E+00 0.  1.
        -11    1    4    4    0    0 -0.22673460238E-01  0.97004107816E-02  0.16099239453E-01  0.29455566545E-01  0.51100000000E-03 0.  1.
         11    1    4    4    0    0 -0.97926399849E-01  0.21273276667E-01  0.27698402258E-01  0.10396920071E+00  0.51100000000E-03 0. -1.
</event>
<event>
 8    1  0.1143506E+005  0.1043930E+01  0.7957747E-01            NaN
         13   -1    0    0    0    0  0.00000000000E+00  0.00000000000E+00  0.74505805969E-08  0.10566000000E+00  0.10566000000E+00 0.  1.
     999900   -1    0    0    0    0 -0.00000000000E+00 -0.00000000000E+00 -0.74505805969E-08  0.93827000000E+00  0.93827000000E+00 0. -1.
     999902    2    1    2    0    0  0.40252322883E-02  0.12460663590E-01  0.19505910053E-01  0.10204363592E+01  0.10201658747E+01 0.  0.
     999903    2    3    3    0    0 -0.73443242414E-01 -0.72140546266E-01  0.78225979912E-01  0.13105074209E+00  0.21373460107E-01 0.  0.
         14    1    1    2    0    0 -0.40252322883E-02 -0.12460663590E-01 -0.19505910053E-01  0.23493640822E-01  0.00000000000E+00 0. -1.
     999901    1    3    3    0    0  0.77468474702E-01  0.84601209856E-01 -0.58720069859E-01  0.88938561709E+00  0.88000000000E+00 0. -1.
        -11    1    4    4    0    0 -0.57443382471E-01 -0.43405373724E-01  0.49440540018E-01  0.87340693701E-01  0.51100000000E-03 0.  1.
         11    1    4    4    0    0 -0.15999859944E-01 -0.28735172542E-01  0.28785439893E-01  0.43710048388E-01  0.51100000000E-03 0. -1.
</event>
<event>
 8    1  0.1143506E+005  0.1043930E+01  0.7957747E-01            NaN
         13   -1    0    0    0    0  0.00000000000E+00  0.00000000000E+00  0.74505805969E-08  0.10566000000E+00  0.10566000000E+00 0. -1.
     999900   -1    0    0    0    0 -0.00000000000E+00 -0.00000000000E+00 -0.74505805969E-08  0.93827000000E+00  0.93827000000E+00 0. -1.
     999902    2    1    2    0    0  0.75828158334E-02 -0.22629139362E-01  0.45613397236E-02  0.10196322045E+01  0.10193426557E+01 0.  0.
     999903    2    3    3    0    0  0.10937520533E+00 -0.63297773736E-01 -0.32353977362E-01  0.13206340776E+00  0.20601459090E-01 0.  0.
         14    1    1    2    0    0 -0.75828158334E-02  0.22629139362E-01 -0.45613397236E-02  0.24297795462E-01  0.00000000000E+00 0.  1.
     999901    1    3    3    0    0 -0.10179238950E+00  0.40668634374E-01  0.36915317086E-01  0.88756879678E+00  0.88000000000E+00 0. -1.
        -11    1    4    4    0    0  0.64638695719E-01 -0.48744007677E-01 -0.19024287558E-01  0.83164438955E-01  0.51100000000E-03 0.  1.
         11    1    4    4    0    0  0.44736509612E-01 -0.14553766058E-01 -0.13329689804E-01  0.48898968803E-01  0.51100000000E-03 0. -1.
</event>
<event>
 8    1  0.1143506E+005  0.1043930E+01  0.7957747E-01            NaN
         13   -1    0    0    0    0  0.00000000000E+00  0.00000000000E+00  0.74505805969E-08  0.10566000000E+00  0.10566000000E+00 0.  1.
     999900   -1    0    0    0    0 -0.00000000000E+00 -0.00000000000E+00 -0.74505805969E-08  0.93827000000E+00  0.93827000000E+00 0. -1.
     999902    2    1    2    0    0  0.56024749308E-02 -0.76550617587E-02 -0.21437532002E-01  0.10204874004E+01  0.10202181036E+01 0.  0.
     999903    2    3    3    0    0 -0.11847593920E+00 -0.49641205400E-01 -0.11796952660E-01  0.13073955420E+00  0.21280636701E-01 0.  0.
         14    1    1    2    0    0 -0.56024749308E-02  0.76550617587E-02  0.21437532002E-01  0.23442599562E-01  0.00000000000E+00 0.  1.
     999901    1    3    3    0    0  0.12407841413E+00  0.41986143641E-01 -0.96405793424E-02  0.88974784624E+00  0.88000000000E+00 0. -1.
        -11    1    4    4    0    0 -0.81293733972E-02 -0.68466380932E-02  0.39312358898E-02  0.11343672317E-01  0.51100000000E-03 0.  1.
         11    1    4    4    0    0 -0.11034656580E+00 -0.42794567307E-01 -0.15728188550E-01  0.11939588189E+00  0.51100000000E-03 0. -1.
</event>
<event>
 8    1  0.1143506E+005  0.1043930E+01  0.7957747E-01            NaN
         13   -1    0    0    0    0  0.00000000000E+00  0.00000000000E+00  0.74505805969E-08  0.10566000000E+00  0.10566000000E+00 0. -1.
     999900   -1    0    0    0    0 -0.00000000000E+00 -0.00000000000E+00 -0.74505805969E-08  0.93827000000E+00  0.93827000000E+00 0.  1.
     999902    2    1    2    0    0  0.17311390983E-01  0.88769074419E-02 -0.13965108173E-01  0.10199819732E+01  0.10197007981E+01 0.  0.
     999903    2    3    3    0    0 -0.26966443035E-01  0.12452997123E+00 -0.24654518834E-01  0.13124668003E+00  0.19568927787E-01 0.  0.
         14    1    1    2    0    0 -0.17311390983E-01 -0.88769074419E-02  0.13965108173E-01  0.23948026846E-01  0.00000000000E+00 0. -1.
     999901    1    3    3    0    0  0.44277834019E-01 -0.11565306379E+00  0.10689410661E-01  0.88873529313E+00  0.88000000000E+00 0.  1.
        -11    1    4    4    0    0 -0.23590212754E-02  0.22148606139E-01  0.27283284686E-02  0.22446171890E-01  0.51100000000E-03 0.  1.
         11    1    4    4    0    0 -0.24607421760E-01  0.10238136509E+00 -0.27382847303E-01  0.10880050814E+00  0.51100000000E-03 0. -1.
</event>
<event>
 8    1  0.1143506E+005  0.1043930E+01  0.7957747E-01            NaN
         13   -1    0    0    0    0  0.00000000000E+00  0.00000000000E+00  0.74505805969E-08  0.10566000000E+00  0.10566000000E+00 0. -1.
     999900   -1    0    0    0    0 -0.00000000000E+00 -0.00000000000E+00 -0.74505805969E-08  0.93827000000E+00  0.93827000000E+00 0.  1.
     999902    2    1    2    0    0 -0.10891095203E-01  0.16003308409E-01  0.14350734904E-01  0.10198329996E+01  0.10195482734E+01 0.  0.
     999903    2    3    3    0    0 -0.39888978325E-01 -0.11168239373E+00  0.48004349943E-01  0.12950885553E+00  0.20100706116E-01 0.  0.
         14    1    1    2    0    0  0.10891095203E-01 -0.16003308409E-01 -0.14350734904E-01  0.24097000374E-01  0.00000000000E+00 0. -1.
     999901    1    3    3    0    0  0.28997883122E-01  0.12768570214E+00 -0.33653615040E-01  0.89032414410E+00  0.88000000000E+00 0.  1.
        -11    1    4    4    0    0 -0.20463972369E-01 -0.42385694853E-01  0.28172437417E-01  0.54856801258E-01  0.51100000000E-03 0.  1.
         11    1    4    4    0    0 -0.19425005955E-01 -0.69296698876E-01  0.19831912526E-01  0.74652054271E-01  0.51100000000E-03 0. -1.
</event>
<event>
 8    1  0.1143506E+005  0.1043930E+01  0.7957747E-01            NaN
         13   -1    0    0    0    0  0.00000000000E+00  0.00000000000E+00  0.74505805969E-08  0.10566000000E+00  0.10566000000E+00 0.  1.
     999900   -1    0    0    0    0 -0.00000000000E+00 -0.00000000000E+00 -0.74505805969E-08  0.93827000000E+00  0.93827000000E+00 0.  1.
     999902    2    1    2    0    0  0.59619237637E-03 -0.22629723131E-01  0.45258410679E-02  0.10208444406E+01  0.10205833768E+01 0.  0.
     999903    2    3    3    0    0  0.96704695639E-01  0.46704979929E-01  0.71994170942E-01  0.13034114418E+00  0.16507571202E-01 0.  0.
         14    1    1    2    0    0 -0.59619237637E-03  0.22629723131E-01 -0.45258410679E-02  0.23085559376E-01  0.00000000000E+00 0. -1.
     999901    1    3    3    0    0 -0.96108503263E-01 -0.69334703059E-01 -0.67468329874E-01  0.89050329645E+00  0.88000000000E+00 0.  1.
        -11    1    4    4    0    0  0.46359111851E-01  0.25330169472E-01  0.44741257515E-01  0.69230238928E-01  0.51100000000E-03 0. -1.
         11    1    4    4    0    0  0.50345583788E-01  0.21374810457E-01  0.27252913427E-01  0.61110905248E-01  0.51100000000E-03 0.  1.
</event>
<event>
 8    1  0.1143506E+005  0.1043930E+01  0.7957747E-01            NaN
         13   -1    0    0    0    0  0.00000000000E+00  0.00000000000E+00  0.74505805969E-08  0.10566000000E+00  0.10566000000E+00 0.  1.
     999900   -1    0    0    0    0 -0.00000000000E+00 -0.00000000000E+00 -0.74505805969E-08  0.93827000000E+00  0.93827000000E+00 0.  1.
     999902    2    1    2    0    0  0.87317537608E-02 -0.53148079985E-02 -0.21055901938E-01  0.10205239812E+01  0.10202555340E+01 0.  0.
     999903    2    3    3    0    0  0.53340912416E-01  0.11130320608E+00 -0.40370557784E-01  0.13150047526E+00  0.20710780710E-01 0.  0.
         14    1    1    2    0    0 -0.87317537608E-02  0.53148079985E-02  0.21055901938E-01  0.23406018761E-01  0.00000000000E+00 0.  1.
     999901    1    3    3    0    0 -0.44609158655E-01 -0.11661801408E+00  0.19314655845E-01  0.88902350597E+00  0.88000000000E+00 0. -1.
        -11    1    4    4    0    0  0.23077404116E-01  0.51710369155E-01 -0.29270768746E-01  0.63746120532E-01  0.51100000000E-03 0. -1.
         11    1    4    4    0    0  0.30263508300E-01  0.59592836927E-01 -0.11099789038E-01  0.67754354733E-01  0.51100000000E-03 0.  1.
</event>
<event>
 8    1  0.1143506E+005  0.1043930E+01  0.7957747E-01            NaN
         13   -1    0    0    0    0  0.00000000000E+00  0.00000000000E+00  0.74505805969E-08  0.10566000000E+00  0.10566000000E+00 0.  1.
     999900   -1    0    0    0    0 -0.00000000000E+00 -0.00000000000E+00 -0.74505805969E-08  0.93827000000E+00  0.93827000000E+00 0. -1.
     999902    2    1    2    0    0  0.22803028194E-01  0.55082793234E-03  0.66560725584E-02  0.10201690066E+01  0.10198922576E+01 0.  0.
     999903    2    3    3    0    0  0.69032070234E-01 -0.71829524270E-01  0.85026491660E-01  0.13252157528E+00  0.20188024984E-01 0.  0.
         14    1    1    2    0    0 -0.22803028194E-01 -0.55082793234E-03 -0.66560725584E-02  0.23760993416E-01  0.00000000000E+00 0.  1.
     999901    1    3    3    0    0 -0.46229042041E-01  0.72380352202E-01 -0.78370419101E-01  0.88764743131E+00  0.88000000000E+00 0. -1.
        -11    1    4    4    0    0  0.45053161676E-01 -0.59219935170E-01  0.59194226131E-01  0.95084202825E-01  0.51100000000E-03 0. -1.
         11    1    4    4    0    0  0.23978908558E-01 -0.12609589099E-01  0.25832265529E-01  0.37437372454E-01  0.51100000000E-03 0.  1.
</event>
<event>
 8    1  0.1143506E+005  0.1043930E+01  0.7957747E-01            NaN
         13   -1    0    0    0    0  0.00000000000E+00  0.00000000000E+00  0.74505805969E-08  0.10566000000E+00  0.10566000000E+00 0. -1.
     999900   -1    0    0    0    0 -0.00000000000E+00 -0.00000000000E+00 -0.74505805969E-08  0.93827000000E+00  0.93827000000E+00 0.  1.
     999902    2    1    2    0    0  0.19824730355E-01 -0.15495234800E-01  0.13232468279E-01  0.10155007817E+01  0.10151027619E+01 0.  0.
     999903    2    3    3    0    0  0.10889101240E+00  0.61027373367E-01  0.17371554939E-01  0.12769131782E+00  0.20535550722E-01 0.  0.
         14    1    1    2    0    0 -0.19824730355E-01  0.15495234800E-01 -0.13232468279E-01  0.28429218278E-01  0.00000000000E+00 0.  1.
     999901    1    3    3    0    0 -0.89066282045E-01 -0.76522608166E-01 -0.41390866601E-02  0.88780946390E+00  0.88000000000E+00 0. -1.
        -11    1    4    4    0    0  0.86106490522E-01  0.57153488393E-01  0.15395557458E-01  0.10448987155E+00  0.51100000000E-03 0.  1.
         11    1    4    4    0    0  0.22784521879E-01  0.38738849743E-02  0.19759974810E-02  0.23201446271E-01  0.51100000000E-03 0. -1.
</event>
<event>
 8    1  0.1143506E+005  0.1043930E+01  0.7957747E-01            NaN
         13   -1    0    0    0    0  0.00000000000E+00  0.00000000000E+00  0.74505805969E-08  0.10566000000E+00  0.10566000000E+00 0. -1.
     999900   -1    0    0    0    0 -0.00000000000E+00 -0.00000000000E+00 -0.74505805969E-08  0.93827000000E+00  0.93827000000E+00 0. -1.
     999902    2    1    2    0    0 -0.23535523634E-01  0.14264657030E-01 -0.10568176285E-01  0.10144497072E+01  0.10140212625E+01 0.  0.
     999903    2    3    3    0    0 -0.11197551352E+00  0.22318185368E-03  0.57820283449E-01  0.12726552326E+00  0.17741555514E-01 0.  0.
         14    1    1    2    0    0  0.23535523634E-01 -0.14264657030E-01  0.10568176285E-01  0.29480292789E-01  0.00000000000E+00 0.  1.
     999901    1    3    3    0    0  0.88439989891E-01  0.14041475176E-01 -0.68388459734E-01  0.88718418396E+00  0.88000000000E+00 0. -1.
        -11    1    4    4    0    0 -0.86481556528E-01  0.53887475100E-02  0.50261309104E-01  0.10017264364E+00  0.51100000000E-03 0. -1.
         11    1    4    4    0    0 -0.25493956997E-01 -0.51655656563E-02  0.75589743449E-02  0.27092879619E-01  0.51100000000E-03 0.  1.
</event>
<event>
 8    1  0.1143506E+005  0.1043930E+01  0.7957747E-01            NaN
         13   -1    0    0    0    0  0.00000000000E+00  0.00000000000E+00  0.74505805969E-08  0.10566000000E+00  0.10566000000E+00 0.  1.
     999900   -1    0    0    0    0 -0.00000000000E+00 -0.00000000000E+00 -0.74505805969E-08  0.93827000000E+00  0.93827000000E+00 0. -1.
     999902    2    1    2    0    0 -0.14362452916E-01  0.14510155099E-01 -0.11575078311E-01  0.10204607202E+01  0.10201908030E+01 0.  0.
     999903    2    3    3    0    0  0.10324294451E+00  0.50459751789E-01 -0.59084179861E-01  0.13064022275E+00  0.19251892111E-01 0.  0.
         14    1    1    2    0    0  0.14362452916E-01 -0.14510155099E-01  0.11575078311E-01  0.23469279765E-01  0.00000000000E+00 0.  1.
     999901    1    3    3    0    0 -0.11760539743E+00 -0.35949596691E-01  0.47509101550E-01  0.88982049748E+00  0.88000000000E+00 0.  1.
        -11    1    4    4    0    0  0.60565154609E-01  0.19511131588E-01 -0.28869522545E-01  0.69875121908E-01  0.51100000000E-03 0. -1.
         11    1    4    4    0    0  0.42677789900E-01  0.30948620202E-01 -0.30214657316E-01  0.60765100847E-01  0.51100000000E-03 0.  1.
</event>
<event>
 8    1  0.1143506E+005  0.1043930E+01  0.7957747E-01            NaN
         13   -1    0    0    0    0  0.00000000000E+00  0.00000000000E+00  0.74505805969E-08  0.10566000000E+00  0.10566000000E+00 0.  1.
     999900   -1    0    0    0    0 -0.00000000000E+00 -0.00000000000E+00 -0.74505805969E-08  0.93827000000E+00  0.93827000000E+00 0.  1.
     999902    2    1    2    0    0  0.91546644867E-03  0.81811660240E-02  0.22850718736E-01  0.10196416303E+01  0.10193523087E+01 0.  0.
     999903    2    3    3    0    0 -0.43265112509E-01 -0.11448086878E+00  0.39025340175E-01  0.12988912722E+00  0.19247569109E-01 0.  0.
         14    1    1    2    0    0 -0.91546644867E-03 -0.81811660240E-02 -0.22850718736E-01  0.24288369708E-01  0.00000000000E+00 0. -1.
     999901    1    3    3    0    0  0.44180578958E-01  0.12266203481E+00 -0.16174621439E-01  0.88975250307E+00  0.88000000000E+00 0.  1.
        -11    1    4    4    0    0 -0.27043423828E-02 -0.81159702120E-02  0.84093508877E-02  0.12006695780E-01  0.51100000000E-03 0. -1.
         11    1    4    4    0    0 -0.40560770127E-01 -0.10636489857E+00  0.30615989287E-01  0.11788243144E+00  0.51100000000E-03 0.  1.
</event>
<event>
 8    1  0.1143506E+005  0.1043930E+01  0.7957747E-01            NaN
         13   -1    0    0    0    0  0.00000000000E+00  0.00000000000E+00  0.74505805969E-08  0.10566000000E+00  0.10566000000E+00 0. -1.
     999900   -1    0    0    0    0 -0.00000000000E+00 -0.00000000000E+00 -0.74505805969E-08  0.93827000000E+00  0.93827000000E+00 0.  1.
     999902    2    1    2    0    0  0.21258151003E-01  0.12059156996E-01  0.80084761968E-02  0.10182109809E+01  0.10178861104E+01 0.  0.
     999903    2    3    3    0    0  0.11686474677E+00  0.21510374545E-01 -0.52052675403E-01  0.13094704691E+00  0.17820853704E-01 0.  0.
         14    1    1    2    0    0 -0.21258151003E-01 -0.12059156996E-01 -0.80084761968E-02  0.25719019081E-01  0.00000000000E+00 0. -1.
     999901    1    3    3    0    0 -0.95606595765E-01 -0.94512175484E-02  0.60061151600E-01  0.88726393401E+00  0.88000000000E+00 0. -1.
        -11    1    4    4    0    0  0.74834419036E-01  0.11671706996E-01 -0.23954534661E-01  0.79438654750E-01  0.51100000000E-03 0. -1.
         11    1    4    4    0    0  0.42030327732E-01  0.98386675490E-02 -0.28098140743E-01  0.51508392157E-01  0.51100000000E-03 0.  1.
</event>
<event>
 8    1  0.1143506E+005  0.1043930E+01  0.7957747E-01            NaN
         13   -1    0    0    0    0  0.00000000000E+00  0.00000000000E+00  0.74505805969E-08  0.10566000000E+00  0.10566000000E+00 0. -1.
     999900   -1    0    0    0    0 -0.00000000000E+00 -0.00000000000E+00 -0.74505805969E-08  0.93827000000E+00  0.93827000000E+00 0. -1.
     999902    2    1    2    0    0  0.13353964251E-01 -0.10347948602E-01  0.16500737039E-01  0.10203146930E+01  0.10200413668E+01 0.  0.
     999903    2    3    3    0    0  0.96468109191E-01 -0.86656817063E-01  0.21623303905E-01  0.13309586702E+00  0.20771194281E-01 0.  0.
         14    1    1    2    0    0 -0.13353964251E-01  0.10347948602E-01 -0.16500737039E-01  0.23615306992E-01  0.00000000000E+00 0.  1.
     999901    1    3    3    0    0 -0.83114144940E-01  0.76308868461E-01 -0.51225668663E-02  0.88721882599E+00  0.88000000000E+00 0. -1.
        -11    1    4    4    0    0  0.90736090020E-02 -0.36969906226E-02 -0.26762204887E-02  0.10169631119E-01  0.51100000000E-03 0. -1.
         11    1    4    4    0    0  0.87394500189E-01 -0.82959826441E-01  0.24299524394E-01  0.12292623590E+00  0.51100000000E-03 0.  1.
</event>
<event>
 8    1  0.1143506E+005  0.1043930E+01  0.7957747E-01            NaN
         13   -1    0    0    0    0  0.00000000000E+00  0.00000000000E+00  0.74505805969E-08  0.10566000000E+00  0.10566000000E+00 0. -1.
     999900   -1    0    0    0    0 -0.00000000000E+00 -0.00000000000E+00 -0.74505805969E-08  0.93827000000E+00  0.93827000000E+00 0.  1.
     999902    2    1    2    0    0  0.17509755601E-01 -0.44887641523E-02 -0.21604272662E-01  0.10157611317E+01  0.10153704701E+01 0.  0.
     999903    2    3    3    0    0  0.50059524886E-01  0.20178500188E-01 -0.11651153015E+00  0.12971635351E+00  0.18392058257E-01 0.  0.
         14    1    1    2    0    0 -0.17509755601E-01  0.44887641523E-02  0.21604272662E-01  0.28168868314E-01  0.00000000000E+00 0. -1.
     999901    1    3    3    0    0 -0.32549769284E-01 -0.24667264341E-01  0.94907257493E-01  0.88604477818E+00  0.88000000000E+00 0. -1.
        -11    1    4    4    0    0  0.23827828755E-01  0.11696255979E-01 -0.36849029266E-01  0.45416735967E-01  0.51100000000E-03 0.  1.
         11    1    4    4    0    0  0.26231696131E-01  0.84822442099E-02 -0.79662500889E-01  0.84299617541E-01  0.51100000000E-03 0. -1.
</event>
<event>
 8    1  0.1143506E+005  0.1043930E+01  0.7957747E-01            NaN
         13   -1    0    0    0    0  0.00000000000E+00  0.00000000000E+00  0.74505805969E-08  0.10566000000E+00  0.10566000000E+00 0. -1.
     999900   -1    0    0    0    0 -0.00000000000E+00 -0.00000000000E+00 -0.74505805969E-08  0.93827000000E+00  0.93827000000E+00 0.  1.
     999902    2    1    2    0    0 -0.75280419447E-02 -0.58402074628E-02  0.21843054472E-01  0.10200993796E+01  0.10198209872E+01 0.  0.
     999903    2    3    3    0    0  0.10332814957E+00  0.75201866820E-01  0.24207804466E-02  0.12923792141E+00  0.19093268060E-01 0.  0.
         14    1    1    2    0    0  0.75280419447E-02  0.58402074628E-02 -0.21843054472E-01  0.23830620374E-01  0.00000000000E+00 0.  1.
     999901    1    3    3    0    0 -0.11085619152E+00 -0.81042074283E-01  0.19422274026E-01  0.89086145821E+00  0.88000000000E+00 0.  1.
        -11    1    4    4    0    0  0.40188320779E-01  0.40956735459E-01  0.75267283688E-03  0.57388003484E-01  0.51100000000E-03 0.  1.
         11    1    4    4    0    0  0.63139828796E-01  0.34245131362E-01  0.16681076097E-02  0.71849917929E-01  0.51100000000E-03 0. -1.
</event>
<event>
 8    1  0.1143506E+005  0.1043930E+01  0.7957747E-01            NaN
         13   -1    0    0    0    0  0.00000000000E+00  0.00000000000E+00  0.74505805969E-08  0.10566000000E+00  0.10566000000E+00 0.  1.
     999900   -1    0    0    0    0 -0.00000000000E+00 -0.00000000000E+00 -0.74505805969E-08  0.93827000000E+00  0.93827000000E+00 0. -1.
     999902    2    1    2    0    0  0.23413119495E-01  0.51517772161E-02 -0.21003678318E-02  0.10198649524E+01  0.10195809897E+01 0.  0.
     999903    2    3    3    0    0  0.76726964578E-01 -0.10402177222E+00  0.12364941752E-01  0.13139971660E+00  0.20135479866E-01 0.  0.
         14    1    1    2    0    0 -0.23413119495E-01 -0.51517772161E-02  0.21003678318E-02  0.24065047642E-01  0.00000000000E+00 0. -1.
     999901    1    3    3    0    0 -0.53313845083E-01  0.10917354943E+00 -0.14465309583E-01  0.88846523576E+00  0.88000000000E+00 0.  1.
        -11    1    4    4    0    0  0.57817179087E-01 -0.70607133565E-01  0.67793854823E-03  0.91262885279E-01  0.51100000000E-03 0.  1.
         11    1    4    4    0    0  0.18909785491E-01 -0.33414638651E-01  0.11687003203E-01  0.40136831319E-01  0.51100000000E-03 0. -1.
</event>
<event>
 8    1  0.1143506E+005  0.1043930E+01  0.7957747E-01            NaN
         13   -1    0    0    0    0  0.00000000000E+00  0.00000000000E+00  0.74505805969E-08  0.10566000000E+00  0.10566000000E+00 0.  1.
     999900   -1    0    0    0    0 -0.00000000000E+00 -0.00000000000E+00 -0.74505805969E-08  0.93827000000E+00  0.93827000000E+00 0. -1.
     999902    2    1    2    0    0  0.91642991212E-03  0.23698590204E-01 -0.61368589874E-02  0.10194325703E+01  0.10191381856E+01 0.  0.
     999903    2    3    3    0    0  0.11352432106E+00 -0.38781769937E-01  0.42192570140E-01  0.12874740359E+00  0.20096860586E-01 0.  0.
         14    1    1    2    0    0 -0.91642991212E-03 -0.23698590204E-01  0.61368589874E-02  0.24497429655E-01  0.00000000000E+00 0. -1.
     999901    1    3    3    0    0 -0.11260789115E+00  0.62480360142E-01 -0.48329429127E-01  0.89068516675E+00  0.88000000000E+00 0.  1.
        -11    1    4    4    0    0  0.18627306044E-01 -0.24321920687E-02  0.13544252945E-01  0.23164628155E-01  0.51100000000E-03 0. -1.
         11    1    4    4    0    0  0.94897015016E-01 -0.36349577869E-01  0.28648317195E-01  0.10558277544E+00  0.51100000000E-03 0.  1.
</event>
<event>
 8    1  0.1143506E+005  0.1043930E+01  0.7957747E-01            NaN
         13   -1    0    0    0    0  0.00000000000E+00  0.00000000000E+00  0.74505805969E-08  0.10566000000E+00  0.10566000000E+00 0. -1.
     999900   -1    0    0    0    0 -0.00000000000E+00 -0.00000000000E+00 -0.74505805969E-08  0.93827000000E+00  0.93827000000E+00 0. -1.
     999902    2    1    2    0    0  0.18007410858E-01  0.13025335729E-01 -0.81992169249E-02  0.10202413239E+01  0.10199662767E+01 0.  0.
     999903    2    3    3    0    0 -0.50825950864E-01  0.94745296415E-01 -0.72909723478E-01  0.13141983828E+00  0.19884608174E-01 0.  0.
         14    1    1    2    0    0 -0.18007410858E-01 -0.13025335729E-01  0.81992169249E-02  0.23688676088E-01  0.00000000000E+00 0. -1.
     999901    1    3    3    0    0  0.68833361721E-01 -0.81719960686E-01  0.64710506553E-01  0.88882148563E+00  0.88000000000E+00 0.  1.
        -11    1    4    4    0    0 -0.37658993136E-01  0.70169364661E-01 -0.63931243539E-01  0.10212445604E+00  0.51100000000E-03 0.  1.
         11    1    4    4    0    0 -0.13166957728E-01  0.24575931754E-01 -0.89784799392E-02  0.29295382237E-01  0.51100000000E-03 0. -1.
</event>
<event>
 8    1  0.1143506E+005  0.1043930E+01  0.7957747E-01            NaN
         13   -1    0    0    0    0  0.00000000000E+00  0.00000000000E+00  0.74505805969E-08  0.10566000000E+00  0.10566000000E+00 0.  1.
     999900   -1    0    0    0    0 -0.00000000000E+00 -0.00000000000E+00 -0.74505805969E-08  0.93827000000E+00  0.93827000000E+00 0.  1.
     999902    2    1    2    0    0 -0.22579475671E-01 -0.76667737527E-02  0.29123855145E-02  0.10199072164E+01  0.10196242622E+01 0.  0.
     999903    2    3    3    0    0 -0.38358528280E-01  0.11454858258E+00  0.44543418195E-01  0.13034624903E+00  0.20329143340E-01 0.  0.
         14    1    1    2    0    0  0.22579475671E-01  0.76667737527E-02 -0.29123855145E-02  0.24022783576E-01  0.00000000000E+00 0. -1.
     999901    1    3    3    0    0  0.15779052609E-01 -0.12221535633E+00 -0.41631032681E-01  0.88956096739E+00  0.88000000000E+00 0.  1.
        -11    1    4    4    0    0 -0.37265536715E-02  0.17890075385E-02 -0.24003065645E-03  0.41721080949E-02  0.51100000000E-03 0.  1.
         11    1    4    4    0    0 -0.34631974609E-01  0.11275957504E+00  0.44783448852E-01  0.12617414094E+00  0.51100000000E-03 0. -1.
</event>
<event>
 8    1  0.1143506E+005  0.1043930E+01  0.7957747E-01            NaN
         13   -1    0    0    0    0  0.00000000000E+00  0.00000000000E+00  0.74505805969E-08  0.10566000000E+00  0.10566000000E+00 0. -1.
     999900   -1    0    0    0    0 -0.00000000000E+00 -0.00000000000E+00 -0.74505805969E-08  0.93827000000E+00  0.93827000000E+00 0.  1.
     999902    2    1    2    0    0  0.12784074735E-01  0.17355142465E-01  0.10759026837E-01  0.10198387112E+01  0.10195541215E+01 0.  0.
     999903    2    3    3    0    0 -0.58299745902E-02  0.76676009877E-01  0.10618835182E+00  0.13249875144E+00  0.19150821858E-01 0.  0.
         14    1    1    2    0    0 -0.12784074735E-01 -0.17355142465E-01 -0.10759026837E-01  0.24091288784E-01  0.00000000000E+00 0.  1.
     999901    1    3    3    0    0  0.18614049325E-01 -0.59320867412E-01 -0.95429324981E-01  0.88733995977E+00  0.88000000000E+00 0.  1.
        -11    1    4    4    0    0 -0.94392324025E-02  0.17005293209E-01  0.25264192031E-01  0.31887609277E-01  0.51100000000E-03 0.  1.
         11    1    4    4    0    0  0.36092578123E-02  0.59670716668E-01  0.80924159787E-01  0.10061114217E+00  0.51100000000E-03 0. -1.
</event>
<event>
 8    1  0.1143506E+005  0.1043930E+01  0.7957747E-01            NaN
         13   -1    0    0    0    0  0.00000000000E+00  0.00000000000E+00  0.74505805969E-08  0.10566000000E+00  0.10566000000E+00 0. -1.
     999900   -1    0    0    0    0 -0.00000000000E+00 -0.00000000000E+00 -0.74505805969E-08  0.93827000000E+00  0.93827000000E+00 0.  1.
     999902    2    1    2    0    0  0.18857592139E-01  0.11431531686E-01 -0.91091354902E-02  0.10200707241E+01  0.10197916538E+01 0.  0.
     999903    2    3    3    0    0  0.87398145332E-01 -0.95558579570E-01 -0.49581697880E-02  0.13093523280E+00  0.18696892899E-01 0.  0.
         14    1    1    2    0    0 -0.18857592139E-01 -0.11431531686E-01  0.91091354902E-02  0.23859275918E-01  0.00000000000E+00 0.  1.
     999901    1    3    3    0    0 -0.68540553194E-01  0.10699011126E+00 -0.41509657022E-02  0.88913549128E+00  0.88000000000E+00 0.  1.
        -11    1    4    4    0    0  0.54075773805E-01 -0.56291065611E-01 -0.11920795273E-01  0.78963535009E-01  0.51100000000E-03 0.  1.
         11    1    4    4    0    0  0.33322371528E-01 -0.39267513960E-01  0.69626254848E-02  0.51971697793E-01  0.51100000000E-03 0. -1.
</event>
<event>
 8    1  0.1143506E+005  0.1043930E+01  0.7957747E-01            NaN
         13   -1    0    0    0    0  0.00000000000E+00  0.00000000000E+00  0.74505805969E-08  0.10566000000E+00  0.10566000000E+00 0.  1.
     999900   -1    0    0    0    0 -0.00000000000E+00 -0.00000000000E+00 -0.74505805969E-08  0.93827000000E+00  0.93827000000E+00 0. -1.
     999902    2    1    2    0    0 -0.12288217861E-01 -0.10471291706E-01 -0.17223622645E-01  0.10203227675E+01  0.10200496304E+01 0.  0.
     999903    2    3    3    0    0  0.99266882238E-01  0.72279379419E-01  0.30636193811E-01  0.12814409934E+00  0.20102517899E-01 0.  0.
         14    1    1    2    0    0  0.12288217861E-01  0.10471291706E-01  0.17223622645E-01  0.23607232477E-01  0.00000000000E+00 0.  1.
     999901    1    3    3    0    0 -0.11155510010E+00 -0.82750671125E-01 -0.47859816457E-01  0.89217866818E+00  0.88000000000E+00 0. -1.
        -11    1    4    4    0    0  0.43832451195E-01  0.19925945603E-01  0.10585360927E-01  0.49301501731E-01  0.51100000000E-03 0.  1.
         11    1    4    4    0    0  0.55434431043E-01  0.52353433816E-01  0.20050832884E-01  0.78842597609E-01  0.51100000000E-03 0. -1.
</event>
<event>
 8    1  0.1143506E+005  0.1043930E+01  0.7957747E-01            NaN
         13   -1    0    0    0    0  0.00000000000E+00  0.00000000000E+00  0.74505805969E-08  0.10566000000E+00  0.10566000000E+00 0.  1.
     999900   -1    0    0    0    0 -0.00000000000E+00 -0.00000000000E+00 -0.74505805969E-08  0.93827000000E+00  0.93827000000E+00 0.  1.
     999902    2    1    2    0    0 -0.10429940268E-01 -0.19906453906E-01 -0.77791824613E-03  0.10214432101E+01  0.10211956599E+01 0.  0.
     999903    2    3    3    0    0  0.10022528060E+00 -0.32558863578E-01  0.75481836200E-01  0.13115100445E+00  0.19947227931E-01 0.  0.
         14    1    1    2    0    0  0.10429940268E-01  0.19906453906E-01  0.77791824613E-03  0.22486789854E-01  0.00000000000E+00 0.  1.
     999901    1    3    3    0    0 -0.11065522087E+00  0.12652409672E-01 -0.76259754446E-01  0.89029220570E+00  0.88000000000E+00 0.  1.
        -11    1    4    4    0    0  0.40567497569E-01 -0.47500169175E-02  0.35633383254E-01  0.54205937339E-01  0.51100000000E-03 0. -1.
         11    1    4    4    0    0  0.59657783036E-01 -0.27808846661E-01  0.39848452946E-01  0.76945067110E-01  0.51100000000E-03 0.  1.
</event>
<event>
 8    1  0.1143506E+005  0.1043930E+01  0.7957747E-01            NaN
         13   -1    0    0    0    0  0.00000000000E+00  0.00000000000E+00  0.74505805969E-08  0.10566000000E+00  0.10566000000E+00 0.  1.
     999900   -1    0    0    0    0 -0.00000000000E+00 -0.00000000000E+00 -0.74505805969E-08  0.93827000000E+00  0.93827000000E+00 0.  1.
     999902    2    1    2    0    0 -0.11917834340E-01 -0.17446907009E-01  0.81662139046E-02  0.10212779275E+01  0.10210266837E+01 0.  0.
     999903    2    3    3    0    0  0.19320917233E-01 -0.11996873621E+00  0.51991613925E-01  0.13369286072E+00  0.20121072999E-01 0.  0.
         14    1    1    2    0    0  0.11917834340E-01  0.17446907009E-01 -0.81662139046E-02  0.22652072511E-01  0.00000000000E+00 0. -1.
     999901    1    3    3    0    0 -0.31238751573E-01  0.10252182920E+00 -0.43825400020E-01  0.88758506677E+00  0.88000000000E+00 0.  1.
        -11    1    4    4    0    0 -0.58238107127E-03 -0.48082568381E-01  0.14618786127E-01  0.50261740705E-01  0.51100000000E-03 0. -1.
         11    1    4    4    0    0  0.19903298304E-01 -0.71886167828E-01  0.37372827798E-01  0.83431120016E-01  0.51100000000E-03 0.  1.
</event>
<event>
 8    1  0.1143506E+005  0.1043930E+01  0.7957747E-01            NaN
         13   -1    0    0    0    0  0.00000000000E+00  0.00000000000E+00  0.74505805969E-08  0.10566000000E+00  0.10566000000E+00 0.  1.
     999900   -1    0    0    0    0 -0.00000000000E+00 -0.00000000000E+00 -0.74505805969E-08  0.93827000000E+00  0.93827000000E+00 0. -1.
     999902    2    1    2    0    0  0.40939395040E-02  0.11369960171E-01 -0.22130980222E-01  0.10187145956E+01  0.10184024797E+01 0.  0.
     999903    2    3    3    0    0 -0.36463192450E-01 -0.72769327048E-01 -0.99641583284E-01  0.13038346688E+00  0.21129693675E-01 0.  0.
         14    1    1    2    0    0 -0.40939395040E-02 -0.11369960171E-01  0.22130980222E-01  0.25215404430E-01  0.00000000000E+00 0.  1.
     999901    1    3    3    0    0  0.40557131954E-01  0.84139287219E-01  0.77510603062E-01  0.88833112869E+00  0.88000000000E+00 0.  1.
        -11    1    4    4    0    0 -0.29024222165E-01 -0.38379956122E-01 -0.48649827980E-01  0.68428746793E-01  0.51100000000E-03 0. -1.
         11    1    4    4    0    0 -0.74389702849E-02 -0.34389370926E-01 -0.50991755304E-01  0.61954720091E-01  0.51100000000E-03 0.  1.
</event>
<event>
 8    1  0.1143506E+005  0.1043930E+01  0.7957747E-01            NaN
         13   -1    0    0    0    0  0.00000000000E+00  0.00000000000E+00  0.74505805969E-08  0.10566000000E+00  0.10566000000E+00 0. -1.
     999900   -1    0    0    0    0 -0.00000000000E+00 -0.00000000000E+00 -0.74505805969E-08  0.93827000000E+00  0.93827000000E+00 0. -1.
     999902    2    1    2    0    0 -0.20665878218E-01  0.53226081591E-02  0.10198085831E-01  0.10202781579E+01  0.10200039754E+01 0.  0.
     999903    2    3    3    0    0 -0.36359830389E-01 -0.18964859359E-01  0.12422431646E+00  0.13245038041E+00  0.20729672278E-01 0.  0.
         14    1    1    2    0    0  0.20665878218E-01 -0.53226081591E-02 -0.10198085831E-01  0.23651842101E-01  0.00000000000E+00 0.  1.
     999901    1    3    3    0    0  0.15693952171E-01  0.24287467518E-01 -0.11402623063E+00  0.88782777749E+00  0.88000000000E+00 0. -1.
        -11    1    4    4    0    0 -0.21525193779E-01 -0.11856368811E-01  0.10124155658E+00  0.10418263458E+00  0.51100000000E-03 0. -1.
         11    1    4    4    0    0 -0.14834636610E-01 -0.71084905481E-02  0.22982759887E-01  0.28267745829E-01  0.51100000000E-03 0.  1.
</event>
<event>
 8    1  0.1143506E+005  0.1043930E+01  0.7957747E-01            NaN
         13   -1    0    0    0    0  0.00000000000E+00  0.00000000000E+00  0.74505805969E-08  0.10566000000E+00  0.10566000000E+00 0. -1.
     999900   -1    0    0    0    0 -0.00000000000E+00 -0.00000000000E+00 -0.74505805969E-08  0.93827000000E+00  0.93827000000E+00 0. -1.
     999902    2    1    2    0    0  0.16996556985E-01 -0.48459171945E-02  0.16357839314E-01  0.10198479575E+01  0.10195635888E+01 0.  0.
     999903    2    3    3    0    0 -0.37241508506E-01  0.57722843354E-01 -0.10571866084E+00  0.12757037211E+00  0.19465559036E-01 0.  0.
         14    1    1    2    0    0 -0.16996556985E-01  0.48459171945E-02 -0.16357839314E-01  0.24082042476E-01  0.00000000000E+00 0.  1.
     999901    1    3    3    0    0  0.54238065490E-01 -0.62568760549E-01  0.12207650016E+00  0.89227758542E+00  0.88000000000E+00 0.  1.
        -11    1    4    4    0    0 -0.34292356310E-01  0.50917056331E-01 -0.80250556679E-01  0.10103922652E+00  0.51100000000E-03 0. -1.
         11    1    4    4    0    0 -0.29491521954E-02  0.68057870230E-02 -0.25468104165E-01  0.26531145592E-01  0.51100000000E-03 0.  1.
</event>
<event>
 8    1  0.1143506E+005  0.1043930E+01  0.7957747E-01            NaN
         13   -1    0    0    0    0  0.00000000000E+00  0.00000000000E+00  0.74505805969E-08  0.10566000000E+00  0.10566000000E+00 0. -1.
     999900   -1    0    0    0    0 -0.00000000000E+00 -0.00000000000E+00 -0.74505805969E-08  0.93827000000E+00  0.93827000000E+00 0. -1.
     999902    2    1    2    0    0 -0.83332461388E-02 -0.45988586409E-02  0.17090564658E-01  0.10243677943E+01  0.10241809889E+01 0.  0.
     999903    2    3    3    0    0  0.54028872392E-01  0.11974451806E+00 -0.86385568484E-02  0.13306969777E+00  0.19366237214E-01 0.  0.
         14    1    1    2    0    0  0.83332461388E-02  0.45988586409E-02 -0.17090564658E-01  0.19562205713E-01  0.00000000000E+00 0.  1.
     999901    1    3    3    0    0 -0.62362118530E-01 -0.12434337670E+00  0.25729121507E-01  0.89129809651E+00  0.88000000000E+00 0.  1.
        -11    1    4    4    0    0  0.19586058560E-01  0.66800948903E-01 -0.36795672890E-02  0.69712128074E-01  0.51100000000E-03 0.  1.
         11    1    4    4    0    0  0.34442813832E-01  0.52943569156E-01 -0.49589895594E-02  0.63357569698E-01  0.51100000000E-03 0. -1.
</event>
<event>
 8    1  0.1143506E+005  0.1043930E+01  0.7957747E-01            NaN
         13   -1    0    0    0    0  0.00000000000E+00  0.00000000000E+00  0.74505805969E-08  0.10566000000E+00  0.10566000000E+00 0. -1.
     999900   -1    0    0    0    0 -0.00000000000E+00 -0.00000000000E+00 -0.74505805969E-08  0.93827000000E+00  0.93827000000E+00 0.  1.
     999902    2    1    2    0    0 -0.33083767181E-02  0.13910431287E-01  0.17722848237E-01  0.10211584211E+01  0.10209044893E+01 0.  0.
     999903    2    3    3    0    0  0.12672725059E+00 -0.89649608870E-02 -0.17556227677E-01  0.13060962339E+00  0.24708015457E-01 0.  0.
         14    1    1    2    0    0  0.33083767181E-02 -0.13910431287E-01 -0.17722848237E-01  0.22771578881E-01  0.00000000000E+00 0.  1.
     999901    1    3    3    0    0 -0.13003562730E+00  0.22875392174E-01  0.35279075913E-01  0.89054879773E+00  0.88000000000E+00 0.  1.
        -11    1    4    4    0    0  0.48224317871E-01  0.82977952012E-02 -0.92400974941E-02  0.49800389176E-01  0.51100000000E-03 0. -1.
         11    1    4    4    0    0  0.78502932714E-01 -0.17262756088E-01 -0.83161301825E-02  0.80809234217E-01  0.51100000000E-03 0.  1.
</event>
<event>
 8    1  0.1143506E+005  0.1043930E+01  0.7957747E-01            NaN
         13   -1    0    0    0    0  0.00000000000E+00  0.00000000000E+00  0.74505805969E-08  0.10566000000E+00  0.10566000000E+00 0.  1.
     999900   -1    0    0    0    0 -0.00000000000E+00 -0.00000000000E+00 -0.74505805969E-08  0.93827000000E+00  0.93827000000E+00 0. -1.
     999902    2    1    2    0    0  0.23135104777E-01  0.32456077705E-02  0.29390925987E-02  0.10203841870E+01  0.10201124859E+01 0.  0.
     999903    2    3    3    0    0 -0.40528647925E-01 -0.22996566991E-01 -0.11873843929E+00  0.12934706833E+00  0.21457719451E-01 0.  0.
         14    1    1    2    0    0 -0.23135104777E-01 -0.32456077705E-02 -0.29390925987E-02  0.23545812964E-01  0.00000000000E+00 0.  1.
     999901    1    3    3    0    0  0.63663752702E-01  0.26242174762E-01  0.12167753189E+00  0.89103711871E+00  0.88000000000E+00 0.  1.
        -11    1    4    4    0    0 -0.53915432123E-02 -0.68884943223E-02 -0.47448455127E-01  0.48250773125E-01  0.51100000000E-03 0. -1.
         11    1    4    4    0    0 -0.35137104713E-01 -0.16108072669E-01 -0.71289984166E-01  0.81096295205E-01  0.51100000000E-03 0.  1.
</event>
<event>
 8    1  0.1143506E+005  0.1043930E+01  0.7957747E-01            NaN
         13   -1    0    0    0    0  0.00000000000E+00  0.00000000000E+00  0.74505805969E-08  0.10566000000E+00  0.10566000000E+00 0. -1.
     999900   -1    0    0    0    0 -0.00000000000E+00 -0.00000000000E+00 -0.74505805969E-08  0.93827000000E+00  0.93827000000E+00 0.  1.
     999902    2    1    2    0    0  0.70443542193E-02  0.22881303720E-01  0.16802278288E-02  0.10199299968E+01  0.10196475853E+01 0.  0.
     999903    2    3    3    0    0 -0.10644482542E+00 -0.66239401588E-01  0.16575919336E-01  0.12805322528E+00  0.20117361214E-01 0.  0.
         14    1    1    2    0    0 -0.70443542193E-02 -0.22881303720E-01 -0.16802278288E-02  0.24000003164E-01  0.00000000000E+00 0. -1.
     999901    1    3    3    0    0  0.11348917964E+00  0.89120705308E-01 -0.14895691507E-01  0.89187677155E+00  0.88000000000E+00 0. -1.
        -11    1    4    4    0    0 -0.54564514552E-01 -0.39769242768E-01  0.95747998891E-04  0.67521472195E-01  0.51100000000E-03 0. -1.
         11    1    4    4    0    0 -0.51880310868E-01 -0.26470158820E-01  0.16480171337E-01  0.60531753089E-01  0.51100000000E-03 0.  1.
</event>
<event>
 8    1  0.1143506E+005  0.1043930E+01  0.7957747E-01            NaN
         13   -1    0    0    0    0  0.00000000000E+00  0.00000000000E+00  0.74505805969E-08  0.10566000000E+00  0.10566000000E+00 0.  1.
     999900   -1    0    0    0    0 -0.00000000000E+00 -0.00000000000E+00 -0.74505805969E-08  0.93827000000E+00  0.93827000000E+00 0.  1.
     999902    2    1    2    0    0 -0.10939846139E-01 -0.42725344169E-03  0.21716095401E-01  0.10196102225E+01  0.10193201431E+01 0.  0.
     999903    2    3    3    0    0  0.10659983112E+00  0.42417470067E-01 -0.51846056586E-01  0.12772310167E+00  0.21503752115E-01 0.  0.
         14    1    1    2    0    0  0.10939846139E-01  0.42725344169E-03 -0.21716095401E-01  0.24319777518E-01  0.00000000000E+00 0. -1.
     999901    1    3    3    0    0 -0.11753967726E+00 -0.42844723509E-01  0.73562151988E-01  0.89188712081E+00  0.88000000000E+00 0. -1.
        -11    1    4    4    0    0  0.73987687270E-01  0.18698708305E-01 -0.31622916240E-01  0.82608047504E-01  0.51100000000E-03 0.  1.
         11    1    4    4    0    0  0.32612143851E-01  0.23718761762E-01 -0.20223140346E-01  0.45115054167E-01  0.51100000000E-03 0. -1.
</event>
<event>
 7    1  0.1143506E+005  0.1043930E+01  0.7957747E-01            NaN
         13   -1    0    0    0    0  0.00000000000E+00  0.00000000000E+00  0.74505805969E-08  0.10566000000E+00  0.10566000000E+00 0.  1.
     999900   -1    0    0    0    0 -0.00000000000E+00 -0.00000000000E+00 -0.74505805969E-08  0.93827000000E+00  0.93827000000E+00 0.  1.
     999903    2    1    2    0    0 -0.85095053673E-01 -0.68349642938E-01  0.58284987440E-02  0.11078368054E+00  0.18061301927E-01 0.  0.
         14    1    1    2    0    0 -0.15960361540E-02  0.36189735202E-01 -0.31389631805E-01  0.47932799316E-01  0.00000000000E+00 0. -1.
     999901    1    1    2    0    0  0.86691089827E-01  0.32159907736E-01  0.25561133061E-01  0.88521352014E+00  0.88000000000E+00 0. -1.
        -11    1    3    3    0    0 -0.61467883945E-01 -0.55390736090E-01  0.10570474086E-01  0.83417207126E-01  0.51100000000E-03 0. -1.
         11    1    3    3    0    0 -0.23627169728E-01 -0.12958906848E-01 -0.47419753417E-02  0.27366473415E-01  0.51100000000E-03 0.  1.
</event>
<event>
 8    1  0.1143506E+005  0.1043930E+01  0.7957747E-01            NaN
         13   -1    0    0    0    0  0.00000000000E+00  0.00000000000E+00  0.74505805969E-08  0.10566000000E+00  0.10566000000E+00 0.  1.
     999900   -1    0    0    0    0 -0.00000000000E+00 -0.00000000000E+00 -0.74505805969E-08  0.93827000000E+00  0.93827000000E+00 0.  1.
     999902    2    1    2    0    0 -0.19988756042E-01 -0.73050553240E-02  0.12524693466E-01  0.10192362326E+01  0.10189370519E+01 0.  0.
     999903    2    3    3    0    0  0.60980364011E-01 -0.87449117609E-01  0.71909559094E-01  0.12990747935E+00  0.18412374512E-01 0.  0.
         14    1    1    2    0    0  0.19988756042E-01  0.73050553240E-02 -0.12524693466E-01  0.24693767388E-01  0.00000000000E+00 0.  1.
     999901    1    3    3    0    0 -0.80969120053E-01  0.80144062285E-01 -0.59384865628E-01  0.88932875327E+00  0.88000000000E+00 0.  1.
        -11    1    4    4    0    0  0.41934764295E-01 -0.44533304545E-01  0.42868725395E-01  0.74697579667E-01  0.51100000000E-03 0.  1.
         11    1    4    4    0    0  0.19045599717E-01 -0.42915813064E-01  0.29040833699E-01  0.55209899678E-01  0.51100000000E-03 0. -1.
</event>
<event>
 8    1  0.1143506E+005  0.1043930E+01  0.7957747E-01            NaN
         13   -1    0    0    0    0  0.00000000000E+00  0.00000000000E+00  0.74505805969E-08  0.10566000000E+00  0.10566000000E+00 0.  1.
     999900   -1    0    0    0    0 -0.00000000000E+00 -0.00000000000E+00 -0.74505805969E-08  0.93827000000E+00  0.93827000000E+00 0. -1.
     999902    2    1    2    0    0  0.19398147002E-01 -0.38282567913E-02 -0.13530639681E-01  0.10199712465E+01  0.10196898165E+01 0.  0.
     999903    2    3    3    0    0 -0.11092645609E+00  0.60441642515E-01 -0.10207459107E-02  0.12796697549E+00  0.20411616379E-01 0.  0.
         14    1    1    2    0    0 -0.19398147002E-01  0.38282567913E-02  0.13530639681E-01  0.23958753460E-01  0.00000000000E+00 0.  1.
     999901    1    3    3    0    0  0.13032460309E+00 -0.64269899306E-01 -0.12509893771E-01  0.89200427105E+00  0.88000000000E+00 0. -1.
        -11    1    4    4    0    0 -0.37050353747E-02  0.51491892000E-02  0.34602665120E-02  0.72440321561E-02  0.51100000000E-03 0. -1.
         11    1    4    4    0    0 -0.10722142072E+00  0.55292453315E-01 -0.44810124227E-02  0.12072294333E+00  0.51100000000E-03 0.  1.
</event>
<event>
 8    1  0.1143506E+005  0.1043930E+01  0.7957747E-01            NaN
         13   -1    0    0    0    0  0.00000000000E+00  0.00000000000E+00  0.74505805969E-08  0.10566000000E+00  0.10566000000E+00 0.  1.
     999900   -1    0    0    0    0 -0.00000000000E+00 -0.00000000000E+00 -0.74505805969E-08  0.93827000000E+00  0.93827000000E+00 0. -1.
     999902    2    1    2    0    0 -0.17623063424E-01 -0.11861678949E-01  0.62441157669E-03  0.10226776664E+01  0.10224568195E+01 0.  0.
     999903    2    3    3    0    0  0.81064436725E-01 -0.78768535021E-01  0.65355398647E-01  0.13228120937E+00  0.21238295821E-01 0.  0.
         14    1    1    2    0    0  0.17623063424E-01  0.11861678949E-01 -0.62441157669E-03  0.21252333560E-01  0.00000000000E+00 0.  1.
     999901    1    3    3    0    0 -0.98687500149E-01  0.66906856072E-01 -0.64730987071E-01  0.89039645707E+00  0.88000000000E+00 0.  1.
        -11    1    4    4    0    0  0.45886449798E-01 -0.30955831956E-01  0.26828540671E-01  0.61513100415E-01  0.51100000000E-03 0.  1.
         11    1    4    4    0    0  0.35177986927E-01 -0.47812703065E-01  0.38526857976E-01  0.70768108955E-01  0.51100000000E-03 0. -1.
</event>
<event>
 8    1  0.1143506E+005  0.1043930E+01  0.7957747E-01            NaN
         13   -1    0    0    0    0  0.00000000000E+00  0.00000000000E+00  0.74505805969E-08  0.10566000000E+00  0.10566000000E+00 0. -1.
     999900   -1    0    0    0    0 -0.00000000000E+00 -0.00000000000E+00 -0.74505805969E-08  0.93827000000E+00  0.93827000000E+00 0. -1.
     999902    2    1    2    0    0 -0.27396040642E-02  0.23084923016E-01 -0.48933913702E-02  0.10201736455E+01  0.10198970059E+01 0.  0.
     999903    2    3    3    0    0 -0.15110707729E-01 -0.28710433958E-01  0.12346458453E+00  0.12926872733E+00  0.20353813508E-01 0.  0.
         14    1    1    2    0    0  0.27396040642E-02 -0.23084923016E-01  0.48933913702E-02  0.23756354522E-01  0.00000000000E+00 0.  1.
     999901    1    3    3    0    0  0.12371103664E-01  0.51795356973E-01 -0.12835797590E+00  0.89090491815E+00  0.88000000000E+00 0. -1.
        -11    1    4    4    0    0 -0.14624104661E-01 -0.68059454402E-02  0.59709038805E-01  0.61851562361E-01  0.51100000000E-03 0. -1.
         11    1    4    4    0    0 -0.48660306740E-03 -0.21904488517E-01  0.63755545728E-01  0.67417164965E-01  0.51100000000E-03 0.  1.
</event>
<event>
 8    1  0.1143506E+005  0.1043930E+01  0.7957747E-01            NaN
         13   -1    0    0    0    0  0.00000000000E+00  0.00000000000E+00  0.74505805969E-08  0.10566000000E+00  0.10566000000E+00 0. -1.
     999900   -1    0    0    0    0 -0.00000000000E+00 -0.00000000000E+00 -0.74505805969E-08  0.93827000000E+00  0.93827000000E+00 0. -1.
     999902    2    1    2    0    0  0.14354637683E-01  0.10677855360E-01  0.19269091176E-01  0.10176360826E+01  0.10172963317E+01 0.  0.
     999903    2    3    3    0    0  0.15490535830E-01 -0.41758674095E-01  0.12080077201E+00  0.13024689959E+00  0.19689712346E-01 0.  0.
         14    1    1    2    0    0 -0.14354637683E-01 -0.10677855360E-01 -0.19269091176E-01  0.26293917412E-01  0.00000000000E+00 0.  1.
     999901    1    3    3    0    0 -0.11358981463E-02  0.52436529455E-01 -0.10153168084E+00  0.88738918300E+00  0.88000000000E+00 0. -1.
        -11    1    4    4    0    0 -0.41987986326E-02 -0.12646740910E-01  0.28020594021E-01  0.31031996002E-01  0.51100000000E-03 0. -1.
         11    1    4    4    0    0  0.19689334462E-01 -0.29111933185E-01  0.92780177991E-01  0.99214903590E-01  0.51100000000E-03 0.  1.
</event>
<event>
 8    1  0.1143506E+005  0.1043930E+01  0.7957747E-01            NaN
         13   -1    0    0    0    0  0.00000000000E+00  0.00000000000E+00  0.74505805969E-08  0.10566000000E+00  0.10566000000E+00 0. -1.
     999900   -1    0    0    0    0 -0.00000000000E+00 -0.00000000000E+00 -0.74505805969E-08  0.93827000000E+00  0.93827000000E+00 0.  1.
     999902    2    1    2    0    0  0.65700755515E-02  0.18723294225E-01  0.15246142881E-02  0.10240289425E+01  0.10238355449E+01 0.  0.
     999903    2    3    3    0    0 -0.55528899278E-01 -0.24441856417E-01 -0.11630025225E+00  0.13296092489E+00  0.21725465994E-01 0.  0.
         14    1    1    2    0    0 -0.65700755515E-02 -0.18723294225E-01 -0.15246142881E-02  0.19901057462E-01  0.00000000000E+00 0. -1.
     999901    1    3    3    0    0  0.62098974829E-01  0.43165150642E-01  0.11782486654E+00  0.89106801765E+00  0.88000000000E+00 0.  1.
        -11    1    4    4    0    0 -0.86701091166E-02 -0.73546026432E-03 -0.35793267536E-01  0.36839256451E-01  0.51100000000E-03 0. -1.
         11    1    4    4    0    0 -0.46858790161E-01 -0.23706396153E-01 -0.80506984716E-01  0.96121668436E-01  0.51100000000E-03 0.  1.
</event>
<event>
 8    1  0.1143506E+005  0.1043930E+01  0.7957747E-01            NaN
         13   -1    0    0    0    0  0.00000000000E+00  0.00000000000E+00  0.74505805969E-08  0.10566000000E+00  0.10566000000E+00 0. -1.
     999900   -1    0    0    0    0 -0.00000000000E+00 -0.00000000000E+00 -0.74505805969E-08  0.93827000000E+00  0.93827000000E+00 0. -1.
     999902    2    1    2    0    0  0.22572666706E-01  0.56001102941E-02  0.38264893863E-02  0.10203603471E+01  0.10200880890E+01 0.  0.
     999903    2    3    3    0    0 -0.97899102679E-01 -0.78811507717E-01 -0.14497238485E-01  0.12796215823E+00  0.19200415630E-01 0.  0.
         14    1    1    2    0    0 -0.22572666706E-01 -0.56001102941E-02 -0.38264893863E-02  0.23569652915E-01  0.00000000000E+00 0. -1.
     999901    1    3    3    0    0  0.12047176938E+00  0.84411618011E-01  0.18323727871E-01  0.89239818886E+00  0.88000000000E+00 0. -1.
        -11    1    4    4    0    0 -0.49047349007E-01 -0.48058509381E-01 -0.99769575087E-03  0.68676919604E-01  0.51100000000E-03 0.  1.
         11    1    4    4    0    0 -0.48851753672E-01 -0.30752998337E-01 -0.13499542734E-01  0.59285238623E-01  0.51100000000E-03 0. -1.
</event>
<event>
 8    1  0.1143506E+005  0.1043930E+01  0.7957747E-01            NaN
         13   -1    0    0    0    0  0.00000000000E+00  0.00000000000E+00  0.74505805969E-08  0.10566000000E+00  0.10566000000E+00 0.  1.
     999900   -1    0    0    0    0 -0.00000000000E+00 -0.00000000000E+00 -0.74505805969E-08  0.93827000000E+00  0.93827000000E+00 0.  1.
     999902    2    1    2    0    0 -0.61074596713E-02 -0.19245915059E-01 -0.10744073037E-01  0.10210577151E+01  0.10208015068E+01 0.  0.
     999903    2    3    3    0    0 -0.11407179989E+00 -0.59730949165E-01  0.25158308953E-01  0.13280982305E+00  0.20623936792E-01 0.  0.
         14    1    1    2    0    0  0.61074596713E-02  0.19245915059E-01  0.10744073037E-01  0.22872284878E-01  0.00000000000E+00 0.  1.
     999901    1    3    3    0    0  0.10796434022E+00  0.40485034105E-01 -0.35902381991E-01  0.88824789208E+00  0.88000000000E+00 0. -1.
        -11    1    4    4    0    0 -0.28277092656E-01 -0.14461441382E-01  0.15437434847E-01  0.35317173890E-01  0.51100000000E-03 0.  1.
         11    1    4    4    0    0 -0.85794707238E-01 -0.45269507782E-01  0.97208741062E-02  0.97492649155E-01  0.51100000000E-03 0. -1.
</event>
<event>
 8    1  0.1143506E+005  0.1043930E+01  0.7957747E-01            NaN
         13   -1    0    0    0    0  0.00000000000E+00  0.00000000000E+00  0.74505805969E-08  0.10566000000E+00  0.10566000000E+00 0.  1.
     999900   -1    0    0    0    0 -0.00000000000E+00 -0.00000000000E+00 -0.74505805969E-08  0.93827000000E+00  0.93827000000E+00 0. -1.
     999902    2    1    2    0    0 -0.16138058549E-01  0.85208778532E-02 -0.16065969342E-01  0.10196162659E+01  0.10193263325E+01 0.  0.
     999903    2    3    3    0    0  0.50977379169E-01 -0.48516722663E-01  0.10400223484E+00  0.12710624162E+00  0.19671457545E-01 0.  0.
         14    1    1    2    0    0  0.16138058549E-01 -0.85208778532E-02  0.16065969342E-01  0.24313734062E-01  0.00000000000E+00 0.  1.
     999901    1    3    3    0    0 -0.67115437718E-01  0.57037600516E-01 -0.12006820418E+00  0.89251002432E+00  0.88000000000E+00 0.  1.
        -11    1    4    4    0    0  0.22971810101E-01 -0.27936125558E-01  0.68250212013E-01  0.77243017362E-01  0.51100000000E-03 0.  1.
         11    1    4    4    0    0  0.28005569068E-01 -0.20580597105E-01  0.35752022828E-01  0.49863224258E-01  0.51100000000E-03 0. -1.
</event>
<event>
 7    1  0.1143506E+005  0.1043930E+01  0.7957747E-01            NaN
         13   -1    0    0    0    0  0.00000000000E+00  0.00000000000E+00  0.74505805969E-08  0.10566000000E+00  0.10566000000E+00 0. -1.
     999900   -1    0    0    0    0 -0.00000000000E+00 -0.00000000000E+00 -0.74505805969E-08  0.93827000000E+00  0.93827000000E+00 0.  1.
     999903    2    1    2    0    0 -0.16549859332E-01 -0.49502041758E-01  0.10219410710E+00  0.11649194518E+00  0.20059605790E-01 0.  0.
         14    1    1    2    0    0  0.18443156196E-01  0.34901307253E-01  0.85050238672E-02  0.40380523640E-01  0.00000000000E+00 0.  1.
     999901    1    1    2    0    0 -0.18932968640E-02  0.14600734505E-01 -0.11069913097E+00  0.88705753118E+00  0.88000000000E+00 0.  1.
        -11    1    3    3    0    0 -0.43499579633E-02 -0.32177150526E-01  0.77001512123E-01  0.83569044152E-01  0.51100000000E-03 0.  1.
         11    1    3    3    0    0 -0.12199901369E-01 -0.17324891232E-01  0.25192594976E-01  0.32922901030E-01  0.51100000000E-03 0. -1.
</event>
<event>
 8    1  0.1143506E+005  0.1043930E+01  0.7957747E-01            NaN
         13   -1    0    0    0    0  0.00000000000E+00  0.00000000000E+00  0.74505805969E-08  0.10566000000E+00  0.10566000000E+00 0.  1.
     999900   -1    0    0    0    0 -0.00000000000E+00 -0.00000000000E+00 -0.74505805969E-08  0.93827000000E+00  0.93827000000E+00 0.  1.
     999902    2    1    2    0    0  0.17573675049E-01 -0.75634811016E-02 -0.12946726219E-01  0.10208289606E+01  0.10205675425E+01 0.  0.
     999903    2    3    3    0    0  0.12470192729E+00  0.33611241631E-01  0.21930455492E-01  0.13269144985E+00  0.21113733704E-01 0.  0.
         14    1    1    2    0    0 -0.17573675049E-01  0.75634811016E-02  0.12946726219E-01  0.23101039390E-01  0.00000000000E+00 0.  1.
     999901    1    3    3    0    0 -0.10712825224E+00 -0.41174722733E-01 -0.34877181711E-01  0.88813751076E+00  0.88000000000E+00 0. -1.
        -11    1    4    4    0    0  0.94584499290E-01  0.34272568228E-01  0.14335514890E-01  0.10161990232E+00  0.51100000000E-03 0. -1.
         11    1    4    4    0    0  0.30117427999E-01 -0.66132659689E-03  0.75949406016E-02  0.31071547530E-01  0.51100000000E-03 0.  1.
</event>
<event>
 8    1  0.1143506E+005  0.1043930E+01  0.7957747E-01            NaN
         13   -1    0    0    0    0  0.00000000000E+00  0.00000000000E+00  0.74505805969E-08  0.10566000000E+00  0.10566000000E+00 0.  1.
     999900   -1    0    0    0    0 -0.00000000000E+00 -0.00000000000E+00 -0.74505805969E-08  0.93827000000E+00  0.93827000000E+00 0.  1.
     999902    2    1    2    0    0 -0.15223828261E-02 -0.47627451186E-04  0.24783816677E-01  0.10190994244E+01  0.10187968783E+01 0.  0.
     999903    2    3    3    0    0  0.89044223141E-01  0.38852147189E-01  0.86458456128E-01  0.13145125997E+00  0.19131285785E-01 0.  0.
         14    1    1    2    0    0  0.15223828261E-02  0.47627451186E-04 -0.24783816677E-01  0.24830575646E-01  0.00000000000E+00 0. -1.
     999901    1    3    3    0    0 -0.90566605967E-01 -0.38899774640E-01 -0.61674639451E-01  0.88764816438E+00  0.88000000000E+00 0. -1.
        -11    1    4    4    0    0  0.83465982795E-01  0.31723514598E-01  0.73588450488E-01  0.11570856852E+00  0.51100000000E-03 0.  1.
         11    1    4    4    0    0  0.55782403455E-02  0.71286325909E-02  0.12870005639E-01  0.15742691451E-01  0.51100000000E-03 0. -1.
</event>
<event>
 8    1  0.1143506E+005  0.1043930E+01  0.7957747E-01            NaN
         13   -1    0    0    0    0  0.00000000000E+00  0.00000000000E+00  0.74505805969E-08  0.10566000000E+00  0.10566000000E+00 0. -1.
     999900   -1    0    0    0    0 -0.00000000000E+00 -0.00000000000E+00 -0.74505805969E-08  0.93827000000E+00  0.93827000000E+00 0. -1.
     999902    2    1    2    0    0  0.14268888230E-01  0.62814893340E-02  0.17696895345E-01  0.10203452934E+01  0.10200726834E+01 0.  0.
     999903    2    3    3    0    0 -0.40488759956E-01  0.10813012953E+00  0.60733957297E-01  0.13173754292E+00  0.18294864073E-01 0.  0.
         14    1    1    2    0    0 -0.14268888230E-01 -0.62814893340E-02 -0.17696895345E-01  0.23584706579E-01  0.00000000000E+00 0.  1.
     999901    1    3    3    0    0  0.54757648186E-01 -0.10184864020E+00 -0.43037061952E-01  0.88860775050E+00  0.88000000000E+00 0. -1.
        -11    1    4    4    0    0 -0.18755483212E-01  0.32217359960E-01  0.26108842002E-01  0.45515482915E-01  0.51100000000E-03 0. -1.
         11    1    4    4    0    0 -0.21733276744E-01  0.75912769569E-01  0.34625115295E-01  0.86222060007E-01  0.51100000000E-03 0.  1.
</event>
<event>
 8    1  0.1143506E+005  0.1043930E+01  0.7957747E-01            NaN
         13   -1    0    0    0    0  0.00000000000E+00  0.00000000000E+00  0.74505805969E-08  0.10566000000E+00  0.10566000000E+00 0. -1.
     999900   -1    0    0    0    0 -0.00000000000E+00 -0.00000000000E+00 -0.74505805969E-08  0.93827000000E+00  0.93827000000E+00 0. -1.
     999902    2    1    2    0    0 -0.15795982865E-01 -0.14642929519E-01 -0.95519144302E-02  0.10203680067E+01  0.10200959276E+01 0.  0.
     999903    2    3    3    0    0 -0.61110673884E-01  0.11219922404E+00  0.11891749892E-01  0.12986130605E+00  0.19984112603E-01 0.  0.
         14    1    1    2    0    0  0.15795982865E-01  0.14642929519E-01  0.95519144302E-02  0.23561993313E-01  0.00000000000E+00 0.  1.
     999901    1    3    3    0    0  0.45314691019E-01 -0.12684215356E+00 -0.21443664322E-01  0.89050670064E+00  0.88000000000E+00 0.  1.
        -11    1    4    4    0    0 -0.50676219177E-01  0.74588123503E-01  0.10693035722E-01  0.90807871310E-01  0.51100000000E-03 0. -1.
         11    1    4    4    0    0 -0.10434454707E-01  0.37611100533E-01  0.11987141699E-02  0.39053434740E-01  0.51100000000E-03 0.  1.
</event>
<event>
 8    1  0.1143506E+005  0.1043930E+01  0.7957747E-01            NaN
         13   -1    0    0    0    0  0.00000000000E+00  0.00000000000E+00  0.74505805969E-08  0.10566000000E+00  0.10566000000E+00 0. -1.
     999900   -1    0    0    0    0 -0.00000000000E+00 -0.00000000000E+00 -0.74505805969E-08  0.93827000000E+00  0.93827000000E+00 0.  1.
     999902    2    1    2    0    0  0.40708200713E-02  0.20662428415E-01  0.11203386974E-01  0.10200757886E+01  0.10197968381E+01 0.  0.
     999903    2    3    3    0    0 -0.64384587750E-01 -0.10163476858E+00  0.40502589862E-01  0.12850347486E+00  0.19941964334E-01 0.  0.
         14    1    1    2    0    0 -0.40708200713E-02 -0.20662428415E-01 -0.11203386974E-01  0.23854211447E-01  0.00000000000E+00 0. -1.
     999901    1    3    3    0    0  0.68455407821E-01  0.12229719700E+00 -0.29299202888E-01  0.89157231369E+00  0.88000000000E+00 0.  1.
        -11    1    4    4    0    0 -0.35063132152E-01 -0.67745144971E-01  0.32774237648E-01  0.83025536299E-01  0.51100000000E-03 0. -1.
         11    1    4    4    0    0 -0.29321455599E-01 -0.33889623610E-01  0.77283522143E-02  0.45477938561E-01  0.51100000000E-03 0.  1.
</event>
<event>
 8    1  0.1143506E+005  0.1043930E+01  0.7957747E-01            NaN
         13   -1    0    0    0    0  0.00000000000E+00  0.00000000000E+00  0.74505805969E-08  0.10566000000E+00  0.10566000000E+00 0. -1.
     999900   -1    0    0    0    0 -0.00000000000E+00 -0.00000000000E+00 -0.74505805969E-08  0.93827000000E+00  0.93827000000E+00 0. -1.
     999902    2    1    2    0    0  0.99844378999E-02  0.25374317568E-02 -0.21064676669E-01  0.10204811586E+01  0.10202117167E+01 0.  0.
     999903    2    3    3    0    0  0.19477293606E-01 -0.88982465765E-01  0.88949104357E-01  0.12887079640E+00  0.19962335021E-01 0.  0.
         14    1    1    2    0    0 -0.99844378999E-02 -0.25374317568E-02  0.21064676669E-01  0.23448841406E-01  0.00000000000E+00 0. -1.
     999901    1    3    3    0    0 -0.94928557058E-02  0.91519897522E-01 -0.11001378103E+00  0.89161036219E+00  0.88000000000E+00 0. -1.
        -11    1    4    4    0    0  0.10901431778E-01 -0.67474790274E-01  0.54790923963E-01  0.87601341354E-01  0.51100000000E-03 0. -1.
         11    1    4    4    0    0  0.85758618276E-02 -0.21507675492E-01  0.34158180394E-01  0.41269455048E-01  0.51100000000E-03 0.  1.
</event>
<event>
 8    1  0.1143506E+005  0.1043930E+01  0.7957747E-01            NaN
         13   -1    0    0    0    0  0.00000000000E+00  0.00000000000E+00  0.74505805969E-08  0.10566000000E+00  0.10566000000E+00 0. -1.
     999900   -1    0    0    0    0 -0.00000000000E+00 -0.00000000000E+00 -0.74505805969E-08  0.93827000000E+00  0.93827000000E+00 0. -1.
     999902    2    1    2    0    0  0.14143771883E-01 -0.63127558372E-02 -0.18600454670E-01  0.10197251641E+01  0.10194378530E+01 0.  0.
     999903    2    3    3    0    0  0.93787677621E-02  0.10893470904E+00 -0.69014535232E-01  0.13076719939E+00  0.19553062246E-01 0.  0.
         14    1    1    2    0    0 -0.14143771883E-01  0.63127558372E-02  0.18600454670E-01  0.24204835948E-01  0.00000000000E+00 0.  1.
     999901    1    3    3    0    0  0.47650041214E-02 -0.11524746488E+00  0.50414080562E-01  0.88895796467E+00  0.88000000000E+00 0. -1.
        -11    1    4    4    0    0  0.12181060311E-01  0.10524852227E+00 -0.68288548125E-01  0.12605243590E+00  0.51100000000E-03 0.  1.
         11    1    4    4    0    0 -0.28022925489E-02  0.36861867689E-02 -0.72598710678E-03  0.47147634833E-02  0.51100000000E-03 0. -1.
</event>
<event>
 8    1  0.1143506E+005  0.1043930E+01  0.7957747E-01            NaN
         13   -1    0    0    0    0  0.00000000000E+00  0.00000000000E+00  0.74505805969E-08  0.10566000000E+00  0.10566000000E+00 0. -1.
     999900   -1    0    0    0    0 -0.00000000000E+00 -0.00000000000E+00 -0.74505805969E-08  0.93827000000E+00  0.93827000000E+00 0.  1.
     999902    2    1    2    0    0  0.94919496395E-02 -0.14085163170E-01 -0.16552631508E-01  0.10202133700E+01  0.10199376656E+01 0.  0.
     999903    2    3    3    0    0  0.40459803601E-02 -0.12821367642E+00  0.23505874915E-01  0.13192306831E+00  0.19901080799E-01 0.  0.
         14    1    1    2    0    0 -0.94919496395E-02  0.14085163170E-01  0.16552631508E-01  0.23716630016E-01  0.00000000000E+00 0.  1.
     999901    1    3    3    0    0  0.54459692794E-02  0.11412851325E+00 -0.40058506422E-01  0.88829030168E+00  0.88000000000E+00 0.  1.
        -11    1    4    4    0    0 -0.16681304110E-02 -0.10801655347E+00  0.14210157018E-01  0.10896122322E+00  0.51100000000E-03 0. -1.
         11    1    4    4    0    0  0.57141107711E-02 -0.20197122956E-01  0.92957178967E-02  0.22961845088E-01  0.51100000000E-03 0.  1.
</event>
<event>
 8    1  0.1143506E+005  0.1043930E+01  0.7957747E-01            NaN
         13   -1    0    0    0    0  0.00000000000E+00  0.00000000000E+00  0.74505805969E-08  0.10566000000E+00  0.10566000000E+00 0.  1.
     999900   -1    0    0    0    0 -0.00000000000E+00 -0.00000000000E+00 -0.74505805969E-08  0.93827000000E+00  0.93827000000E+00 0.  1.
     999902    2    1    2    0    0  0.10751658375E-01  0.20996995584E-01 -0.10579413044E-02  0.10203166305E+01  0.10200433497E+01 0.  0.
     999903    2    3    3    0    0 -0.12050232259E+00 -0.36011356130E-01 -0.18086018627E-01  0.12859497259E+00  0.19797358047E-01 0.  0.
         14    1    1    2    0    0 -0.10751658375E-01 -0.20996995584E-01  0.10579413044E-02  0.23613369543E-01  0.00000000000E+00 0. -1.
     999901    1    3    3    0    0  0.13125398097E+00  0.57008351713E-01  0.17028077322E-01  0.89172165786E+00  0.88000000000E+00 0. -1.
        -11    1    4    4    0    0 -0.66448625589E-01 -0.16205772182E-01 -0.19103349273E-01  0.71015814923E-01  0.51100000000E-03 0.  1.
         11    1    4    4    0    0 -0.54053697005E-01 -0.19805583948E-01  0.10173306464E-02  0.57579157671E-01  0.51100000000E-03 0. -1.
</event>
<event>
 8    1  0.1143506E+005  0.1043930E+01  0.7957747E-01            NaN
         13   -1    0    0    0    0  0.00000000000E+00  0.00000000000E+00  0.74505805969E-08  0.10566000000E+00  0.10566000000E+00 0.  1.
     999900   -1    0    0    0    0 -0.00000000000E+00 -0.00000000000E+00 -0.74505805969E-08  0.93827000000E+00  0.93827000000E+00 0.  1.
     999902    2    1    2    0    0  0.90974314647E-02 -0.21113472242E-01 -0.21416169884E-03  0.10209389619E+01  0.10206800557E+01 0.  0.
     999903    2    3    3    0    0  0.20760240621E-01 -0.20851110109E-01  0.12679382005E+00  0.13174431648E+00  0.20350325269E-01 0.  0.
         14    1    1    2    0    0 -0.90974314647E-02  0.21113472242E-01  0.21416169884E-03  0.22991038137E-01  0.00000000000E+00 0.  1.
     999901    1    3    3    0    0 -0.11662809156E-01 -0.26236213333E-03 -0.12700798175E+00  0.88919464538E+00  0.88000000000E+00 0.  1.
        -11    1    4    4    0    0 -0.31366122341E-02 -0.72572853680E-02  0.21300165106E-01  0.22725859318E-01  0.51100000000E-03 0.  1.
         11    1    4    4    0    0  0.23896852855E-01 -0.13593824741E-01  0.10549365494E+00  0.10901845716E+00  0.51100000000E-03 0. -1.
</event>
<event>
 8    1  0.1143506E+005  0.1043930E+01  0.7957747E-01            NaN
         13   -1    0    0    0    0  0.00000000000E+00  0.00000000000E+00  0.74505805969E-08  0.10566000000E+00  0.10566000000E+00 0.  1.
     999900   -1    0    0    0    0 -0.00000000000E+00 -0.00000000000E+00 -0.74505805969E-08  0.93827000000E+00  0.93827000000E+00 0. -1.
     999902    2    1    2    0    0  0.51030208252E-02 -0.16639563108E-01 -0.15326499806E-01  0.10207391079E+01  0.10204756287E+01 0.  0.
     999903    2    3    3    0    0 -0.11371116866E+00 -0.37057712533E-01  0.47552760880E-01  0.13029679425E+00  0.20309741172E-01 0.  0.
         14    1    1    2    0    0 -0.51030208252E-02  0.16639563108E-01  0.15326499806E-01  0.23190892141E-01  0.00000000000E+00 0.  1.
     999901    1    3    3    0    0  0.11881418949E+00  0.20418149425E-01 -0.62879260687E-01  0.89044231361E+00  0.88000000000E+00 0. -1.
        -11    1    4    4    0    0 -0.71638512213E-01 -0.12908867366E-01  0.28915402982E-01  0.78326731959E-01  0.51100000000E-03 0. -1.
         11    1    4    4    0    0 -0.42072656450E-01 -0.24148845167E-01  0.18637357899E-01  0.51970062287E-01  0.51100000000E-03 0.  1.
</event>
<event>
 8    1  0.1143506E+005  0.1043930E+01  0.7957747E-01            NaN
         13   -1    0    0    0    0  0.00000000000E+00  0.00000000000E+00  0.74505805969E-08  0.10566000000E+00  0.10566000000E+00 0.  1.
     999900   -1    0    0    0    0 -0.00000000000E+00 -0.00000000000E+00 -0.74505805969E-08  0.93827000000E+00  0.93827000000E+00 0.  1.
     999902    2    1    2    0    0  0.16902064307E-01  0.62024318545E-02 -0.15631503503E-01  0.10200868911E+01  0.10198082033E+01 0.  0.
     999903    2    3    3    0    0 -0.90203072149E-01 -0.88533810104E-01 -0.12846753502E-01  0.12854091888E+00  0.19567805078E-01 0.  0.
         14    1    1    2    0    0 -0.16902064307E-01 -0.62024318545E-02  0.15631503503E-01  0.23843108869E-01  0.00000000000E+00 0.  1.
     999901    1    3    3    0    0  0.10710513646E+00  0.94736241959E-01 -0.27847500019E-02  0.89154597225E+00  0.88000000000E+00 0.  1.
        -11    1    4    4    0    0 -0.70011500783E-01 -0.61131898836E-01 -0.16152748557E-01  0.94339237352E-01  0.51100000000E-03 0.  1.
         11    1    4    4    0    0 -0.20191571366E-01 -0.27401911268E-01  0.33059950557E-02  0.34201681533E-01  0.51100000000E-03 0. -1.
</event>
<event>
 8    1  0.1143506E+005  0.1043930E+01  0.7957747E-01            NaN
         13   -1    0    0    0    0  0.00000000000E+00  0.00000000000E+00  0.74505805969E-08  0.10566000000E+00  0.10566000000E+00 0.  1.
     999900   -1    0    0    0    0 -0.00000000000E+00 -0.00000000000E+00 -0.74505805969E-08  0.93827000000E+00  0.93827000000E+00 0.  1.
     999902    2    1    2    0    0  0.23900578844E-01  0.48134922978E-02  0.33455223530E-02  0.10193210606E+01  0.10190239569E+01 0.  0.
     999903    2    3    3    0    0  0.43432653246E-01 -0.11467196216E+00 -0.38493513034E-01  0.13004676063E+00  0.19858376840E-01 0.  0.
         14    1    1    2    0    0 -0.23900578844E-01 -0.48134922978E-02 -0.33455223530E-02  0.24608939371E-01  0.00000000000E+00 0.  1.
     999901    1    3    3    0    0 -0.19532074402E-01  0.11948545446E+00  0.41839035387E-01  0.88927430000E+00  0.88000000000E+00 0.  1.
        -11    1    4    4    0    0  0.33728957903E-02 -0.32495723129E-01 -0.76052029948E-02  0.33547707541E-01  0.51100000000E-03 0.  1.
         11    1    4    4    0    0  0.40059757456E-01 -0.82176239031E-01 -0.30888310039E-01  0.96499053088E-01  0.51100000000E-03 0. -1.
</event>
<event>
 8    1  0.1143506E+005  0.1043930E+01  0.7957747E-01            NaN
         13   -1    0    0    0    0  0.00000000000E+00  0.00000000000E+00  0.74505805969E-08  0.10566000000E+00  0.10566000000E+00 0.  1.
     999900   -1    0    0    0    0 -0.00000000000E+00 -0.00000000000E+00 -0.74505805969E-08  0.93827000000E+00  0.93827000000E+00 0. -1.
     999902    2    1    2    0    0 -0.17512246268E-01  0.17286158697E-01  0.57646493158E-02  0.10186570652E+01  0.10183435055E+01 0.  0.
     999903    2    3    3    0    0 -0.10770481261E+00 -0.13902478858E-01 -0.68592060632E-01  0.13037988410E+00  0.22370467546E-01 0.  0.
         14    1    1    2    0    0  0.17512246268E-01 -0.17286158697E-01 -0.57646493158E-02  0.25272934804E-01  0.00000000000E+00 0. -1.
     999901    1    3    3    0    0  0.90192566346E-01  0.31188637554E-01  0.74356709948E-01  0.88827718109E+00  0.88000000000E+00 0.  1.
        -11    1    4    4    0    0 -0.62676255406E-01  0.26093965353E-02 -0.42563460020E-01  0.75809176172E-01  0.51100000000E-03 0.  1.
         11    1    4    4    0    0 -0.45028557209E-01 -0.16511875393E-01 -0.26028600612E-01  0.54570707931E-01  0.51100000000E-03 0. -1.
</event>
<event>
 8    1  0.1143506E+005  0.1043930E+01  0.7957747E-01            NaN
         13   -1    0    0    0    0  0.00000000000E+00  0.00000000000E+00  0.74505805969E-08  0.10566000000E+00  0.10566000000E+00 0. -1.
     999900   -1    0    0    0    0 -0.00000000000E+00 -0.00000000000E+00 -0.74505805969E-08  0.93827000000E+00  0.93827000000E+00 0.  1.
     999902    2    1    2    0    0 -0.13728126051E-01  0.12815314817E-01  0.26390065315E-01  0.10115397347E+01  0.10110210213E+01 0.  0.
     999903    2    3    3    0    0  0.15696542591E-01  0.12119948969E+00  0.28272119917E-02  0.12408937071E+00  0.21318561040E-01 0.  0.
         14    1    1    2    0    0  0.13728126051E-01 -0.12815314817E-01 -0.26390065315E-01  0.32390265297E-01  0.00000000000E+00 0.  1.
     999901    1    3    3    0    0 -0.29424668642E-01 -0.10838417488E+00  0.23562853323E-01  0.88745036399E+00  0.88000000000E+00 0. -1.
        -11    1    4    4    0    0  0.17904928386E-01  0.71791352838E-01  0.76902613515E-02  0.74390765848E-01  0.51100000000E-03 0.  1.
         11    1    4    4    0    0 -0.22083857951E-02  0.49408136856E-01 -0.48630493598E-02  0.49698604865E-01  0.51100000000E-03 0. -1.
</event>
<event>
 8    1  0.1143506E+005  0.1043930E+01  0.7957747E-01            NaN
         13   -1    0    0    0    0  0.00000000000E+00  0.00000000000E+00  0.74505805969E-08  0.10566000000E+00  0.10566000000E+00 0. -1.
     999900   -1    0    0    0    0 -0.00000000000E+00 -0.00000000000E+00 -0.74505805969E-08  0.93827000000E+00  0.93827000000E+00 0. -1.
     999902    2    1    2    0    0  0.25084061895E-01 -0.91186954565E-02 -0.82454529378E-02  0.10159952857E+01  0.10156111817E+01 0.  0.
     999903    2    3    3    0    0 -0.45661441563E-01 -0.11627594474E+00  0.50910669140E-02  0.12657667500E+00  0.19765452675E-01 0.  0.
         14    1    1    2    0    0 -0.25084061895E-01  0.91186954565E-02  0.82454529378E-02  0.27934714284E-01  0.00000000000E+00 0. -1.
     999901    1    3    3    0    0  0.70745503457E-01  0.10715724929E+00 -0.13336519852E-01  0.88941861072E+00  0.88000000000E+00 0. -1.
        -11    1    4    4    0    0 -0.17347593834E-01 -0.58814218273E-01 -0.58061354508E-02  0.61595646054E-01  0.51100000000E-03 0. -1.
         11    1    4    4    0    0 -0.28313847728E-01 -0.57461726469E-01  0.10897202365E-01  0.64981028942E-01  0.51100000000E-03 0.  1.
</event>
<event>
 8    1  0.1143506E+005  0.1043930E+01  0.7957747E-01            NaN
         13   -1    0    0    0    0  0.00000000000E+00  0.00000000000E+00  0.74505805969E-08  0.10566000000E+00  0.10566000000E+00 0.  1.
     999900   -1    0    0    0    0 -0.00000000000E+00 -0.00000000000E+00 -0.74505805969E-08  0.93827000000E+00  0.93827000000E+00 0.  1.
     999902    2    1    2    0    0  0.15952193391E-01  0.52206692658E-02  0.16429281671E-01  0.10204427874E+01  0.10201724526E+01 0.  0.
     999903    2    3    3    0    0  0.53625631581E-05 -0.12524160095E+00  0.30639133124E-01  0.13056828764E+00  0.20587924184E-01 0.  0.
         14    1    1    2    0    0 -0.15952193391E-01 -0.52206692658E-02 -0.16429281671E-01  0.23487212644E-01  0.00000000000E+00 0. -1.
     999901    1    3    3    0    0  0.15946830828E-01  0.13046227021E+00 -0.14209851453E-01  0.88987449971E+00  0.88000000000E+00 0. -1.
        -11    1    4    4    0    0 -0.75849530838E-02 -0.22990482490E-01  0.85685704730E-02  0.25686091944E-01  0.51100000000E-03 0. -1.
         11    1    4    4    0    0  0.75903156469E-02 -0.10225111846E+00  0.22070562651E-01  0.10488219570E+00  0.51100000000E-03 0.  1.
</event>
<event>
 8    1  0.1143506E+005  0.1043930E+01  0.7957747E-01            NaN
         13   -1    0    0    0    0  0.00000000000E+00  0.00000000000E+00  0.74505805969E-08  0.10566000000E+00  0.10566000000E+00 0.  1.
     999900   -1    0    0    0    0 -0.00000000000E+00 -0.00000000000E+00 -0.74505805969E-08  0.93827000000E+00  0.93827000000E+00 0. -1.
     999902    2    1    2    0    0 -0.21949636092E-01 -0.70597047625E-02  0.36277281197E-02  0.10205893409E+01  0.10203224081E+01 0.  0.
     999903    2    3    3    0    0  0.38461737597E-01 -0.11023701367E-01 -0.12171106509E+00  0.12964879270E+00  0.19859477188E-01 0.  0.
         14    1    1    2    0    0  0.21949636092E-01  0.70597047625E-02 -0.36277281197E-02  0.23340659100E-01  0.00000000000E+00 0. -1.
     999901    1    3    3    0    0 -0.60411373689E-01  0.39639966042E-02  0.12533879321E+00  0.89094054820E+00  0.88000000000E+00 0.  1.
        -11    1    4    4    0    0  0.54992284312E-02 -0.73209074442E-02 -0.47257811113E-01  0.48139370907E-01  0.51100000000E-03 0. -1.
         11    1    4    4    0    0  0.32962509166E-01 -0.37027939224E-02 -0.74453253972E-01  0.81509421795E-01  0.51100000000E-03 0.  1.
</event>
<event>
 8    1  0.1143506E+005  0.1043930E+01  0.7957747E-01            NaN
         13   -1    0    0    0    0  0.00000000000E+00  0.00000000000E+00  0.74505805969E-08  0.10566000000E+00  0.10566000000E+00 0. -1.
     999900   -1    0    0    0    0 -0.00000000000E+00 -0.00000000000E+00 -0.74505805969E-08  0.93827000000E+00  0.93827000000E+00 0. -1.
     999902    2    1    2    0    0 -0.14807815835E-01  0.15999529190E-02  0.17999238520E-01  0.10205675548E+01  0.10203001176E+01 0.  0.
     999903    2    3    3    0    0  0.22434692316E-01 -0.12336850315E+00  0.30154657685E-01  0.13087554423E+00  0.22271095805E-01 0.  0.
         14    1    1    2    0    0  0.14807815835E-01 -0.15999529190E-02 -0.17999238520E-01  0.23362445216E-01  0.00000000000E+00 0.  1.
     999901    1    3    3    0    0 -0.37242508151E-01  0.12496845607E+00 -0.12155419165E-01  0.88969201055E+00  0.88000000000E+00 0.  1.
        -11    1    4    4    0    0  0.27843730593E-02 -0.43871571190E-01  0.10795547924E-02  0.43976062256E-01  0.51100000000E-03 0.  1.
         11    1    4    4    0    0  0.19650319256E-01 -0.79496931963E-01  0.29075102892E-01  0.86899481976E-01  0.51100000000E-03 0. -1.
</event>
<event>
 8    1  0.1143506E+005  0.1043930E+01  0.7957747E-01            NaN
         13   -1    0    0    0    0  0.00000000000E+00  0.00000000000E+00  0.74505805969E-08  0.10566000000E+00  0.10566000000E+00 0.  1.
     999900   -1    0    0    0    0 -0.00000000000E+00 -0.00000000000E+00 -0.74505805969E-08  0.93827000000E+00  0.93827000000E+00 0.  1.
     999902    2    1    2    0    0  0.12114500495E-01 -0.21467998496E-01  0.94802071121E-02  0.10175195777E+01  0.10171767695E+01 0.  0.
     999903    2    3    3    0    0  0.12280646206E+00 -0.35587128715E-01  0.61732275680E-02  0.13046659372E+00  0.25210166300E-01 0.  0.
         14    1    1    2    0    0 -0.12114500495E-01  0.21467998496E-01 -0.94802071121E-02  0.26410422347E-01  0.00000000000E+00 0. -1.
     999901    1    3    3    0    0 -0.11069196156E+00  0.14119130219E-01  0.33069795441E-02  0.88705298393E+00  0.88000000000E+00 0. -1.
        -11    1    4    4    0    0  0.68911692250E-01 -0.19982689988E-01 -0.90674342360E-02  0.72322947344E-01  0.51100000000E-03 0. -1.
         11    1    4    4    0    0  0.53894769806E-01 -0.15604438727E-01  0.15240661804E-01  0.58143646374E-01  0.51100000000E-03 0.  1.
</event>
<event>
 8    1  0.1143506E+005  0.1043930E+01  0.7957747E-01            NaN
         13   -1    0    0    0    0  0.00000000000E+00  0.00000000000E+00  0.74505805969E-08  0.10566000000E+00  0.10566000000E+00 0.  1.
     999900   -1    0    0    0    0 -0.00000000000E+00 -0.00000000000E+00 -0.74505805969E-08  0.93827000000E+00  0.93827000000E+00 0.  1.
     999902    2    1    2    0    0 -0.66513359429E-02 -0.18994631379E-01 -0.12234631419E-01  0.10203774524E+01  0.10201055940E+01 0.  0.
     999903    2    3    3    0    0 -0.95875868115E-01  0.76228718844E-01  0.36846234548E-01  0.12940190003E+00  0.19601200669E-01 0.  0.
         14    1    1    2    0    0  0.66513359429E-02  0.18994631379E-01  0.12234631419E-01  0.23552547570E-01  0.00000000000E+00 0.  1.
     999901    1    3    3    0    0  0.89224532172E-01 -0.95223350224E-01 -0.49080865967E-01  0.89097555240E+00  0.88000000000E+00 0. -1.
        -11    1    4    4    0    0 -0.78447823928E-01  0.59373488825E-01  0.21509391100E-01  0.10070842706E+00  0.51100000000E-03 0.  1.
         11    1    4    4    0    0 -0.17428044188E-01  0.16855230020E-01  0.15336843448E-01  0.28693472972E-01  0.51100000000E-03 0. -1.
</event>
<event>
 8    1  0.1143506E+005  0.1043930E+01  0.7957747E-01            NaN
         13   -1    0    0    0    0  0.00000000000E+00  0.00000000000E+00  0.74505805969E-08  0.10566000000E+00  0.10566000000E+00 0. -1.
     999900   -1    0    0    0    0 -0.00000000000E+00 -0.00000000000E+00 -0.74505805969E-08  0.93827000000E+00  0.93827000000E+00 0.  1.
     999902    2    1    2    0    0  0.13105265460E-02  0.13651292903E-01 -0.42365733943E-03  0.10302094037E+01  0.10301180324E+01 0.  0.
     999903    2    3    3    0    0  0.56514195388E-01  0.47547249912E-01  0.11675758221E+00  0.14008142195E+00  0.23149006835E-01 0.  0.
         14    1    1    2    0    0 -0.13105265460E-02 -0.13651292903E-01  0.42365733943E-03  0.13720596317E-01  0.00000000000E+00 0.  1.
     999901    1    3    3    0    0 -0.55203668841E-01 -0.33895957009E-01 -0.11718123955E+00  0.89012798173E+00  0.88000000000E+00 0.  1.
        -11    1    4    4    0    0  0.27554505751E-01  0.32910398992E-01  0.50320703276E-01  0.66142115541E-01  0.51100000000E-03 0.  1.
         11    1    4    4    0    0  0.28959689637E-01  0.14636850919E-01  0.66436878938E-01  0.73939306412E-01  0.51100000000E-03 0. -1.
</event>
<event>
 8    1  0.1143506E+005  0.1043930E+01  0.7957747E-01            NaN
         13   -1    0    0    0    0  0.00000000000E+00  0.00000000000E+00  0.74505805969E-08  0.10566000000E+00  0.10566000000E+00 0.  1.
     999900   -1    0    0    0    0 -0.00000000000E+00 -0.00000000000E+00 -0.74505805969E-08  0.93827000000E+00  0.93827000000E+00 0. -1.
     999902    2    1    2    0    0  0.90261618693E-02 -0.17777659637E-01  0.18566599807E-01  0.10166860023E+01  0.10163209099E+01 0.  0.
     999903    2    3    3    0    0  0.15671188132E-01 -0.12370814304E+00 -0.27343838257E-01  0.12912012196E+00  0.19365681277E-01 0.  0.
         14    1    1    2    0    0 -0.90261618693E-02  0.17777659637E-01 -0.18566599807E-01  0.27243997663E-01  0.00000000000E+00 0. -1.
     999901    1    3    3    0    0 -0.66450262626E-02  0.10593048341E+00  0.45910438063E-01  0.88756588038E+00  0.88000000000E+00 0.  1.
        -11    1    4    4    0    0 -0.41227423607E-02 -0.29070181793E-01 -0.38244708210E-02  0.29613513336E-01  0.51100000000E-03 0.  1.
         11    1    4    4    0    0  0.19793930493E-01 -0.94637961251E-01 -0.23519367436E-01  0.99506608623E-01  0.51100000000E-03 0. -1.
</event>
<event>
 8    1  0.1143506E+005  0.1043930E+01  0.7957747E-01            NaN
         13   -1    0    0    0    0  0.00000000000E+00  0.00000000000E+00  0.74505805969E-08  0.10566000000E+00  0.10566000000E+00 0. -1.
     999900   -1    0    0    0    0 -0.00000000000E+00 -0.00000000000E+00 -0.74505805969E-08  0.93827000000E+00  0.93827000000E+00 0. -1.
     999902    2    1    2    0    0  0.19390250780E-01 -0.13957175626E-01  0.46894805425E-02  0.10195830124E+01  0.10192922757E+01 0.  0.
     999903    2    3    3    0    0 -0.51370323416E-01  0.59044621022E-01 -0.98940124884E-01  0.12768872703E+00  0.19750577196E-01 0.  0.
         14    1    1    2    0    0 -0.19390250780E-01  0.13957175626E-01 -0.46894805425E-02  0.24346987587E-01  0.00000000000E+00 0.  1.
     999901    1    3    3    0    0  0.70760574196E-01 -0.73001796648E-01  0.10362960543E+00  0.89189428538E+00  0.88000000000E+00 0. -1.
        -11    1    4    4    0    0 -0.12785187126E-01  0.21247097712E-01 -0.19153702534E-01  0.31337287898E-01  0.51100000000E-03 0.  1.
         11    1    4    4    0    0 -0.38585136290E-01  0.37797523310E-01 -0.79786422350E-01  0.96351439134E-01  0.51100000000E-03 0. -1.
</event>
<event>
 8    1  0.1143506E+005  0.1043930E+01  0.7957747E-01            NaN
         13   -1    0    0    0    0  0.00000000000E+00  0.00000000000E+00  0.74505805969E-08  0.10566000000E+00  0.10566000000E+00 0.  1.
     999900   -1    0    0    0    0 -0.00000000000E+00 -0.00000000000E+00 -0.74505805969E-08  0.93827000000E+00  0.93827000000E+00 0.  1.
     999902    2    1    2    0    0  0.34100744643E-02 -0.58864314727E-02  0.21819897151E-01  0.10210742218E+01  0.10208183873E+01 0.  0.
     999903    2    3    3    0    0 -0.80067507373E-01  0.40398946663E-01  0.96009930512E-01  0.13280905651E+00  0.19428281085E-01 0.  0.
         14    1    1    2    0    0 -0.34100744643E-02  0.58864314727E-02 -0.21819897151E-01  0.22855778154E-01  0.00000000000E+00 0. -1.
     999901    1    3    3    0    0  0.83477581837E-01 -0.46285378136E-01 -0.74190033361E-01  0.88826516534E+00  0.88000000000E+00 0. -1.
        -11    1    4    4    0    0 -0.57445083687E-01  0.26376671984E-01  0.79164643908E-01  0.10130630993E+00  0.51100000000E-03 0. -1.
         11    1    4    4    0    0 -0.22622423685E-01  0.14022274679E-01  0.16845286604E-01  0.31502746584E-01  0.51100000000E-03 0.  1.
</event>
<event>
 8    1  0.1143506E+005  0.1043930E+01  0.7957747E-01            NaN
         13   -1    0    0    0    0  0.00000000000E+00  0.00000000000E+00  0.74505805969E-08  0.10566000000E+00  0.10566000000E+00 0.  1.
     999900   -1    0    0    0    0 -0.00000000000E+00 -0.00000000000E+00 -0.74505805969E-08  0.93827000000E+00  0.93827000000E+00 0.  1.
     999902    2    1    2    0    0 -0.16477962637E-01 -0.97215817182E-03  0.14760447458E-01  0.10217863970E+01  0.10215464267E+01 0.  0.
     999903    2    3    3    0    0 -0.18239196131E-01 -0.87099161340E-01 -0.93893507169E-01  0.13092914443E+00  0.20187074862E-01 0.  0.
         14    1    1    2    0    0  0.16477962637E-01  0.97215817182E-03 -0.14760447458E-01  0.22143602989E-01  0.00000000000E+00 0. -1.
     999901    1    3    3    0    0  0.17612334942E-02  0.86127003168E-01  0.10865395463E+00  0.89085725258E+00  0.88000000000E+00 0. -1.
        -11    1    4    4    0    0 -0.17288900322E-01 -0.35934351026E-01 -0.45368294626E-01  0.60404692999E-01  0.51100000000E-03 0.  1.
         11    1    4    4    0    0 -0.95029580956E-03 -0.51164810314E-01 -0.48525212543E-01  0.70524451432E-01  0.51100000000E-03 0. -1.
</event>
<event>
 8    1  0.1143506E+005  0.1043930E+01  0.7957747E-01            NaN
         13   -1    0    0    0    0  0.00000000000E+00  0.00000000000E+00  0.74505805969E-08  0.10566000000E+00  0.10566000000E+00 0.  1.
     999900   -1    0    0    0    0 -0.00000000000E+00 -0.00000000000E+00 -0.74505805969E-08  0.93827000000E+00  0.93827000000E+00 0.  1.
     999902    2    1    2    0    0  0.60237730961E-02 -0.16870185163E-01 -0.15828510255E-01  0.10200253827E+01  0.10197452381E+01 0.  0.
     999903    2    3    3    0    0  0.66357500151E-01  0.73843458856E-02 -0.11254502745E+00  0.13234158453E+00  0.19750073483E-01 0.  0.
         14    1    1    2    0    0 -0.60237730961E-02  0.16870185163E-01  0.15828510255E-01  0.23904617267E-01  0.00000000000E+00 0.  1.
     999901    1    3    3    0    0 -0.60333727055E-01 -0.24254531049E-01  0.96716517190E-01  0.88768379820E+00  0.88000000000E+00 0. -1.
        -11    1    4    4    0    0  0.34826419877E-02 -0.59916758982E-03 -0.19088874779E-01  0.19419939710E-01  0.51100000000E-03 0.  1.
         11    1    4    4    0    0  0.62874858163E-01  0.79835134754E-02 -0.93456152667E-01  0.11292164482E+00  0.51100000000E-03 0. -1.
</event>
<event>
 8    1  0.1143506E+005  0.1043930E+01  0.7957747E-01            NaN
         13   -1    0    0    0    0  0.00000000000E+00  0.00000000000E+00  0.74505805969E-08  0.10566000000E+00  0.10566000000E+00 0. -1.
     999900   -1    0    0    0    0 -0.00000000000E+00 -0.00000000000E+00 -0.74505805969E-08  0.93827000000E+00  0.93827000000E+00 0.  1.
     999902    2    1    2    0    0  0.62314159612E-02  0.14199080997E-01  0.17873087196E-01  0.10202679694E+01  0.10199935479E+01 0.  0.
     999903    2    3    3    0    0  0.72403284433E-01  0.10099163080E+00 -0.38725105562E-01  0.13172139308E+00  0.20232313368E-01 0.  0.
         14    1    1    2    0    0 -0.62314159612E-02 -0.14199080997E-01 -0.17873087196E-01  0.23662030596E-01  0.00000000000E+00 0. -1.
     999901    1    3    3    0    0 -0.66171868472E-01 -0.86792549806E-01  0.56598192758E-01  0.88854657633E+00  0.88000000000E+00 0.  1.
        -11    1    4    4    0    0  0.18127680619E-01  0.18444273357E-01 -0.15775106185E-01  0.30297180075E-01  0.51100000000E-03 0. -1.
         11    1    4    4    0    0  0.54275603814E-01  0.82547357446E-01 -0.22949999376E-01  0.10142421300E+00  0.51100000000E-03 0.  1.
</event>
<event>
 8    1  0.1143506E+005  0.1043930E+01  0.7957747E-01            NaN
         13   -1    0    0    0    0  0.00000000000E+00  0.00000000000E+00  0.74505805969E-08  0.10566000000E+00  0.10566000000E+00 0.  1.
     999900   -1    0    0    0    0 -0.00000000000E+00 -0.00000000000E+00 -0.74505805969E-08  0.93827000000E+00  0.93827000000E+00 0.  1.
     999902    2    1    2    0    0 -0.34012205233E-02 -0.83547168172E-02 -0.21918738275E-01  0.10202276651E+01  0.10199522969E+01 0.  0.
     999903    2    3    3    0    0 -0.62047672991E-01  0.27738616796E-01  0.10676827879E+00  0.12820609386E+00  0.20444866401E-01 0.  0.
         14    1    1    2    0    0  0.34012205233E-02  0.83547168172E-02  0.21918738275E-01  0.23702334943E-01  0.00000000000E+00 0.  1.
     999901    1    3    3    0    0  0.58646452468E-01 -0.36093333613E-01 -0.12868701706E+00  0.89202157120E+00  0.88000000000E+00 0.  1.
        -11    1    4    4    0    0 -0.22415935003E-01  0.11769311174E-01  0.58471221663E-01  0.63719194214E-01  0.51100000000E-03 0. -1.
         11    1    4    4    0    0 -0.39631737988E-01  0.15969305622E-01  0.48297057127E-01  0.64486899647E-01  0.51100000000E-03 0.  1.
</event>
<event>
 8    1  0.1143506E+005  0.1043930E+01  0.7957747E-01            NaN
         13   -1    0    0    0    0  0.00000000000E+00  0.00000000000E+00  0.74505805969E-08  0.10566000000E+00  0.10566000000E+00 0.  1.
     999900   -1    0    0    0    0 -0.00000000000E+00 -0.00000000000E+00 -0.74505805969E-08  0.93827000000E+00  0.93827000000E+00 0. -1.
     999902    2    1    2    0    0 -0.11288922425E-01 -0.15455216327E-01 -0.12624757702E-01  0.10210021133E+01  0.10207446436E+01 0.  0.
     999903    2    3    3    0    0  0.11525309091E+00  0.57984533375E-02  0.54606926135E-01  0.12915868595E+00  0.19574287928E-01 0.  0.
         14    1    1    2    0    0  0.11288922425E-01  0.15455216327E-01  0.12624757702E-01  0.22927886694E-01  0.00000000000E+00 0.  1.
     999901    1    3    3    0    0 -0.12654201334E+00 -0.21253669665E-01 -0.67231683836E-01  0.89184342736E+00  0.88000000000E+00 0. -1.
        -11    1    4    4    0    0  0.66315188042E-01  0.35079091756E-02  0.41972042990E-01  0.78561587977E-01  0.51100000000E-03 0. -1.
         11    1    4    4    0    0  0.48937902869E-01  0.22905441619E-02  0.12634883145E-01  0.50597097969E-01  0.51100000000E-03 0.  1.
</event>
<event>
 8    1  0.1143506E+005  0.1043930E+01  0.7957747E-01            NaN
         13   -1    0    0    0    0  0.00000000000E+00  0.00000000000E+00  0.74505805969E-08  0.10566000000E+00  0.10566000000E+00 0. -1.
     999900   -1    0    0    0    0 -0.00000000000E+00 -0.00000000000E+00 -0.74505805969E-08  0.93827000000E+00  0.93827000000E+00 0. -1.
     999902    2    1    2    0    0  0.75980124811E-03 -0.21973278057E-01 -0.59612298970E-02  0.10211497781E+01  0.10208956513E+01 0.  0.
     999903    2    3    3    0    0 -0.38016772101E-01 -0.72090052138E-01 -0.10353782158E+00  0.13349190207E+00  0.21395252837E-01 0.  0.
         14    1    1    2    0    0 -0.75980124811E-03  0.21973278057E-01  0.59612298970E-02  0.22780221869E-01  0.00000000000E+00 0. -1.
     999901    1    3    3    0    0  0.38776573349E-01  0.50116774081E-01  0.97576591680E-01  0.88765787606E+00  0.88000000000E+00 0.  1.
        -11    1    4    4    0    0 -0.10274047964E-01 -0.39288713689E-01 -0.41845524764E-01  0.58313533152E-01  0.51100000000E-03 0. -1.
         11    1    4    4    0    0 -0.27742724137E-01 -0.32801338449E-01 -0.61692296813E-01  0.75178368921E-01  0.51100000000E-03 0.  1.
</event>
<event>
 8    1  0.1143506E+005  0.1043930E+01  0.7957747E-01            NaN
         13   -1    0    0    0    0  0.00000000000E+00  0.00000000000E+00  0.74505805969E-08  0.10566000000E+00  0.10566000000E+00 0.  1.
     999900   -1    0    0    0    0 -0.00000000000E+00 -0.00000000000E+00 -0.74505805969E-08  0.93827000000E+00  0.93827000000E+00 0. -1.
     999902    2    1    2    0    0 -0.22211552114E-01  0.79962236235E-02  0.41564062935E-02  0.10199598445E+01  0.10196781434E+01 0.  0.
     999903    2    3    3    0    0 -0.77062743933E-01  0.90293869973E-01 -0.55133681870E-01  0.13243696011E+00  0.20203367750E-01 0.  0.
         14    1    1    2    0    0  0.22211552114E-01 -0.79962236235E-02 -0.41564062935E-02  0.23970155461E-01  0.00000000000E+00 0. -1.
     999901    1    3    3    0    0  0.54851191819E-01 -0.82297646349E-01  0.59290088164E-01  0.88752288443E+00  0.88000000000E+00 0.  1.
        -11    1    4    4    0    0 -0.43444779420E-01  0.65227360961E-01 -0.33269169709E-01  0.85141977020E-01  0.51100000000E-03 0.  1.
         11    1    4    4    0    0 -0.33617964513E-01  0.25066509011E-01 -0.21864512161E-01  0.47294983085E-01  0.51100000000E-03 0. -1.
</event>
<event>
 8    1  0.1143506E+005  0.1043930E+01  0.7957747E-01            NaN
         13   -1    0    0    0    0  0.00000000000E+00  0.00000000000E+00  0.74505805969E-08  0.10566000000E+00  0.10566000000E+00 0. -1.
     999900   -1    0    0    0    0 -0.00000000000E+00 -0.00000000000E+00 -0.74505805969E-08  0.93827000000E+00  0.93827000000E+00 0.  1.
     999902    2    1    2    0    0  0.12035934816E-01 -0.21125240413E-01  0.20814391796E-03  0.10196157483E+01  0.10193258024E+01 0.  0.
     999903    2    3    3    0    0  0.32346868347E-01 -0.81238507245E-01 -0.96706396077E-01  0.13202430690E+00  0.20791239005E-01 0.  0.
         14    1    1    2    0    0 -0.12035934816E-01  0.21125240413E-01 -0.20814391796E-03  0.24314251650E-01  0.00000000000E+00 0. -1.
     999901    1    3    3    0    0 -0.20310933530E-01  0.60113266832E-01  0.96914539995E-01  0.88759144145E+00  0.88000000000E+00 0. -1.
        -11    1    4    4    0    0  0.24300415253E-01 -0.34044909255E-01 -0.49167480239E-01  0.64554382204E-01  0.51100000000E-03 0. -1.
         11    1    4    4    0    0  0.80464530932E-02 -0.47193597991E-01 -0.47538915837E-01  0.67469924697E-01  0.51100000000E-03 0.  1.
</event>
<event>
 8    1  0.1143506E+005  0.1043930E+01  0.7957747E-01            NaN
         13   -1    0    0    0    0  0.00000000000E+00  0.00000000000E+00  0.74505805969E-08  0.10566000000E+00  0.10566000000E+00 0.  1.
     999900   -1    0    0    0    0 -0.00000000000E+00 -0.00000000000E+00 -0.74505805969E-08  0.93827000000E+00  0.93827000000E+00 0. -1.
     999902    2    1    2    0    0 -0.27486072920E-02  0.18879521763E-01 -0.12703956567E-01  0.10210087937E+01  0.10207514757E+01 0.  0.
     999903    2    3    3    0    0  0.11522055960E+00 -0.28909674658E-01 -0.51129673823E-01  0.13102167733E+00  0.20997374640E-01 0.  0.
         14    1    1    2    0    0  0.27486072920E-02 -0.18879521763E-01  0.12703956567E-01  0.22921206262E-01  0.00000000000E+00 0.  1.
     999901    1    3    3    0    0 -0.11796916689E+00  0.47789196421E-01  0.38425717256E-01  0.88998711641E+00  0.88000000000E+00 0.  1.
        -11    1    4    4    0    0  0.71530656205E-01 -0.27632934264E-01 -0.28584862612E-01  0.81838678659E-01  0.51100000000E-03 0.  1.
         11    1    4    4    0    0  0.43689903392E-01 -0.12767403937E-02 -0.22544811211E-01  0.49182998668E-01  0.51100000000E-03 0. -1.
</event>
<event>
 8    1  0.1143506E+005  0.1043930E+01  0.7957747E-01            NaN
         13   -1    0    0    0    0  0.00000000000E+00  0.00000000000E+00  0.74505805969E-08  0.10566000000E+00  0.10566000000E+00 0. -1.
     999900   -1    0    0    0    0 -0.00000000000E+00 -0.00000000000E+00 -0.74505805969E-08  0.93827000000E+00  0.93827000000E+00 0. -1.
     999902    2    1    2    0    0 -0.17213035633E-01  0.10061496118E-01 -0.11731018698E-01  0.10207969263E+01  0.10205347743E+01 0.  0.
     999903    2    3    3    0    0 -0.29160955551E-01 -0.61195961701E-01 -0.11173443525E+00  0.13219067973E+00  0.19861639698E-01 0.  0.
         14    1    1    2    0    0  0.17213035633E-01 -0.10061496118E-01  0.11731018698E-01  0.23133073716E-01  0.00000000000E+00 0. -1.
     999901    1    3    3    0    0  0.11947919918E-01  0.71257457819E-01  0.10000341655E+00  0.88860624655E+00  0.88000000000E+00 0.  1.
        -11    1    4    4    0    0 -0.79902644565E-02 -0.39233871514E-01 -0.60147482160E-01  0.72257329948E-01  0.51100000000E-03 0. -1.
         11    1    4    4    0    0 -0.21170691094E-01 -0.21962090188E-01 -0.51586953087E-01  0.59933349787E-01  0.51100000000E-03 0.  1.
</event>
<event>
 8    1  0.1143506E+005  0.1043930E+01  0.7957747E-01            NaN
         13   -1    0    0    0    0  0.00000000000E+00  0.00000000000E+00  0.74505805969E-08  0.10566000000E+00  0.10566000000E+00 0.  1.
     999900   -1    0    0    0    0 -0.00000000000E+00 -0.00000000000E+00 -0.74505805969E-08  0.93827000000E+00  0.93827000000E+00 0.  1.
     999902    2    1    2    0    0  0.38403460898E-02  0.11480699579E-02 -0.23184645914E-01  0.10204014189E+01  0.10201301199E+01 0.  0.
     999903    2    3    3    0    0  0.63648988599E-01  0.16632729780E-01  0.10847210091E+00  0.12846512779E+00  0.20229951351E-01 0.  0.
         14    1    1    2    0    0 -0.38403460898E-02 -0.11480699579E-02  0.23184645914E-01  0.23528581106E-01  0.00000000000E+00 0.  1.
     999901    1    3    3    0    0 -0.59808642509E-01 -0.15484659822E-01 -0.13165674682E+00  0.89193629111E+00  0.88000000000E+00 0.  1.
        -11    1    4    4    0    0  0.41906310015E-01  0.74348209028E-02  0.51627424946E-01  0.66910892301E-01  0.51100000000E-03 0.  1.
         11    1    4    4    0    0  0.21742678584E-01  0.91979088769E-02  0.56844675965E-01  0.61554235486E-01  0.51100000000E-03 0. -1.
</event>
<event>
 8    1  0.1143506E+005  0.1043930E+01  0.7957747E-01            NaN
         13   -1    0    0    0    0  0.00000000000E+00  0.00000000000E+00  0.74505805969E-08  0.10566000000E+00  0.10566000000E+00 0. -1.
     999900   -1    0    0    0    0 -0.00000000000E+00 -0.00000000000E+00 -0.74505805969E-08  0.93827000000E+00  0.93827000000E+00 0.  1.
     999902    2    1    2    0    0 -0.18704985420E-01  0.10605808279E-01  0.94834023389E-02  0.10204290517E+01  0.10201583971E+01 0.  0.
     999903    2    3    3    0    0  0.48546629347E-01 -0.11638272053E+00  0.17893468387E-01  0.12873426352E+00  0.18724890802E-01 0.  0.
         14    1    1    2    0    0  0.18704985420E-01 -0.10605808279E-01 -0.94834023389E-02  0.23500948252E-01  0.00000000000E+00 0.  1.
     999901    1    3    3    0    0 -0.67251614767E-01  0.12698852881E+00 -0.84100660481E-02  0.89169478823E+00  0.88000000000E+00 0.  1.
        -11    1    4    4    0    0  0.28131869086E-01 -0.63228208495E-01  0.19050675434E-01  0.71780204536E-01  0.51100000000E-03 0. -1.
         11    1    4    4    0    0  0.20414760261E-01 -0.53154512033E-01 -0.11572070466E-02  0.56954058987E-01  0.51100000000E-03 0.  1.
</event>
<event>
 8    1  0.1143506E+005  0.1043930E+01  0.7957747E-01            NaN
         13   -1    0    0    0    0  0.00000000000E+00  0.00000000000E+00  0.74505805969E-08  0.10566000000E+00  0.10566000000E+00 0. -1.
     999900   -1    0    0    0    0 -0.00000000000E+00 -0.00000000000E+00 -0.74505805969E-08  0.93827000000E+00  0.93827000000E+00 0.  1.
     999902    2    1    2    0    0 -0.23664159852E-01 -0.20397084899E-02  0.45836653675E-02  0.10197398603E+01  0.10194529022E+01 0.  0.
     999903    2    3    3    0    0 -0.58333269191E-02 -0.82333970098E-01  0.99694467115E-01  0.13080163313E+00  0.18898944980E-01 0.  0.
         14    1    1    2    0    0  0.23664159852E-01  0.20397084899E-02 -0.45836653675E-02  0.24190139735E-01  0.00000000000E+00 0.  1.
     999901    1    3    3    0    0 -0.17830832932E-01  0.80294261609E-01 -0.95110801748E-01  0.88893822713E+00  0.88000000000E+00 0.  1.
        -11    1    4    4    0    0 -0.93361651223E-02 -0.23759638212E-01  0.36717511887E-01  0.44722714445E-01  0.51100000000E-03 0.  1.
         11    1    4    4    0    0  0.35028382032E-02 -0.58574331886E-01  0.62976955228E-01  0.86078918686E-01  0.51100000000E-03 0. -1.
</event>
<event>
 8    1  0.1143506E+005  0.1043930E+01  0.7957747E-01            NaN
         13   -1    0    0    0    0  0.00000000000E+00  0.00000000000E+00  0.74505805969E-08  0.10566000000E+00  0.10566000000E+00 0. -1.
     999900   -1    0    0    0    0 -0.00000000000E+00 -0.00000000000E+00 -0.74505805969E-08  0.93827000000E+00  0.93827000000E+00 0. -1.
     999902    2    1    2    0    0  0.53782064482E-02 -0.19429075979E-01  0.14263694490E-01  0.10192345130E+01  0.10189352901E+01 0.  0.
     999903    2    3    3    0    0 -0.43250579672E-02 -0.73566975162E-01 -0.10456699570E+00  0.12954591669E+00  0.20422585004E-01 0.  0.
         14    1    1    2    0    0 -0.53782064482E-02  0.19429075979E-01 -0.14263694490E-01  0.24695487007E-01  0.00000000000E+00 0.  1.
     999901    1    3    3    0    0  0.97032644154E-02  0.54137899183E-01  0.11883069019E+00  0.88968859631E+00  0.88000000000E+00 0.  1.
        -11    1    4    4    0    0  0.77138408047E-02 -0.40995845473E-01 -0.58693890123E-01  0.72009697575E-01  0.51100000000E-03 0. -1.
         11    1    4    4    0    0 -0.12038898772E-01 -0.32571129689E-01 -0.45873105581E-01  0.57536219110E-01  0.51100000000E-03 0.  1.
</event>
<event>
 8    1  0.1143506E+005  0.1043930E+01  0.7957747E-01            NaN
         13   -1    0    0    0    0  0.00000000000E+00  0.00000000000E+00  0.74505805969E-08  0.10566000000E+00  0.10566000000E+00 0. -1.
     999900   -1    0    0    0    0 -0.00000000000E+00 -0.00000000000E+00 -0.74505805969E-08  0.93827000000E+00  0.93827000000E+00 0.  1.
     999902    2    1    2    0    0  0.15134048934E-01  0.15453388636E-01 -0.87975104667E-02  0.10205795643E+01  0.10203124052E+01 0.  0.
     999903    2    3    3    0    0  0.95279922326E-01  0.90653785472E-01  0.12588959445E-01  0.13348552091E+00  0.19066462008E-01 0.  0.
         14    1    1    2    0    0 -0.15134048934E-01 -0.15453388636E-01  0.87975104667E-02  0.23350435711E-01  0.00000000000E+00 0. -1.
     999901    1    3    3    0    0 -0.80145873392E-01 -0.75200396836E-01 -0.21386469912E-01  0.88709404338E+00  0.88000000000E+00 0.  1.
        -11    1    4    4    0    0  0.62774399525E-01  0.71378077833E-01  0.10477950462E-01  0.95632127434E-01  0.51100000000E-03 0. -1.
         11    1    4    4    0    0  0.32505522801E-01  0.19275707639E-01  0.21110089830E-02  0.37853393474E-01  0.51100000000E-03 0.  1.
</event>
<event>
 7    1  0.1143506E+005  0.1043930E+01  0.7957747E-01            NaN
         13   -1    0    0    0    0  0.00000000000E+00  0.00000000000E+00  0.74505805969E-08  0.10566000000E+00  0.10566000000E+00 0. -1.
     999900   -1    0    0    0    0 -0.00000000000E+00 -0.00000000000E+00 -0.74505805969E-08  0.93827000000E+00  0.93827000000E+00 0. -1.
     999903    2    1    2    0    0 -0.14121820826E+00  0.21277319071E-01 -0.95733969849E-02  0.14437925344E+00  0.18931778660E-01 0.  0.
         14    1    1    2    0    0  0.58978510573E-02  0.53682988604E-02 -0.35078628371E-02  0.87125416172E-02  0.00000000000E+00 0. -1.
     999901    1    1    2    0    0  0.13532035720E+00 -0.26645617931E-01  0.13081259822E-01  0.89083820494E+00  0.88000000000E+00 0. -1.
        -11    1    3    3    0    0 -0.31171583531E-01  0.12127950780E-01  0.83671263930E-03  0.33462158014E-01  0.51100000000E-03 0.  1.
         11    1    3    3    0    0 -0.11004662473E+00  0.91493682910E-02 -0.10410109624E-01  0.11091709543E+00  0.51100000000E-03 0. -1.
</event>
<event>
 8    1  0.1143506E+005  0.1043930E+01  0.7957747E-01            NaN
         13   -1    0    0    0    0  0.00000000000E+00  0.00000000000E+00  0.74505805969E-08  0.10566000000E+00  0.10566000000E+00 0. -1.
     999900   -1    0    0    0    0 -0.00000000000E+00 -0.00000000000E+00 -0.74505805969E-08  0.93827000000E+00  0.93827000000E+00 0. -1.
     999902    2    1    2    0    0  0.28089718393E-02 -0.86026118486E-02  0.22626682393E-01  0.10195607159E+01  0.10192694400E+01 0.  0.
     999903    2    3    3    0    0  0.11435873477E+00 -0.57838141603E-01 -0.14076783276E-01  0.13039558418E+00  0.19536675864E-01 0.  0.
         14    1    1    2    0    0 -0.28089718393E-02  0.86026118486E-02 -0.22626682393E-01  0.24369284141E-01  0.00000000000E+00 0.  1.
     999901    1    3    3    0    0 -0.11154976293E+00  0.49235529754E-01  0.36703465669E-01  0.88916513168E+00  0.88000000000E+00 0.  1.
        -11    1    4    4    0    0  0.29778899343E-01 -0.23404254088E-01 -0.89959688952E-02  0.38932384115E-01  0.51100000000E-03 0. -1.
         11    1    4    4    0    0  0.84579835429E-01 -0.34433887514E-01 -0.50808143803E-02  0.91463200066E-01  0.51100000000E-03 0.  1.
</event>
<event>
 8    1  0.1143506E+005  0.1043930E+01  0.7957747E-01            NaN
         13   -1    0    0    0    0  0.00000000000E+00  0.00000000000E+00  0.74505805969E-08  0.10566000000E+00  0.10566000000E+00 0.  1.
     999900   -1    0    0    0    0 -0.00000000000E+00 -0.00000000000E+00 -0.74505805969E-08  0.93827000000E+00  0.93827000000E+00 0.  1.
     999902    2    1    2    0    0 -0.93119075791E-02  0.18599708447E-01 -0.12571622786E-01  0.10196255462E+01  0.10193358367E+01 0.  0.
     999903    2    3    3    0    0 -0.53226860360E-01  0.58498278752E-01  0.10145451748E+00  0.13028737670E+00  0.20655123585E-01 0.  0.
         14    1    1    2    0    0  0.93119075791E-02 -0.18599708447E-01  0.12571622786E-01  0.24304453842E-01  0.00000000000E+00 0.  1.
     999901    1    3    3    0    0  0.43914952781E-01 -0.39898570304E-01 -0.11402614026E+00  0.88933816946E+00  0.88000000000E+00 0. -1.
        -11    1    4    4    0    0 -0.43525779866E-01  0.40505730252E-01  0.86454689025E-01  0.10492798517E+00  0.51100000000E-03 0. -1.
         11    1    4    4    0    0 -0.97010804939E-02  0.17992548500E-01  0.14999828452E-01  0.25359391532E-01  0.51100000000E-03 0.  1.
</event>
<event>
 8    1  0.1143506E+005  0.1043930E+01  0.7957747E-01            NaN
         13   -1    0    0    0    0  0.00000000000E+00  0.00000000000E+00  0.74505805969E-08  0.10566000000E+00  0.10566000000E+00 0.  1.
     999900   -1    0    0    0    0 -0.00000000000E+00 -0.00000000000E+00 -0.74505805969E-08  0.93827000000E+00  0.93827000000E+00 0.  1.
     999902    2    1    2    0    0  0.55630893174E-02  0.13463417050E-01  0.18878198427E-01  0.10200847083E+01  0.10198059689E+01 0.  0.
     999903    2    3    3    0    0  0.62538599347E-01  0.10014420420E+00  0.58162491558E-01  0.13312189999E+00  0.19965640203E-01 0.  0.
         14    1    1    2    0    0 -0.55630893174E-02 -0.13463417050E-01 -0.18878198427E-01  0.23845291721E-01  0.00000000000E+00 0. -1.
     999901    1    3    3    0    0 -0.56975510030E-01 -0.86680787152E-01 -0.39284293132E-01  0.88696280829E+00  0.88000000000E+00 0.  1.
        -11    1    4    4    0    0  0.14232625074E-01  0.37600389576E-01  0.13897281853E-01  0.42541185652E-01  0.51100000000E-03 0.  1.
         11    1    4    4    0    0  0.48305974273E-01  0.62543814626E-01  0.44265209706E-01  0.90580714337E-01  0.51100000000E-03 0. -1.
</event>
<event>
 8    1  0.1143506E+005  0.1043930E+01  0.7957747E-01            NaN
         13   -1    0    0    0    0  0.00000000000E+00  0.00000000000E+00  0.74505805969E-08  0.10566000000E+00  0.10566000000E+00 0.  1.
     999900   -1    0    0    0    0 -0.00000000000E+00 -0.00000000000E+00 -0.74505805969E-08  0.93827000000E+00  0.93827000000E+00 0.  1.
     999902    2    1    2    0    0 -0.24593801775E-01 -0.61980828944E-04 -0.19744503454E-02  0.10192569908E+01  0.10189583191E+01 0.  0.
     999903    2    3    3    0    0  0.82149897602E-01  0.79621721383E-01  0.52343787039E-01  0.12757645349E+00  0.21157865015E-01 0.  0.
         14    1    1    2    0    0  0.24593801775E-01  0.61980828944E-04  0.19744503454E-02  0.24673009170E-01  0.00000000000E+00 0. -1.
     999901    1    3    3    0    0 -0.10674369938E+00 -0.79683702212E-01 -0.54318237385E-01  0.89168053734E+00  0.88000000000E+00 0.  1.
        -11    1    4    4    0    0  0.31493043650E-01  0.18915094406E-01  0.10997668747E-01  0.38351042145E-01  0.51100000000E-03 0. -1.
         11    1    4    4    0    0  0.50656853952E-01  0.60706626977E-01  0.41346118292E-01  0.89225411347E-01  0.51100000000E-03 0.  1.
</event>
<event>
 8    1  0.1143506E+005  0.1043930E+01  0.7957747E-01            NaN
         13   -1    0    0    0    0  0.00000000000E+00  0.00000000000E+00  0.74505805969E-08  0.10566000000E+00  0.10566000000E+00 0.  1.
     999900   -1    0    0    0    0 -0.00000000000E+00 -0.00000000000E+00 -0.74505805969E-08  0.93827000000E+00  0.93827000000E+00 0. -1.
     999902    2    1    2    0    0  0.11874925619E-01 -0.13979857964E-01  0.16275257741E-01  0.10194078814E+01  0.10191128958E+01 0.  0.
     999903    2    3    3    0    0 -0.95613621399E-01 -0.62608157542E-01  0.59774631946E-01  0.13046992245E+00  0.19688779876E-01 0.  0.
         14    1    1    2    0    0 -0.11874925619E-01  0.13979857964E-01 -0.16275257741E-01  0.24522118622E-01  0.00000000000E+00 0. -1.
     999901    1    3    3    0    0  0.10748854702E+00  0.48628299578E-01 -0.43499374205E-01  0.88893795892E+00  0.88000000000E+00 0. -1.
        -11    1    4    4    0    0 -0.31340330588E-01 -0.10200284214E-01  0.14887489464E-01  0.36168502637E-01  0.51100000000E-03 0. -1.
         11    1    4    4    0    0 -0.64273290811E-01 -0.52407873327E-01  0.44887142482E-01  0.94301419817E-01  0.51100000000E-03 0.  1.
</event>
<event>
 8    1  0.1143506E+005  0.1043930E+01  0.7957747E-01            NaN
         13   -1    0    0    0    0  0.00000000000E+00  0.00000000000E+00  0.74505805969E-08  0.10566000000E+00  0.10566000000E+00 0.  1.
     999900   -1    0    0    0    0 -0.00000000000E+00 -0.00000000000E+00 -0.74505805969E-08  0.93827000000E+00  0.93827000000E+00 0. -1.
     999902    2    1    2    0    0 -0.23235859987E-01 -0.36882808595E-03  0.44861025021E-02  0.10202621666E+01  0.10199876088E+01 0.  0.
     999903    2    3    3    0    0  0.46780082098E-01  0.10550418973E+00  0.55532133686E-01  0.12969098730E+00  0.20406474059E-01 0.  0.
         14    1    1    2    0    0  0.23235859987E-01  0.36882808595E-03 -0.44861025021E-02  0.23667833428E-01  0.00000000000E+00 0.  1.
     999901    1    3    3    0    0 -0.70015942085E-01 -0.10587301782E+00 -0.51046031184E-01  0.89057117927E+00  0.88000000000E+00 0. -1.
        -11    1    4    4    0    0  0.30733426686E-01  0.55217942217E-01  0.20923919638E-01  0.66570535468E-01  0.51100000000E-03 0. -1.
         11    1    4    4    0    0  0.16046655412E-01  0.50286247515E-01  0.34608214048E-01  0.63120451833E-01  0.51100000000E-03 0.  1.
</event>
<event>
 8    1  0.1143506E+005  0.1043930E+01  0.7957747E-01            NaN
         13   -1    0    0    0    0  0.00000000000E+00  0.00000000000E+00  0.74505805969E-08  0.10566000000E+00  0.10566000000E+00 0. -1.
     999900   -1    0    0    0    0 -0.00000000000E+00 -0.00000000000E+00 -0.74505805969E-08  0.93827000000E+00  0.93827000000E+00 0.  1.
     999902    2    1    2    0    0  0.65974000895E-02 -0.14833665045E-01  0.19166908706E-01  0.10188116064E+01  0.10185019174E+01 0.  0.
     999903    2    3    3    0    0  0.45951137127E-01  0.36036583343E-01 -0.11093701906E+00  0.12692398412E+00  0.19812450778E-01 0.  0.
         14    1    1    2    0    0 -0.65974000895E-02  0.14833665045E-01 -0.19166908706E-01  0.25118393578E-01  0.00000000000E+00 0.  1.
     999901    1    3    3    0    0 -0.39353737037E-01 -0.50870248388E-01  0.13010392776E+00  0.89188762230E+00  0.88000000000E+00 0.  1.
        -11    1    4    4    0    0  0.30239364437E-01  0.24992678725E-01 -0.91680887338E-01  0.99723113547E-01  0.51100000000E-03 0.  1.
         11    1    4    4    0    0  0.15711772690E-01  0.11043904618E-01 -0.19256131720E-01  0.27200870576E-01  0.51100000000E-03 0. -1.
</event>
<event>
 8    1  0.1143506E+005  0.1043930E+01  0.7957747E-01            NaN
         13   -1    0    0    0    0  0.00000000000E+00  0.00000000000E+00  0.74505805969E-08  0.10566000000E+00  0.10566000000E+00 0.  1.
     999900   -1    0    0    0    0 -0.00000000000E+00 -0.00000000000E+00 -0.74505805969E-08  0.93827000000E+00  0.93827000000E+00 0. -1.
     999902    2    1    2    0    0  0.29730788205E-02  0.85197052027E-02 -0.21778749803E-01  0.10203558931E+01  0.10200835309E+01 0.  0.
     999903    2    3    3    0    0  0.30297935236E-01  0.10346978456E+00  0.70424818460E-01  0.13003928459E+00  0.18072058123E-01 0.  0.
         14    1    1    2    0    0 -0.29730788205E-02 -0.85197052027E-02  0.21778749803E-01  0.23574106927E-01  0.00000000000E+00 0.  1.
     999901    1    3    3    0    0 -0.27324856415E-01 -0.94950079354E-01 -0.92203568263E-01  0.89031660849E+00  0.88000000000E+00 0.  1.
        -11    1    4    4    0    0  0.21043948780E-01  0.40258752037E-01  0.29640000823E-01  0.54243945889E-01  0.51100000000E-03 0. -1.
         11    1    4    4    0    0  0.92539864564E-02  0.63211032520E-01  0.40784817636E-01  0.75795338697E-01  0.51100000000E-03 0.  1.
</event>
<event>
 8    1  0.1143506E+005  0.1043930E+01  0.7957747E-01            NaN
         13   -1    0    0    0    0  0.00000000000E+00  0.00000000000E+00  0.74505805969E-08  0.10566000000E+00  0.10566000000E+00 0.  1.
     999900   -1    0    0    0    0 -0.00000000000E+00 -0.00000000000E+00 -0.74505805969E-08  0.93827000000E+00  0.93827000000E+00 0. -1.
     999902    2    1    2    0    0  0.78754107104E-02 -0.86510589056E-02  0.21084052539E-01  0.10198177586E+01  0.10195326677E+01 0.  0.
     999903    2    3    3    0    0 -0.70479095990E-01  0.32253584419E-01 -0.99003463561E-01  0.12727440946E+00  0.19735572619E-01 0.  0.
         14    1    1    2    0    0 -0.78754107104E-02  0.86510589056E-02 -0.21084052539E-01  0.24112241404E-01  0.00000000000E+00 0. -1.
     999901    1    3    3    0    0  0.78354506700E-01 -0.40904643325E-01  0.12008751610E+00  0.89254334914E+00  0.88000000000E+00 0.  1.
        -11    1    4    4    0    0 -0.56423777539E-01  0.32156459807E-01 -0.72981736960E-01  0.97694808612E-01  0.51100000000E-03 0.  1.
         11    1    4    4    0    0 -0.14055318452E-01  0.97124611730E-04 -0.26021726601E-01  0.29579600847E-01  0.51100000000E-03 0. -1.
</event>
<event>
 8    1  0.1143506E+005  0.1043930E+01  0.7957747E-01            NaN
         13   -1    0    0    0    0  0.00000000000E+00  0.00000000000E+00  0.74505805969E-08  0.10566000000E+00  0.10566000000E+00 0. -1.
     999900   -1    0    0    0    0 -0.00000000000E+00 -0.00000000000E+00 -0.74505805969E-08  0.93827000000E+00  0.93827000000E+00 0. -1.
     999902    2    1    2    0    0 -0.15481986450E-01  0.14854004346E-01 -0.82453437834E-02  0.10209448082E+01  0.10206860351E+01 0.  0.
     999903    2    3    3    0    0  0.61886038577E-01  0.73183782102E-01  0.86384445818E-01  0.13058366158E+00  0.20101553638E-01 0.  0.
         14    1    1    2    0    0  0.15481986450E-01 -0.14854004346E-01  0.82453437834E-02  0.22985191834E-01  0.00000000000E+00 0.  1.
     999901    1    3    3    0    0 -0.77368025027E-01 -0.58329777756E-01 -0.94629789601E-01  0.89036114659E+00  0.88000000000E+00 0. -1.
        -11    1    4    4    0    0  0.55387473167E-01  0.67735112385E-01  0.84976923901E-01  0.12197194903E+00  0.51100000000E-03 0. -1.
         11    1    4    4    0    0  0.64985654100E-02  0.54486697173E-02  0.14075219167E-02  0.86117125488E-02  0.51100000000E-03 0.  1.
</event>
<event>
 8    1  0.1143506E+005  0.1043930E+01  0.7957747E-01            NaN
         13   -1    0    0    0    0  0.00000000000E+00  0.00000000000E+00  0.74505805969E-08  0.10566000000E+00  0.10566000000E+00 0.  1.
     999900   -1    0    0    0    0 -0.00000000000E+00 -0.00000000000E+00 -0.74505805969E-08  0.93827000000E+00  0.93827000000E+00 0.  1.
     999902    2    1    2    0    0  0.72987708808E-02 -0.86348102095E-02 -0.20587910315E-01  0.10204418316E+01  0.10201714746E+01 0.  0.
     999903    2    3    3    0    0  0.11044709487E+00 -0.21789030246E-01 -0.67950615620E-01  0.13305474802E+00  0.20321348442E-01 0.  0.
         14    1    1    2    0    0 -0.72987708808E-02  0.86348102095E-02  0.20587910315E-01  0.23488168402E-01  0.00000000000E+00 0.  1.
     999901    1    3    3    0    0 -0.10314832399E+00  0.13154220037E-01  0.47362705304E-01  0.88738708358E+00  0.88000000000E+00 0. -1.
        -11    1    4    4    0    0  0.79601777694E-01 -0.22021975493E-01 -0.41578658842E-01  0.92468677987E-01  0.51100000000E-03 0. -1.
         11    1    4    4    0    0  0.30845317179E-01  0.23294524681E-03 -0.26371956778E-01  0.40586070033E-01  0.51100000000E-03 0.  1.
</event>
<event>
 8    1  0.1143506E+005  0.1043930E+01  0.7957747E-01            NaN
         13   -1    0    0    0    0  0.00000000000E+00  0.00000000000E+00  0.74505805969E-08  0.10566000000E+00  0.10566000000E+00 0.  1.
     999900   -1    0    0    0    0 -0.00000000000E+00 -0.00000000000E+00 -0.74505805969E-08  0.93827000000E+00  0.93827000000E+00 0. -1.
     999902    2    1    2    0    0  0.86753709536E-02  0.15998338144E-02 -0.20167554930E-01  0.10219174626E+01  0.10216803554E+01 0.  0.
     999903    2    3    3    0    0  0.12181155457E+00 -0.30716328729E-02  0.47085578112E-01  0.13211714652E+00  0.19758516739E-01 0.  0.
         14    1    1    2    0    0 -0.86753709536E-02 -0.15998338144E-02  0.20167554930E-01  0.22012537366E-01  0.00000000000E+00 0.  1.
     999901    1    3    3    0    0 -0.11313618362E+00  0.46714666873E-02 -0.67253133043E-01  0.88980031611E+00  0.88000000000E+00 0.  1.
        -11    1    4    4    0    0  0.59927890362E-01  0.81767377268E-02  0.25086165405E-01  0.65481202638E-01  0.51100000000E-03 0. -1.
         11    1    4    4    0    0  0.61883664210E-01 -0.11248370600E-01  0.21999412707E-01  0.66635943887E-01  0.51100000000E-03 0.  1.
</event>
<event>
 8    1  0.1143506E+005  0.1043930E+01  0.7957747E-01            NaN
         13   -1    0    0    0    0  0.00000000000E+00  0.00000000000E+00  0.74505805969E-08  0.10566000000E+00  0.10566000000E+00 0. -1.
     999900   -1    0    0    0    0 -0.00000000000E+00 -0.00000000000E+00 -0.74505805969E-08  0.93827000000E+00  0.93827000000E+00 0.  1.
     999902    2    1    2    0    0  0.12764145325E-01  0.15877787809E-01  0.10272678920E-01  0.10211143150E+01  0.10208593873E+01 0.  0.
     999903    2    3    3    0    0 -0.59968936485E-01  0.14653865073E-01 -0.11265038757E+00  0.12959780953E+00  0.17160224725E-01 0.  0.
         14    1    1    2    0    0 -0.12764145325E-01 -0.15877787809E-01 -0.10272678920E-01  0.22815685039E-01  0.00000000000E+00 0.  1.
     999901    1    3    3    0    0  0.72733081810E-01  0.12239227365E-02  0.12292306648E+00  0.89151650543E+00  0.88000000000E+00 0.  1.
        -11    1    4    4    0    0 -0.26040106610E-01  0.93734039725E-02 -0.66839027976E-01  0.72344071188E-01  0.51100000000E-03 0. -1.
         11    1    4    4    0    0 -0.33928829875E-01  0.52804611003E-02 -0.45811359589E-01  0.57253738345E-01  0.51100000000E-03 0.  1.
</event>
<event>
 8    1  0.1143506E+005  0.1043930E+01  0.7957747E-01            NaN
         13   -1    0    0    0    0  0.00000000000E+00  0.00000000000E+00  0.74505805969E-08  0.10566000000E+00  0.10566000000E+00 0. -1.
     999900   -1    0    0    0    0 -0.00000000000E+00 -0.00000000000E+00 -0.74505805969E-08  0.93827000000E+00  0.93827000000E+00 0.  1.
     999902    2    1    2    0    0 -0.13629548482E-01 -0.12508370894E-01  0.73227772298E-02  0.10240340959E+01  0.10238407994E+01 0.  0.
     999903    2    3    3    0    0  0.78592815907E-01  0.77969702972E-01 -0.67970710174E-01  0.13141975834E+00  0.19875365319E-01 0.  0.
         14    1    1    2    0    0  0.13629548482E-01  0.12508370894E-01 -0.73227772298E-02  0.19895904117E-01  0.00000000000E+00 0. -1.
     999901    1    3    3    0    0 -0.92222364390E-01 -0.90478073866E-01  0.75293487404E-01  0.89261433754E+00  0.88000000000E+00 0. -1.
        -11    1    4    4    0    0  0.43082493847E-01  0.50053213124E-01 -0.30577391992E-01  0.72778179711E-01  0.51100000000E-03 0.  1.
         11    1    4    4    0    0  0.35510322061E-01  0.27916489848E-01 -0.37393318182E-01  0.58641578628E-01  0.51100000000E-03 0. -1.
</event>
<event>
 8    1  0.1143506E+005  0.1043930E+01  0.7957747E-01            NaN
         13   -1    0    0    0    0  0.00000000000E+00  0.00000000000E+00  0.74505805969E-08  0.10566000000E+00  0.10566000000E+00 0.  1.
     999900   -1    0    0    0    0 -0.00000000000E+00 -0.00000000000E+00 -0.74505805969E-08  0.93827000000E+00  0.93827000000E+00 0. -1.
     999902    2    1    2    0    0 -0.13326259127E-01 -0.23543991155E-01 -0.12361152297E-01  0.10141859790E+01  0.10137497192E+01 0.  0.
     999903    2    3    3    0    0 -0.17865244586E-02 -0.80481170110E-01 -0.97525145935E-01  0.12816796919E+00  0.20867769971E-01 0.  0.
         14    1    1    2    0    0  0.13326259127E-01  0.23543991155E-01  0.12361152297E-01  0.29744021045E-01  0.00000000000E+00 0.  1.
     999901    1    3    3    0    0 -0.11539734668E-01  0.56937178955E-01  0.85163993639E-01  0.88601800977E+00  0.88000000000E+00 0.  1.
        -11    1    4    4    0    0 -0.43751985878E-02 -0.48115510197E-02 -0.33601502856E-02  0.73379231966E-02  0.51100000000E-03 0. -1.
         11    1    4    4    0    0  0.25886741292E-02 -0.75669619090E-01 -0.94164995650E-01  0.12083004599E+00  0.51100000000E-03 0.  1.
</event>
<event>
 8    1  0.1143506E+005  0.1043930E+01  0.7957747E-01            NaN
         13   -1    0    0    0    0  0.00000000000E+00  0.00000000000E+00  0.74505805969E-08  0.10566000000E+00  0.10566000000E+00 0.  1.
     999900   -1    0    0    0    0 -0.00000000000E+00 -0.00000000000E+00 -0.74505805969E-08  0.93827000000E+00  0.93827000000E+00 0. -1.
     999902    2    1    2    0    0 -0.22075547217E-01  0.10052276553E-01 -0.24320055124E-02  0.10195518807E+01  0.10192603911E+01 0.  0.
     999903    2    3    3    0    0 -0.53891178278E-01 -0.71925435239E-01 -0.92532299265E-01  0.13059145272E+00  0.20356173172E-01 0.  0.
         14    1    1    2    0    0  0.22075547217E-01 -0.10052276553E-01  0.24320055124E-02  0.24378119281E-01  0.00000000000E+00 0. -1.
     999901    1    3    3    0    0  0.31815631061E-01  0.81977711792E-01  0.90100293753E-01  0.88896042800E+00  0.88000000000E+00 0.  1.
        -11    1    4    4    0    0 -0.28558409173E-01 -0.31820527019E-01 -0.30611361640E-01  0.52587500955E-01  0.51100000000E-03 0.  1.
         11    1    4    4    0    0 -0.25332769105E-01 -0.40104908221E-01 -0.61920937625E-01  0.78003951767E-01  0.51100000000E-03 0. -1.
</event>
<event>
 8    1  0.1143506E+005  0.1043930E+01  0.7957747E-01            NaN
         13   -1    0    0    0    0  0.00000000000E+00  0.00000000000E+00  0.74505805969E-08  0.10566000000E+00  0.10566000000E+00 0.  1.
     999900   -1    0    0    0    0 -0.00000000000E+00 -0.00000000000E+00 -0.74505805969E-08  0.93827000000E+00  0.93827000000E+00 0.  1.
     999902    2    1    2    0    0  0.53322451564E-02 -0.12976783126E-01  0.19197122974E-01  0.10201527153E+01  0.10198755822E+01 0.  0.
     999903    2    3    3    0    0 -0.57904055274E-01  0.43047647091E-01  0.10825733336E+00  0.13163187277E+00  0.20032976949E-01 0.  0.
         14    1    1    2    0    0 -0.53322451564E-02  0.12976783126E-01 -0.19197122974E-01  0.23777284731E-01  0.00000000000E+00 0.  1.
     999901    1    3    3    0    0  0.63236300431E-01 -0.56024430218E-01 -0.89060210390E-01  0.88852084250E+00  0.88000000000E+00 0.  1.
        -11    1    4    4    0    0 -0.95031354316E-02  0.17008860685E-01  0.34826741783E-01  0.39909572649E-01  0.51100000000E-03 0. -1.
         11    1    4    4    0    0 -0.48400919843E-01  0.26038786407E-01  0.73430591581E-01  0.91722300124E-01  0.51100000000E-03 0.  1.
</event>
<event>
 7    1  0.1143506E+005  0.1043930E+01  0.7957747E-01            NaN
         13   -1    0    0    0    0  0.00000000000E+00  0.00000000000E+00  0.74505805969E-08  0.10566000000E+00  0.10566000000E+00 0. -1.
     999900   -1    0    0    0    0 -0.00000000000E+00 -0.00000000000E+00 -0.74505805969E-08  0.93827000000E+00  0.93827000000E+00 0. -1.
     999903    2    1    2    0    0 -0.41647695167E-02  0.73950160296E-01  0.29889931568E-02  0.76087652195E-01  0.17158823489E-01 0.  0.
         14    1    1    2    0    0 -0.49863224645E-01  0.20229494950E-01 -0.58435795853E-01  0.79437496656E-01  0.00000000000E+00 0.  1.
     999901    1    1    2    0    0  0.54027994162E-01 -0.94179655246E-01  0.55446802696E-01  0.88840485115E+00  0.88000000000E+00 0.  1.
        -11    1    3    3    0    0 -0.18893477366E-02  0.11668067068E-01 -0.57463043533E-02  0.13152739589E-01  0.51100000000E-03 0. -1.
         11    1    3    3    0    0 -0.22754217801E-02  0.62282093229E-01  0.87352975101E-02  0.62934912607E-01  0.51100000000E-03 0.  1.
</event>
<event>
 8    1  0.1143506E+005  0.1043930E+01  0.7957747E-01            NaN
         13   -1    0    0    0    0  0.00000000000E+00  0.00000000000E+00  0.74505805969E-08  0.10566000000E+00  0.10566000000E+00 0. -1.
     999900   -1    0    0    0    0 -0.00000000000E+00 -0.00000000000E+00 -0.74505805969E-08  0.93827000000E+00  0.93827000000E+00 0. -1.
     999902    2    1    2    0    0 -0.10370349311E-01 -0.20175135435E-01  0.33636104415E-02  0.10209976187E+01  0.10207400469E+01 0.  0.
     999903    2    3    3    0    0  0.26288119362E-02 -0.35689744446E-01 -0.12499331005E+00  0.13145550040E+00  0.19404961129E-01 0.  0.
         14    1    1    2    0    0  0.10370349311E-01  0.20175135435E-01 -0.33636104415E-02  0.22932381251E-01  0.00000000000E+00 0.  1.
     999901    1    3    3    0    0 -0.12999161247E-01  0.15514609011E-01  0.12835692049E+00  0.88954211835E+00  0.88000000000E+00 0.  1.
        -11    1    4    4    0    0  0.16799537470E-03  0.88862947680E-03 -0.23835402317E-01  0.23858026100E-01  0.51100000000E-03 0. -1.
         11    1    4    4    0    0  0.24608165615E-02 -0.36578373923E-01 -0.10115790773E+00  0.10759747430E+00  0.51100000000E-03 0.  1.
</event>
<event>
 8    1  0.1143506E+005  0.1043930E+01  0.7957747E-01            NaN
         13   -1    0    0    0    0  0.00000000000E+00  0.00000000000E+00  0.74505805969E-08  0.10566000000E+00  0.10566000000E+00 0. -1.
     999900   -1    0    0    0    0 -0.00000000000E+00 -0.00000000000E+00 -0.74505805969E-08  0.93827000000E+00  0.93827000000E+00 0. -1.
     999902    2    1    2    0    0  0.22414892324E-01 -0.75479214639E-02  0.35846884593E-02  0.10200082838E+01  0.10197277335E+01 0.  0.
     999903    2    3    3    0    0  0.11942218921E+00 -0.37908314001E-01  0.40850737812E-01  0.13337367609E+00  0.20519628407E-01 0.  0.
         14    1    1    2    0    0 -0.22414892324E-01  0.75479214639E-02 -0.35846884593E-02  0.23921716236E-01  0.00000000000E+00 0.  1.
     999901    1    3    3    0    0 -0.97007296882E-01  0.30360392537E-01 -0.37266049353E-01  0.88663460767E+00  0.88000000000E+00 0. -1.
        -11    1    4    4    0    0  0.77051952620E-01 -0.31956239478E-01  0.33810880914E-01  0.90009118612E-01  0.51100000000E-03 0.  1.
         11    1    4    4    0    0  0.42370236586E-01 -0.59520745230E-02  0.70398568976E-02  0.43364557482E-01  0.51100000000E-03 0. -1.
</event>
<event>
 8    1  0.1143506E+005  0.1043930E+01  0.7957747E-01            NaN
         13   -1    0    0    0    0  0.00000000000E+00  0.00000000000E+00  0.74505805969E-08  0.10566000000E+00  0.10566000000E+00 0.  1.
     999900   -1    0    0    0    0 -0.00000000000E+00 -0.00000000000E+00 -0.74505805969E-08  0.93827000000E+00  0.93827000000E+00 0.  1.
     999902    2    1    2    0    0 -0.62542391233E-02  0.29921289236E-01  0.78244491461E-02  0.10123765365E+01  0.10118846923E+01 0.  0.
     999903    2    3    3    0    0  0.11610092315E-01  0.12466145224E+00  0.39515734448E-02  0.12710266246E+00  0.21545300045E-01 0.  0.
         14    1    1    2    0    0  0.62542391233E-02 -0.29921289236E-01 -0.78244491461E-02  0.31553463534E-01  0.00000000000E+00 0. -1.
     999901    1    3    3    0    0 -0.17864331438E-01 -0.94740163007E-01  0.38728757013E-02  0.88527387400E+00  0.88000000000E+00 0. -1.
        -11    1    4    4    0    0  0.49992476552E-02  0.82236757875E-01 -0.73010486633E-02  0.82713017449E-01  0.51100000000E-03 0.  1.
         11    1    4    4    0    0  0.66108446594E-02  0.42424694368E-01  0.11252622108E-01  0.44389645016E-01  0.51100000000E-03 0. -1.
</event>
<event>
 8    1  0.1143506E+005  0.1043930E+01  0.7957747E-01            NaN
         13   -1    0    0    0    0  0.00000000000E+00  0.00000000000E+00  0.74505805969E-08  0.10566000000E+00  0.10566000000E+00 0. -1.
     999900   -1    0    0    0    0 -0.00000000000E+00 -0.00000000000E+00 -0.74505805969E-08  0.93827000000E+00  0.93827000000E+00 0.  1.
     999902    2    1    2    0    0 -0.39488047509E-02  0.22186497334E-01 -0.75444562166E-02  0.10201654772E+01  0.10198886451E+01 0.  0.
     999903    2    3    3    0    0 -0.11493952373E+00  0.40260579474E-01 -0.48840943678E-01  0.13204892406E+00  0.14814593791E-01 0.  0.
         14    1    1    2    0    0  0.39488047509E-02 -0.22186497334E-01  0.75444562166E-02  0.23764522771E-01  0.00000000000E+00 0. -1.
     999901    1    3    3    0    0  0.11099071898E+00 -0.18074082140E-01  0.41296487461E-01  0.88811655317E+00  0.88000000000E+00 0. -1.
        -11    1    4    4    0    0 -0.79108369781E-01  0.20375031445E-01 -0.33327136765E-01  0.88228313153E-01  0.51100000000E-03 0. -1.
         11    1    4    4    0    0 -0.35831153952E-01  0.19885548029E-01 -0.15513806912E-01  0.43820610902E-01  0.51100000000E-03 0.  1.
</event>
<event>
 8    1  0.1143506E+005  0.1043930E+01  0.7957747E-01            NaN
         13   -1    0    0    0    0  0.00000000000E+00  0.00000000000E+00  0.74505805969E-08  0.10566000000E+00  0.10566000000E+00 0.  1.
     999900   -1    0    0    0    0 -0.00000000000E+00 -0.00000000000E+00 -0.74505805969E-08  0.93827000000E+00  0.93827000000E+00 0.  1.
     999902    2    1    2    0    0  0.20170798829E-01 -0.80749404033E-02  0.63886960192E-02  0.10212831189E+01  0.10210319915E+01 0.  0.
     999903    2    3    3    0    0  0.89214756790E-01 -0.12012608380E-01 -0.95658452847E-01  0.13269086483E+00  0.18781651108E-01 0.  0.
         14    1    1    2    0    0 -0.20170798829E-01  0.80749404033E-02 -0.63886960192E-02  0.22646881126E-01  0.00000000000E+00 0. -1.
     999901    1    3    3    0    0 -0.69043957962E-01  0.39376679771E-02  0.10204714887E+00  0.88859225405E+00  0.88000000000E+00 0. -1.
        -11    1    4    4    0    0  0.97083542581E-02 -0.59380910530E-02 -0.18537997379E-01  0.21758481923E-01  0.51100000000E-03 0. -1.
         11    1    4    4    0    0  0.79506402532E-01 -0.60745173273E-02 -0.77120455468E-01  0.11093238290E+00  0.51100000000E-03 0.  1.
</event>
<event>
 8    1  0.1143506E+005  0.1043930E+01  0.7957747E-01            NaN
         13   -1    0    0    0    0  0.00000000000E+00  0.00000000000E+00  0.74505805969E-08  0.10566000000E+00  0.10566000000E+00 0. -1.
     999900   -1    0    0    0    0 -0.00000000000E+00 -0.00000000000E+00 -0.74505805969E-08  0.93827000000E+00  0.93827000000E+00 0. -1.
     999902    2    1    2    0    0 -0.66017339855E-02 -0.10431266424E-02 -0.22236947657E-01  0.10207103349E+01  0.10204461941E+01 0.  0.
     999903    2    3    3    0    0  0.12119875230E+00  0.30205760232E-01 -0.33061849101E-01  0.13086392362E+00  0.20754641146E-01 0.  0.
         14    1    1    2    0    0  0.66017339855E-02  0.10431266424E-02  0.22236947657E-01  0.23219665069E-01  0.00000000000E+00 0. -1.
     999901    1    3    3    0    0 -0.12780048629E+00 -0.31248886875E-01  0.10824901445E-01  0.88984641131E+00  0.88000000000E+00 0.  1.
        -11    1    4    4    0    0  0.70523731779E-01  0.11117074691E-01 -0.27167699849E-01  0.76390648183E-01  0.51100000000E-03 0.  1.
         11    1    4    4    0    0  0.50675020524E-01  0.19088685542E-01 -0.58941492523E-02  0.54473275441E-01  0.51100000000E-03 0. -1.
</event>
<event>
 8    1  0.1143506E+005  0.1043930E+01  0.7957747E-01            NaN
         13   -1    0    0    0    0  0.00000000000E+00  0.00000000000E+00  0.74505805969E-08  0.10566000000E+00  0.10566000000E+00 0. -1.
     999900   -1    0    0    0    0 -0.00000000000E+00 -0.00000000000E+00 -0.74505805969E-08  0.93827000000E+00  0.93827000000E+00 0. -1.
     999902    2    1    2    0    0  0.37514562600E-02  0.23162056273E-01 -0.43054591887E-02  0.10200743664E+01  0.10197953823E+01 0.  0.
     999903    2    3    3    0    0  0.66208717562E-01 -0.10781830644E+00  0.75583069040E-02  0.12811163521E+00  0.18630125824E-01 0.  0.
         14    1    1    2    0    0 -0.37514562600E-02 -0.23162056273E-01  0.43054591887E-02  0.23855633584E-01  0.00000000000E+00 0.  1.
     999901    1    3    3    0    0 -0.62457261302E-01  0.13098036272E+00 -0.11863766093E-01  0.89196273120E+00  0.88000000000E+00 0.  1.
        -11    1    4    4    0    0  0.56972132896E-01 -0.78710256511E-01  0.86370717391E-02  0.97549928426E-01  0.51100000000E-03 0. -1.
         11    1    4    4    0    0  0.92365846666E-02 -0.29108049934E-01 -0.10787648351E-02  0.30561706789E-01  0.51100000000E-03 0.  1.
</event>
<event>
 7    1  0.1143506E+005  0.1043930E+01  0.7957747E-01            NaN
         13   -1    0    0    0    0  0.00000000000E+00  0.00000000000E+00  0.74505805969E-08  0.10566000000E+00  0.10566000000E+00 0.  1.
     999900   -1    0    0    0    0 -0.00000000000E+00 -0.00000000000E+00 -0.74505805969E-08  0.93827000000E+00  0.93827000000E+00 0.  1.
     999903    2    1    2    0    0 -0.20752319425E-01  0.22807543690E-01  0.99959948778E-01  0.10650860652E+00  0.20031202979E-01 0.  0.
         14    1    1    2    0    0 -0.32025279520E-01  0.29766800800E-01  0.16283425779E-01  0.46656520587E-01  0.00000000000E+00 0. -1.
     999901    1    1    2    0    0  0.52777598945E-01 -0.52574344490E-01 -0.11624337456E+00  0.89076487289E+00  0.88000000000E+00 0.  1.
        -11    1    3    3    0    0 -0.13955169966E-01  0.20340856799E-02  0.50443464416E-01  0.52380230017E-01  0.51100000000E-03 0. -1.
         11    1    3    3    0    0 -0.67971494586E-02  0.20773458010E-01  0.49516484361E-01  0.54128376504E-01  0.51100000000E-03 0.  1.
</event>
<event>
 8    1  0.1143506E+005  0.1043930E+01  0.7957747E-01            NaN
         13   -1    0    0    0    0  0.00000000000E+00  0.00000000000E+00  0.74505805969E-08  0.10566000000E+00  0.10566000000E+00 0. -1.
     999900   -1    0    0    0    0 -0.00000000000E+00 -0.00000000000E+00 -0.74505805969E-08  0.93827000000E+00  0.93827000000E+00 0. -1.
     999902    2    1    2    0    0 -0.17579095222E-01 -0.44940505906E-02 -0.15486027823E-01  0.10200754797E+01  0.10197965220E+01 0.  0.
     999903    2    3    3    0    0  0.12500851246E+00 -0.12579685138E-01  0.13340821811E-01  0.12809588881E+00  0.21099823184E-01 0.  0.
         14    1    1    2    0    0  0.17579095222E-01  0.44940505906E-02  0.15486027823E-01  0.23854520269E-01  0.00000000000E+00 0. -1.
     999901    1    3    3    0    0 -0.14258760768E+00  0.80856345473E-02 -0.28826849633E-01  0.89197959092E+00  0.88000000000E+00 0. -1.
        -11    1    4    4    0    0  0.71760679058E-01  0.81799738389E-04  0.16433421245E-04  0.71762546924E-01  0.51100000000E-03 0.  1.
         11    1    4    4    0    0  0.53247833405E-01 -0.12661484876E-01  0.13324388389E-01  0.56333341890E-01  0.51100000000E-03 0. -1.
</event>
<event>
 8    1  0.1143506E+005  0.1043930E+01  0.7957747E-01            NaN
         13   -1    0    0    0    0  0.00000000000E+00  0.00000000000E+00  0.74505805969E-08  0.10566000000E+00  0.10566000000E+00 0.  1.
     999900   -1    0    0    0    0 -0.00000000000E+00 -0.00000000000E+00 -0.74505805969E-08  0.93827000000E+00  0.93827000000E+00 0. -1.
     999902    2    1    2    0    0  0.16017133979E-01 -0.52547690833E-02  0.15857472693E-01  0.10207865210E+01  0.10205241305E+01 0.  0.
     999903    2    3    3    0    0  0.24573622430E-01  0.55611766087E-01  0.11662896005E+00  0.13290542467E+00  0.19105133766E-01 0.  0.
         14    1    1    2    0    0 -0.16017133979E-01  0.52547690833E-02 -0.15857472693E-01  0.23143478978E-01  0.00000000000E+00 0. -1.
     999901    1    3    3    0    0 -0.85564884512E-02 -0.60866535170E-01 -0.10077148736E+00  0.88788109635E+00  0.88000000000E+00 0. -1.
        -11    1    4    4    0    0  0.18228260790E-01  0.40474502392E-01  0.64882622082E-01  0.78615969145E-01  0.51100000000E-03 0. -1.
         11    1    4    4    0    0  0.63453616404E-02  0.15137263695E-01  0.51746337971E-01  0.54289455523E-01  0.51100000000E-03 0.  1.
</event>
<event>
 8    1  0.1143506E+005  0.1043930E+01  0.7957747E-01            NaN
         13   -1    0    0    0    0  0.00000000000E+00  0.00000000000E+00  0.74505805969E-08  0.10566000000E+00  0.10566000000E+00 0. -1.
     999900   -1    0    0    0    0 -0.00000000000E+00 -0.00000000000E+00 -0.74505805969E-08  0.93827000000E+00  0.93827000000E+00 0.  1.
     999902    2    1    2    0    0  0.15804173495E-01  0.77437404811E-03  0.17719154316E-01  0.10201741589E+01  0.10198975314E+01 0.  0.
     999903    2    3    3    0    0  0.82353035558E-01  0.67166694147E-01 -0.72991449247E-01  0.13053091313E+00  0.20424993285E-01 0.  0.
         14    1    1    2    0    0 -0.15804173495E-01 -0.77437404811E-03 -0.17719154316E-01  0.23755841065E-01  0.00000000000E+00 0. -1.
     999901    1    3    3    0    0 -0.66548862063E-01 -0.66392320099E-01  0.90710603563E-01  0.88964324581E+00  0.88000000000E+00 0. -1.
        -11    1    4    4    0    0  0.48554026474E-01  0.51696381824E-01 -0.50738368577E-01  0.87204658978E-01  0.51100000000E-03 0. -1.
         11    1    4    4    0    0  0.33799009084E-01  0.15470312323E-01 -0.22253080670E-01  0.43326254151E-01  0.51100000000E-03 0.  1.
</event>
<event>
 8    1  0.1143506E+005  0.1043930E+01  0.7957747E-01            NaN
         13   -1    0    0    0    0  0.00000000000E+00  0.00000000000E+00  0.74505805969E-08  0.10566000000E+00  0.10566000000E+00 0. -1.
     999900   -1    0    0    0    0 -0.00000000000E+00 -0.00000000000E+00 -0.74505805969E-08  0.93827000000E+00  0.93827000000E+00 0.  1.
     999902    2    1    2    0    0  0.27948738724E-02 -0.59865251616E-02 -0.22932191048E-01  0.10200650636E+01  0.10197858593E+01 0.  0.
     999903    2    3    3    0    0 -0.11435181556E+00  0.10987964214E-01 -0.60310296911E-01  0.13135329764E+00  0.20476420787E-01 0.  0.
         14    1    1    2    0    0 -0.27948738724E-02  0.59865251616E-02  0.22932191048E-01  0.23864936408E-01  0.00000000000E+00 0. -1.
     999901    1    3    3    0    0  0.11714668944E+00 -0.16974489376E-01  0.37378105863E-01  0.88871176595E+00  0.88000000000E+00 0. -1.
        -11    1    4    4    0    0 -0.10443167986E-01  0.52807340307E-02 -0.11476201343E-01  0.16398482483E-01  0.51100000000E-03 0. -1.
         11    1    4    4    0    0 -0.10390864758E+00  0.57072301837E-02 -0.48834095568E-01  0.11495481516E+00  0.51100000000E-03 0.  1.
</event>
<event>
 8    1  0.1143506E+005  0.1043930E+01  0.7957747E-01            NaN
         13   -1    0    0    0    0  0.00000000000E+00  0.00000000000E+00  0.74505805969E-08  0.10566000000E+00  0.10566000000E+00 0.  1.
     999900   -1    0    0    0    0 -0.00000000000E+00 -0.00000000000E+00 -0.74505805969E-08  0.93827000000E+00  0.93827000000E+00 0. -1.
     999902    2    1    2    0    0  0.16594606550E-01  0.11256665263E-01 -0.11413936828E-01  0.10208568244E+01  0.10205960437E+01 0.  0.
     999903    2    3    3    0    0 -0.76505717705E-01  0.10407925305E+00 -0.10126808693E-01  0.13108979876E+00  0.19908976063E-01 0.  0.
         14    1    1    2    0    0 -0.16594606550E-01 -0.11256665263E-01  0.11413936828E-01  0.23073175623E-01  0.00000000000E+00 0.  1.
     999901    1    3    3    0    0  0.93100324255E-01 -0.92822587784E-01 -0.12871281354E-02  0.88976702562E+00  0.88000000000E+00 0. -1.
        -11    1    4    4    0    0 -0.30680312476E-01  0.55708842186E-01  0.57528911465E-03  0.63603056136E-01  0.51100000000E-03 0. -1.
         11    1    4    4    0    0 -0.45825405229E-01  0.48370410861E-01 -0.10702097807E-01  0.67486742622E-01  0.51100000000E-03 0.  1.
</event>
<event>
 8    1  0.1143506E+005  0.1043930E+01  0.7957747E-01            NaN
         13   -1    0    0    0    0  0.00000000000E+00  0.00000000000E+00  0.74505805969E-08  0.10566000000E+00  0.10566000000E+00 0.  1.
     999900   -1    0    0    0    0 -0.00000000000E+00 -0.00000000000E+00 -0.74505805969E-08  0.93827000000E+00  0.93827000000E+00 0. -1.
     999902    2    1    2    0    0 -0.26031487134E-03 -0.11138582534E-01  0.20864044322E-01  0.10202774287E+01  0.10200032291E+01 0.  0.
     999903    2    3    3    0    0 -0.35231983400E-01 -0.12356856649E+00 -0.19200211902E-01  0.13153187256E+00  0.20530515914E-01 0.  0.
         14    1    1    2    0    0  0.26031487134E-03  0.11138582534E-01 -0.20864044322E-01  0.23652571322E-01  0.00000000000E+00 0. -1.
     999901    1    3    3    0    0  0.34971668529E-01  0.11242998395E+00  0.40064256224E-01  0.88874555612E+00  0.88000000000E+00 0. -1.
        -11    1    4    4    0    0 -0.17687660704E-01 -0.94603666302E-01 -0.14945946647E-01  0.97397892488E-01  0.51100000000E-03 0. -1.
         11    1    4    4    0    0 -0.17544322696E-01 -0.28964900187E-01 -0.42542652556E-02  0.34133980072E-01  0.51100000000E-03 0.  1.
</event>
<event>
 8    1  0.1143506E+005  0.1043930E+01  0.7957747E-01            NaN
         13   -1    0    0    0    0  0.00000000000E+00  0.00000000000E+00  0.74505805969E-08  0.10566000000E+00  0.10566000000E+00 0.  1.
     999900   -1    0    0    0    0 -0.00000000000E+00 -0.00000000000E+00 -0.74505805969E-08  0.93827000000E+00  0.93827000000E+00 0. -1.
     999902    2    1    2    0    0  0.25944685418E-01 -0.53186012699E-03 -0.31017189928E-02  0.10177951528E+01  0.10174595534E+01 0.  0.
     999903    2    3    3    0    0  0.50019848257E-02 -0.41327028925E-01  0.11957851242E+00  0.12810235095E+00  0.19448612175E-01 0.  0.
         14    1    1    2    0    0 -0.25944685418E-01  0.53186012699E-03  0.31017189928E-02  0.26134847184E-01  0.00000000000E+00 0. -1.
     999901    1    3    3    0    0  0.20942700592E-01  0.40795168798E-01 -0.12268023141E+00  0.88969280186E+00  0.88000000000E+00 0. -1.
        -11    1    4    4    0    0 -0.73746579596E-02 -0.13073408639E-01  0.42754413584E-01  0.45315566811E-01  0.51100000000E-03 0. -1.
         11    1    4    4    0    0  0.12376642785E-01 -0.28253620287E-01  0.76824098835E-01  0.82786784143E-01  0.51100000000E-03 0.  1.
</event>
<event>
 8    1  0.1143506E+005  0.1043930E+01  0.7957747E-01            NaN
         13   -1    0    0    0    0  0.00000000000E+00  0.00000000000E+00  0.74505805969E-08  0.10566000000E+00  0.10566000000E+00 0. -1.
     999900   -1    0    0    0    0 -0.00000000000E+00 -0.00000000000E+00 -0.74505805969E-08  0.93827000000E+00  0.93827000000E+00 0.  1.
     999902    2    1    2    0    0 -0.10473503540E-01  0.13677779637E-01 -0.15559651886E-01  0.10207162390E+01  0.10204522340E+01 0.  0.
     999903    2    3    3    0    0 -0.96360040437E-01 -0.56271668726E-01 -0.67882423854E-01  0.13223039500E+00  0.20617851488E-01 0.  0.
         14    1    1    2    0    0  0.10473503540E-01 -0.13677779637E-01  0.15559651886E-01  0.23213760984E-01  0.00000000000E+00 0. -1.
     999901    1    3    3    0    0  0.85886536897E-01  0.69949448363E-01  0.52322771967E-01  0.88848584401E+00  0.88000000000E+00 0. -1.
        -11    1    4    4    0    0 -0.45203982322E-02 -0.68680475586E-02 -0.10006444442E-01  0.12961254909E-01  0.51100000000E-03 0. -1.
         11    1    4    4    0    0 -0.91839642205E-01 -0.49403621167E-01 -0.57875979412E-01  0.11926914009E+00  0.51100000000E-03 0.  1.
</event>
<event>
 8    1  0.1143506E+005  0.1043930E+01  0.7957747E-01            NaN
         13   -1    0    0    0    0  0.00000000000E+00  0.00000000000E+00  0.74505805969E-08  0.10566000000E+00  0.10566000000E+00 0.  1.
     999900   -1    0    0    0    0 -0.00000000000E+00 -0.00000000000E+00 -0.74505805969E-08  0.93827000000E+00  0.93827000000E+00 0. -1.
     999902    2    1    2    0    0  0.12378523700E-01 -0.16008809123E-01 -0.13602321735E-01  0.10195469531E+01  0.10192553442E+01 0.  0.
     999903    2    3    3    0    0  0.27952936904E-01  0.12327896269E+00 -0.10356032813E-01  0.12844977317E+00  0.20323077764E-01 0.  0.
         14    1    1    2    0    0 -0.12378523700E-01  0.16008809123E-01  0.13602321735E-01  0.24383046879E-01  0.00000000000E+00 0.  1.
     999901    1    3    3    0    0 -0.15574413204E-01 -0.13928777181E+00 -0.32462889220E-02  0.89109717995E+00  0.88000000000E+00 0.  1.
        -11    1    4    4    0    0  0.20691262574E-01  0.58813017811E-01 -0.12275880217E-01  0.63545713995E-01  0.51100000000E-03 0. -1.
         11    1    4    4    0    0  0.72616743300E-02  0.64465944874E-01  0.19198474036E-02  0.64904059177E-01  0.51100000000E-03 0.  1.
</event>
<event>
 8    1  0.1143506E+005  0.1043930E+01  0.7957747E-01            NaN
         13   -1    0    0    0    0  0.00000000000E+00  0.00000000000E+00  0.74505805969E-08  0.10566000000E+00  0.10566000000E+00 0. -1.
     999900   -1    0    0    0    0 -0.00000000000E+00 -0.00000000000E+00 -0.74505805969E-08  0.93827000000E+00  0.93827000000E+00 0.  1.
     999902    2    1    2    0    0 -0.12474613594E-01  0.18185319283E-01  0.10951184973E-01  0.10193078499E+01  0.10190104232E+01 0.  0.
     999903    2    3    3    0    0  0.83585098807E-01  0.83250008955E-01  0.50205380556E-01  0.13082500032E+00  0.26030131330E-01 0.  0.
         14    1    1    2    0    0  0.12474613594E-01 -0.18185319283E-01 -0.10951184973E-01  0.24622150070E-01  0.00000000000E+00 0.  1.
     999901    1    3    3    0    0 -0.96059712402E-01 -0.65064689672E-01 -0.39254195583E-01  0.88848284961E+00  0.88000000000E+00 0. -1.
        -11    1    4    4    0    0  0.34031258040E-01  0.19102591005E-01  0.97421137456E-02  0.40226923920E-01  0.51100000000E-03 0.  1.
         11    1    4    4    0    0  0.49553840768E-01  0.64147417950E-01  0.40463266810E-01  0.90598076395E-01  0.51100000000E-03 0. -1.
</event>
<event>
 8    1  0.1143506E+005  0.1043930E+01  0.7957747E-01            NaN
         13   -1    0    0    0    0  0.00000000000E+00  0.00000000000E+00  0.74505805969E-08  0.10566000000E+00  0.10566000000E+00 0.  1.
     999900   -1    0    0    0    0 -0.00000000000E+00 -0.00000000000E+00 -0.74505805969E-08  0.93827000000E+00  0.93827000000E+00 0.  1.
     999902    2    1    2    0    0 -0.66874358625E-02 -0.13423236435E-01 -0.19096158106E-01  0.10196489718E+01  0.10193598273E+01 0.  0.
     999903    2    3    3    0    0 -0.64818099746E-02  0.67987295387E-02 -0.13045020336E+00  0.13240115211E+00  0.20605167842E-01 0.  0.
         14    1    1    2    0    0  0.66874358625E-02  0.13423236435E-01  0.19096158106E-01  0.24281028174E-01  0.00000000000E+00 0. -1.
     999901    1    3    3    0    0 -0.20562588785E-03 -0.20221965974E-01  0.11135404525E+00  0.88724781971E+00  0.88000000000E+00 0. -1.
        -11    1    4    4    0    0 -0.49454498075E-02  0.14067829263E-01 -0.96240191722E-01  0.97389922054E-01  0.51100000000E-03 0.  1.
         11    1    4    4    0    0 -0.15363601671E-02 -0.72690997246E-02 -0.34210011633E-01  0.35011230060E-01  0.51100000000E-03 0. -1.
</event>
<event>
 8    1  0.1143506E+005  0.1043930E+01  0.7957747E-01            NaN
         13   -1    0    0    0    0  0.00000000000E+00  0.00000000000E+00  0.74505805969E-08  0.10566000000E+00  0.10566000000E+00 0.  1.
     999900   -1    0    0    0    0 -0.00000000000E+00 -0.00000000000E+00 -0.74505805969E-08  0.93827000000E+00  0.93827000000E+00 0. -1.
     999902    2    1    2    0    0  0.19785489007E-02 -0.85473751626E-02 -0.22087063438E-01  0.10201642547E+01  0.10198873938E+01 0.  0.
     999903    2    3    3    0    0  0.12396668615E+00  0.26087528984E-01 -0.27444129978E-01  0.13105831030E+00  0.19359803351E-01 0.  0.
         14    1    1    2    0    0 -0.19785489007E-02  0.85473751626E-02  0.22087063438E-01  0.23765745291E-01  0.00000000000E+00 0.  1.
     999901    1    3    3    0    0 -0.12198813725E+00 -0.34634904147E-01  0.53570665400E-02  0.88910594441E+00  0.88000000000E+00 0. -1.
        -11    1    4    4    0    0  0.82447433033E-01  0.23115687381E-01 -0.11135652610E-01  0.86349163845E-01  0.51100000000E-03 0. -1.
         11    1    4    4    0    0  0.41519253118E-01  0.29718416039E-02 -0.16308477368E-01  0.44709146458E-01  0.51100000000E-03 0.  1.
</event>
<event>
 8    1  0.1143506E+005  0.1043930E+01  0.7957747E-01            NaN
         13   -1    0    0    0    0  0.00000000000E+00  0.00000000000E+00  0.74505805969E-08  0.10566000000E+00  0.10566000000E+00 0. -1.
     999900   -1    0    0    0    0 -0.00000000000E+00 -0.00000000000E+00 -0.74505805969E-08  0.93827000000E+00  0.93827000000E+00 0. -1.
     999902    2    1    2    0    0  0.64902034520E-03  0.15041348622E-01  0.32732497948E-01  0.10079011252E+01  0.10072569674E+01 0.  0.
     999903    2    3    3    0    0 -0.89010067037E-01 -0.50439572916E-01 -0.52477516470E-01  0.11684150343E+00  0.20763059473E-01 0.  0.
         14    1    1    2    0    0 -0.64902034520E-03 -0.15041348622E-01 -0.32732497948E-01  0.36028874777E-01  0.00000000000E+00 0.  1.
     999901    1    3    3    0    0  0.89659087382E-01  0.65480921538E-01  0.85210014418E-01  0.89105962179E+00  0.88000000000E+00 0. -1.
        -11    1    4    4    0    0 -0.32913064925E-01 -0.25527425313E-01 -0.12127831898E-01  0.43385074777E-01  0.51100000000E-03 0. -1.
         11    1    4    4    0    0 -0.56097002112E-01 -0.24912147603E-01 -0.40349684572E-01  0.73456428651E-01  0.51100000000E-03 0.  1.
</event>
<event>
 8    1  0.1143506E+005  0.1043930E+01  0.7957747E-01            NaN
         13   -1    0    0    0    0  0.00000000000E+00  0.00000000000E+00  0.74505805969E-08  0.10566000000E+00  0.10566000000E+00 0.  1.
     999900   -1    0    0    0    0 -0.00000000000E+00 -0.00000000000E+00 -0.74505805969E-08  0.93827000000E+00  0.93827000000E+00 0. -1.
     999902    2    1    2    0    0 -0.10957449366E-01  0.16292069242E-01  0.13967003079E-01  0.10198348886E+01  0.10195502075E+01 0.  0.
     999903    2    3    3    0    0  0.12359224578E+00 -0.98935111502E-02 -0.26251386639E-01  0.12831549795E+00  0.20070050704E-01 0.  0.
         14    1    1    2    0    0  0.10957449366E-01 -0.16292069242E-01 -0.13967003079E-01  0.24095111367E-01  0.00000000000E+00 0.  1.
     999901    1    3    3    0    0 -0.13454969514E+00  0.26185580392E-01  0.40218389718E-01  0.89151939068E+00  0.88000000000E+00 0. -1.
        -11    1    4    4    0    0  0.84607132890E-01 -0.16078143756E-01 -0.18394567114E-01  0.88065287502E-01  0.51100000000E-03 0.  1.
         11    1    4    4    0    0  0.38985112889E-01  0.61846326053E-02 -0.78568195250E-02  0.40250210453E-01  0.51100000000E-03 0. -1.
</event>
<event>
 8    1  0.1143506E+005  0.1043930E+01  0.7957747E-01            NaN
         13   -1    0    0    0    0  0.00000000000E+00  0.00000000000E+00  0.74505805969E-08  0.10566000000E+00  0.10566000000E+00 0. -1.
     999900   -1    0    0    0    0 -0.00000000000E+00 -0.00000000000E+00 -0.74505805969E-08  0.93827000000E+00  0.93827000000E+00 0.  1.
     999902    2    1    2    0    0  0.86662173655E-02  0.21949624122E-01 -0.43700568381E-02  0.10199302767E+01  0.10196478719E+01 0.  0.
     999903    2    3    3    0    0 -0.40688995375E-01 -0.28248898564E-01  0.11720235858E+00  0.12878736957E+00  0.19904750437E-01 0.  0.
         14    1    1    2    0    0 -0.86662173655E-02 -0.21949624122E-01  0.43700568381E-02  0.23999723317E-01  0.00000000000E+00 0. -1.
     999901    1    3    3    0    0  0.49355212740E-01  0.50198522686E-01 -0.12157241542E+00  0.89114290711E+00  0.88000000000E+00 0.  1.
        -11    1    4    4    0    0 -0.31759103400E-01 -0.14602785061E-01  0.95046941139E-01  0.10127222779E+00  0.51100000000E-03 0. -1.
         11    1    4    4    0    0 -0.89298919744E-02 -0.13646113503E-01  0.22155417441E-01  0.27515141784E-01  0.51100000000E-03 0.  1.
</event>
<event>
 8    1  0.1143506E+005  0.1043930E+01  0.7957747E-01            NaN
         13   -1    0    0    0    0  0.00000000000E+00  0.00000000000E+00  0.74505805969E-08  0.10566000000E+00  0.10566000000E+00 0.  1.
     999900   -1    0    0    0    0 -0.00000000000E+00 -0.00000000000E+00 -0.74505805969E-08  0.93827000000E+00  0.93827000000E+00 0.  1.
     999902    2    1    2    0    0 -0.60447971589E-02 -0.66372260601E-02  0.24391496918E-01  0.10179388964E+01  0.10176070260E+01 0.  0.
     999903    2    3    3    0    0 -0.34460383688E-01 -0.20211108864E-01 -0.11798051572E+00  0.12594030572E+00  0.18589016948E-01 0.  0.
         14    1    1    2    0    0  0.60447971589E-02  0.66372260601E-02 -0.24391496918E-01  0.25991103562E-01  0.00000000000E+00 0. -1.
     999901    1    3    3    0    0  0.28415586529E-01  0.13573882804E-01  0.14237201264E+00  0.89199859071E+00  0.88000000000E+00 0. -1.
        -11    1    4    4    0    0 -0.30036150958E-01 -0.22271017462E-01 -0.88842587862E-01  0.96392090558E-01  0.51100000000E-03 0. -1.
         11    1    4    4    0    0 -0.44242327298E-02  0.20599085976E-02 -0.29137927858E-01  0.29548215167E-01  0.51100000000E-03 0.  1.
</event>
<event>
 8    1  0.1143506E+005  0.1043930E+01  0.7957747E-01            NaN
         13   -1    0    0    0    0  0.00000000000E+00  0.00000000000E+00  0.74505805969E-08  0.10566000000E+00  0.10566000000E+00 0. -1.
     999900   -1    0    0    0    0 -0.00000000000E+00 -0.00000000000E+00 -0.74505805969E-08  0.93827000000E+00  0.93827000000E+00 0. -1.
     999902    2    1    2    0    0  0.11256003899E-03 -0.15436443985E-01  0.17738026628E-01  0.10204154500E+01  0.10201444783E+01 0.  0.
     999903    2    3    3    0    0  0.99419140732E-01 -0.70536669866E-01 -0.43594914164E-01  0.13100015810E+00  0.20023424795E-01 0.  0.
         14    1    1    2    0    0 -0.11256003899E-03  0.15436443985E-01 -0.17738026628E-01  0.23514549992E-01  0.00000000000E+00 0.  1.
     999901    1    3    3    0    0 -0.99306580693E-01  0.55100225881E-01  0.61332940792E-01  0.88941529191E+00  0.88000000000E+00 0.  1.
        -11    1    4    4    0    0  0.16003253088E-01 -0.75915623666E-02 -0.13423557918E-01  0.22230361147E-01  0.51100000000E-03 0. -1.
         11    1    4    4    0    0  0.83415887644E-01 -0.62945107499E-01 -0.30171356246E-01  0.10876979695E+00  0.51100000000E-03 0.  1.
</event>
<event>
 8    1  0.1143506E+005  0.1043930E+01  0.7957747E-01            NaN
         13   -1    0    0    0    0  0.00000000000E+00  0.00000000000E+00  0.74505805969E-08  0.10566000000E+00  0.10566000000E+00 0. -1.
     999900   -1    0    0    0    0 -0.00000000000E+00 -0.00000000000E+00 -0.74505805969E-08  0.93827000000E+00  0.93827000000E+00 0.  1.
     999902    2    1    2    0    0 -0.13833856654E-01 -0.12229804301E-01 -0.16460917298E-01  0.10191932763E+01  0.10188930409E+01 0.  0.
     999903    2    3    3    0    0 -0.72437714350E-01  0.98607914280E-01 -0.38720103930E-01  0.13002800288E+00  0.20911524697E-01 0.  0.
         14    1    1    2    0    0  0.13833856654E-01  0.12229804301E-01  0.16460917298E-01  0.24736723741E-01  0.00000000000E+00 0. -1.
     999901    1    3    3    0    0  0.58603857696E-01 -0.11083771858E+00  0.22259186631E-01  0.88916527338E+00  0.88000000000E+00 0.  1.
        -11    1    4    4    0    0 -0.30922355129E-01  0.52176051328E-01 -0.28083043187E-01  0.66838991723E-01  0.51100000000E-03 0.  1.
         11    1    4    4    0    0 -0.41515359221E-01  0.46431862952E-01 -0.10637060742E-01  0.63189011154E-01  0.51100000000E-03 0. -1.
</event>
<event>
 8    1  0.1143506E+005  0.1043930E+01  0.7957747E-01            NaN
         13   -1    0    0    0    0  0.00000000000E+00  0.00000000000E+00  0.74505805969E-08  0.10566000000E+00  0.10566000000E+00 0.  1.
     999900   -1    0    0    0    0 -0.00000000000E+00 -0.00000000000E+00 -0.74505805969E-08  0.93827000000E+00  0.93827000000E+00 0.  1.
     999902    2    1    2    0    0  0.17689096421E-01 -0.15563217412E-01 -0.23485685502E-03  0.10203678900E+01  0.10200958082E+01 0.  0.
     999903    2    3    3    0    0  0.84572807042E-01 -0.64129270240E-02  0.99550729133E-01  0.13215940002E+00  0.19028242648E-01 0.  0.
         14    1    1    2    0    0 -0.17689096421E-01  0.15563217412E-01  0.23485685502E-03  0.23562109968E-01  0.00000000000E+00 0. -1.
     999901    1    3    3    0    0 -0.66883710621E-01 -0.91502903878E-02 -0.99785585988E-01  0.88820849001E+00  0.88000000000E+00 0.  1.
        -11    1    4    4    0    0  0.40828929516E-01 -0.11890933928E-01  0.43336689945E-01  0.60718412459E-01  0.51100000000E-03 0. -1.
         11    1    4    4    0    0  0.43743877527E-01  0.54780069042E-02  0.56214039188E-01  0.71440987560E-01  0.51100000000E-03 0.  1.
</event>
<event>
 8    1  0.1143506E+005  0.1043930E+01  0.7957747E-01            NaN
         13   -1    0    0    0    0  0.00000000000E+00  0.00000000000E+00  0.74505805969E-08  0.10566000000E+00  0.10566000000E+00 0. -1.
     999900   -1    0    0    0    0 -0.00000000000E+00 -0.00000000000E+00 -0.74505805969E-08  0.93827000000E+00  0.93827000000E+00 0.  1.
     999902    2    1    2    0    0 -0.22127673063E-01 -0.56833998117E-02  0.19103139895E-01  0.10141497229E+01  0.10137123831E+01 0.  0.
     999903    2    3    3    0    0  0.96303876144E-01 -0.54040014898E-01 -0.48688516416E-01  0.12232008520E+00  0.19921642541E-01 0.  0.
         14    1    1    2    0    0  0.22127673063E-01  0.56833998117E-02 -0.19103139895E-01  0.29780277071E-01  0.00000000000E+00 0.  1.
     999901    1    3    3    0    0 -0.11843154921E+00  0.48356615086E-01  0.67791656311E-01  0.89182963773E+00  0.88000000000E+00 0.  1.
        -11    1    4    4    0    0  0.59117620248E-01 -0.21856746835E-01 -0.27338352550E-01  0.68704126857E-01  0.51100000000E-03 0. -1.
         11    1    4    4    0    0  0.37186255896E-01 -0.32183268062E-01 -0.21350163866E-01  0.53615958341E-01  0.51100000000E-03 0.  1.
</event>
<event>
 8    1  0.1143506E+005  0.1043930E+01  0.7957747E-01            NaN
         13   -1    0    0    0    0  0.00000000000E+00  0.00000000000E+00  0.74505805969E-08  0.10566000000E+00  0.10566000000E+00 0. -1.
     999900   -1    0    0    0    0 -0.00000000000E+00 -0.00000000000E+00 -0.74505805969E-08  0.93827000000E+00  0.93827000000E+00 0.  1.
     999902    2    1    2    0    0 -0.79824764272E-02  0.18005254232E-01 -0.13497699105E-01  0.10200532961E+01  0.10197738131E+01 0.  0.
     999903    2    3    3    0    0 -0.72180898770E-01 -0.64915639227E-01  0.82046803262E-01  0.12869138082E+00  0.20141281217E-01 0.  0.
         14    1    1    2    0    0  0.79824764272E-02 -0.18005254232E-01  0.13497699105E-01  0.23876703939E-01  0.00000000000E+00 0.  1.
     999901    1    3    3    0    0  0.64198422343E-01  0.82920893459E-01 -0.95544502367E-01  0.89136191524E+00  0.88000000000E+00 0.  1.
        -11    1    4    4    0    0 -0.36640597885E-01 -0.19619774301E-01  0.33945197318E-01  0.53665692011E-01  0.51100000000E-03 0. -1.
         11    1    4    4    0    0 -0.35540300885E-01 -0.45295864926E-01  0.48101605944E-01  0.75025688812E-01  0.51100000000E-03 0.  1.
</event>
<event>
 8    1  0.1143506E+005  0.1043930E+01  0.7957747E-01            NaN
         13   -1    0    0    0    0  0.00000000000E+00  0.00000000000E+00  0.74505805969E-08  0.10566000000E+00  0.10566000000E+00 0. -1.
     999900   -1    0    0    0    0 -0.00000000000E+00 -0.00000000000E+00 -0.74505805969E-08  0.93827000000E+00  0.93827000000E+00 0.  1.
     999902    2    1    2    0    0  0.37883685580E-02 -0.10696354323E-01 -0.20980195977E-01  0.10200776971E+01  0.10197987918E+01 0.  0.
     999903    2    3    3    0    0 -0.26865696379E-02 -0.98274967382E-01  0.82147816149E-01  0.12971410550E+00  0.20305137235E-01 0.  0.
         14    1    1    2    0    0 -0.37883685580E-02  0.10696354323E-01  0.20980195977E-01  0.23852302937E-01  0.00000000000E+00 0. -1.
     999901    1    3    3    0    0  0.64749381959E-02  0.87578613059E-01 -0.10312801213E+00  0.89036359156E+00  0.88000000000E+00 0.  1.
        -11    1    4    4    0    0 -0.99484779864E-02 -0.78061235851E-01  0.61006503874E-01  0.99572001048E-01  0.51100000000E-03 0.  1.
         11    1    4    4    0    0  0.72619083485E-02 -0.20213731531E-01  0.21141312276E-01  0.30142104455E-01  0.51100000000E-03 0. -1.
</event>
<event>
 8    1  0.1143506E+005  0.1043930E+01  0.7957747E-01            NaN
         13   -1    0    0    0    0  0.00000000000E+00  0.00000000000E+00  0.74505805969E-08  0.10566000000E+00  0.10566000000E+00 0.  1.
     999900   -1    0    0    0    0 -0.00000000000E+00 -0.00000000000E+00 -0.74505805969E-08  0.93827000000E+00  0.93827000000E+00 0.  1.
     999902    2    1    2    0    0  0.15203444964E-01  0.19819921920E-01  0.98698998081E-03  0.10189310362E+01  0.10186243215E+01 0.  0.
     999903    2    3    3    0    0  0.78060381073E-01  0.93266945910E-01  0.47549404476E-01  0.13241340058E+00  0.21913842555E-01 0.  0.
         14    1    1    2    0    0 -0.15203444964E-01 -0.19819921920E-01 -0.98698998081E-03  0.24998963837E-01  0.00000000000E+00 0. -1.
     999901    1    3    3    0    0 -0.62856936109E-01 -0.73447023990E-01 -0.46562414495E-01  0.88651763558E+00  0.88000000000E+00 0.  1.
        -11    1    4    4    0    0  0.32329185540E-01  0.23090135484E-01  0.17617374655E-01  0.43462208930E-01  0.51100000000E-03 0. -1.
         11    1    4    4    0    0  0.45731195533E-01  0.70176810425E-01  0.29932029821E-01  0.88951191654E-01  0.51100000000E-03 0.  1.
</event>
<event>
 8    1  0.1143506E+005  0.1043930E+01  0.7957747E-01            NaN
         13   -1    0    0    0    0  0.00000000000E+00  0.00000000000E+00  0.74505805969E-08  0.10566000000E+00  0.10566000000E+00 0.  1.
     999900   -1    0    0    0    0 -0.00000000000E+00 -0.00000000000E+00 -0.74505805969E-08  0.93827000000E+00  0.93827000000E+00 0.  1.
     999902    2    1    2    0    0  0.99432156659E-02 -0.62842706763E-02  0.18261488630E-01  0.10222080857E+01  0.10219772643E+01 0.  0.
     999903    2    3    3    0    0  0.22465280887E-01 -0.48433629140E-01 -0.11786775353E+00  0.13065632546E+00  0.18104220084E-01 0.  0.
         14    1    1    2    0    0 -0.99432156659E-02  0.62842706763E-02 -0.18261488630E-01  0.21721914342E-01  0.00000000000E+00 0. -1.
     999901    1    3    3    0    0 -0.12522065221E-01  0.42149358464E-01  0.13612924216E+00  0.89155176019E+00  0.88000000000E+00 0. -1.
        -11    1    4    4    0    0  0.21488211238E-01 -0.49879534912E-01 -0.11135896066E+00  0.12389830695E+00  0.51100000000E-03 0.  1.
         11    1    4    4    0    0  0.97706964896E-03  0.14459057721E-02 -0.65087928700E-02  0.67580185133E-02  0.51100000000E-03 0. -1.
</event>
<event>
 8    1  0.1143506E+005  0.1043930E+01  0.7957747E-01            NaN
         13   -1    0    0    0    0  0.00000000000E+00  0.00000000000E+00  0.74505805969E-08  0.10566000000E+00  0.10566000000E+00 0.  1.
     999900   -1    0    0    0    0 -0.00000000000E+00 -0.00000000000E+00 -0.74505805969E-08  0.93827000000E+00  0.93827000000E+00 0. -1.
     999902    2    1    2    0    0 -0.71172901180E-02 -0.23836123009E-01  0.61045809020E-03  0.10190464866E+01  0.10187426332E+01 0.  0.
     999903    2    3    3    0    0  0.78799914589E-01 -0.83922625588E-01 -0.58989957758E-01  0.13082108538E+00  0.19542457318E-01 0.  0.
         14    1    1    2    0    0  0.71172901180E-02  0.23836123009E-01 -0.61045809020E-03  0.24883513373E-01  0.00000000000E+00 0. -1.
     999901    1    3    3    0    0 -0.85917204707E-01  0.60086502579E-01  0.59600415848E-01  0.88822540125E+00  0.88000000000E+00 0.  1.
        -11    1    4    4    0    0  0.43915991638E-01 -0.45129353379E-01 -0.21372611817E-01  0.66500545222E-01  0.51100000000E-03 0. -1.
         11    1    4    4    0    0  0.34883922951E-01 -0.38793272209E-01 -0.37617345941E-01  0.64320540154E-01  0.51100000000E-03 0.  1.
</event>
<event>
 7    1  0.1143506E+005  0.1043930E+01  0.7957747E-01            NaN
         13   -1    0    0    0    0  0.00000000000E+00  0.00000000000E+00  0.74505805969E-08  0.10566000000E+00  0.10566000000E+00 0. -1.
     999900   -1    0    0    0    0 -0.00000000000E+00 -0.00000000000E+00 -0.74505805969E-08  0.93827000000E+00  0.93827000000E+00 0.  1.
     999903    2    1    2    0    0  0.83010128735E-01  0.69127355049E-01  0.50134476950E-01  0.12086897300E+00  0.20653575142E-01 0.  0.
         14    1    1    2    0    0 -0.22086889411E-01 -0.18094293034E-01 -0.26818242696E-01  0.39172085284E-01  0.00000000000E+00 0.  1.
     999901    1    1    2    0    0 -0.60923239324E-01 -0.51033062015E-01 -0.23316234255E-01  0.88388894172E+00  0.88000000000E+00 0.  1.
        -11    1    3    3    0    0  0.44575920670E-01  0.25409899071E-01  0.18010072209E-01  0.54381058250E-01  0.51100000000E-03 0.  1.
         11    1    3    3    0    0  0.38434208065E-01  0.43717455978E-01  0.32124404741E-01  0.66487914750E-01  0.51100000000E-03 0. -1.
</event>
<event>
 8    1  0.1143506E+005  0.1043930E+01  0.7957747E-01            NaN
         13   -1    0    0    0    0  0.00000000000E+00  0.00000000000E+00  0.74505805969E-08  0.10566000000E+00  0.10566000000E+00 0. -1.
     999900   -1    0    0    0    0 -0.00000000000E+00 -0.00000000000E+00 -0.74505805969E-08  0.93827000000E+00  0.93827000000E+00 0. -1.
     999902    2    1    2    0    0 -0.12296349701E-01 -0.64522295360E-02  0.18907198338E-01  0.10204712355E+01  0.10202015629E+01 0.  0.
     999903    2    3    3    0    0  0.21127233072E-01  0.53395391419E-02  0.12930083143E+00  0.13286606658E+00  0.21443320299E-01 0.  0.
         14    1    1    2    0    0  0.12296349701E-01  0.64522295360E-02 -0.18907198338E-01  0.23458764480E-01  0.00000000000E+00 0.  1.
     999901    1    3    3    0    0 -0.33423582773E-01 -0.11791768678E-01 -0.11039363309E+00  0.88760516894E+00  0.88000000000E+00 0. -1.
        -11    1    4    4    0    0  0.14343809497E-01 -0.72675457931E-02  0.75121110055E-01  0.76824503836E-01  0.51100000000E-03 0. -1.
         11    1    4    4    0    0  0.67834235755E-02  0.12607084935E-01  0.54179721375E-01  0.56041562748E-01  0.51100000000E-03 0.  1.
</event>
<event>
 8    1  0.1143506E+005  0.1043930E+01  0.7957747E-01            NaN
         13   -1    0    0    0    0  0.00000000000E+00  0.00000000000E+00  0.74505805969E-08  0.10566000000E+00  0.10566000000E+00 0.  1.
     999900   -1    0    0    0    0 -0.00000000000E+00 -0.00000000000E+00 -0.74505805969E-08  0.93827000000E+00  0.93827000000E+00 0. -1.
     999902    2    1    2    0    0  0.58731243444E-02  0.46525944076E-02  0.23159153454E-01  0.10195889521E+01  0.10192983590E+01 0.  0.
     999903    2    3    3    0    0  0.40559278640E-01 -0.52145671837E-01  0.11385114556E+00  0.13242819452E+00  0.14522988121E-01 0.  0.
         14    1    1    2    0    0 -0.58731243444E-02 -0.46525944076E-02 -0.23159153454E-01  0.24341047902E-01  0.00000000000E+00 0. -1.
     999901    1    3    3    0    0 -0.34686154295E-01  0.56798266245E-01 -0.90691992108E-01  0.88716075757E+00  0.88000000000E+00 0. -1.
        -11    1    4    4    0    0  0.20411326917E-01 -0.15398708442E-01  0.47557749030E-01  0.53997621263E-01  0.51100000000E-03 0.  1.
         11    1    4    4    0    0  0.20147951722E-01 -0.36746963395E-01  0.66293396531E-01  0.78430573260E-01  0.51100000000E-03 0. -1.
</event>
<event>
 8    1  0.1143506E+005  0.1043930E+01  0.7957747E-01            NaN
         13   -1    0    0    0    0  0.00000000000E+00  0.00000000000E+00  0.74505805969E-08  0.10566000000E+00  0.10566000000E+00 0. -1.
     999900   -1    0    0    0    0 -0.00000000000E+00 -0.00000000000E+00 -0.74505805969E-08  0.93827000000E+00  0.93827000000E+00 0.  1.
     999902    2    1    2    0    0 -0.15001062828E-01  0.14939487366E-01  0.94122301976E-02  0.10207608342E+01  0.10204978541E+01 0.  0.
     999903    2    3    3    0    0 -0.58123919931E-01  0.48608416958E-02 -0.11542630215E+00  0.13084745687E+00  0.19894921280E-01 0.  0.
         14    1    1    2    0    0  0.15001062828E-01 -0.14939487366E-01 -0.94122301976E-02  0.23169165847E-01  0.00000000000E+00 0.  1.
     999901    1    3    3    0    0  0.43122857103E-01  0.10078645671E-01  0.12483853234E+00  0.88991337728E+00  0.88000000000E+00 0. -1.
        -11    1    4    4    0    0 -0.18656563922E-01  0.11020046516E-01 -0.39889109410E-01  0.45397257330E-01  0.51100000000E-03 0.  1.
         11    1    4    4    0    0 -0.39467356009E-01 -0.61592048197E-02 -0.75537192738E-01  0.85450199544E-01  0.51100000000E-03 0. -1.
</event>
<event>
 8    1  0.1143506E+005  0.1043930E+01  0.7957747E-01            NaN
         13   -1    0    0    0    0  0.00000000000E+00  0.00000000000E+00  0.74505805969E-08  0.10566000000E+00  0.10566000000E+00 0.  1.
     999900   -1    0    0    0    0 -0.00000000000E+00 -0.00000000000E+00 -0.74505805969E-08  0.93827000000E+00  0.93827000000E+00 0. -1.
     999902    2    1    2    0    0  0.20270533472E-01  0.19570831108E-02  0.21074079515E-02  0.10234564593E+01  0.10232516593E+01 0.  0.
     999903    2    3    3    0    0  0.10034114868E+00 -0.51268448324E-01 -0.71984460467E-01  0.13512438984E+00  0.19494570238E-01 0.  0.
         14    1    1    2    0    0 -0.20270533472E-01 -0.19570831108E-02 -0.21074079515E-02  0.20473540725E-01  0.00000000000E+00 0. -1.
     999901    1    3    3    0    0 -0.80070615212E-01  0.53225531435E-01  0.74091868419E-01  0.88833206943E+00  0.88000000000E+00 0.  1.
        -11    1    4    4    0    0  0.42473309454E-01 -0.32607849342E-01 -0.33510059840E-01  0.63169922322E-01  0.51100000000E-03 0. -1.
         11    1    4    4    0    0  0.57867839230E-01 -0.18660598981E-01 -0.38474400627E-01  0.71954467520E-01  0.51100000000E-03 0.  1.
</event>
<event>
 8    1  0.1143506E+005  0.1043930E+01  0.7957747E-01            NaN
         13   -1    0    0    0    0  0.00000000000E+00  0.00000000000E+00  0.74505805969E-08  0.10566000000E+00  0.10566000000E+00 0.  1.
     999900   -1    0    0    0    0 -0.00000000000E+00 -0.00000000000E+00 -0.74505805969E-08  0.93827000000E+00  0.93827000000E+00 0.  1.
     999902    2    1    2    0    0 -0.11043543084E-01  0.14077639740E-01  0.15792392722E-01  0.10200649743E+01  0.10197857679E+01 0.  0.
     999903    2    3    3    0    0 -0.10816488892E-01  0.48295221049E-01 -0.11817209328E+00  0.12926905044E+00  0.17216822097E-01 0.  0.
         14    1    1    2    0    0  0.11043543084E-01 -0.14077639740E-01 -0.15792392722E-01  0.23865025715E-01  0.00000000000E+00 0.  1.
     999901    1    3    3    0    0 -0.22705419161E-03 -0.34217581309E-01  0.13396448601E+00  0.89079592384E+00  0.88000000000E+00 0. -1.
        -11    1    4    4    0    0 -0.15185931003E-01  0.33415633595E-01 -0.78053249426E-01  0.86254205323E-01  0.51100000000E-03 0. -1.
         11    1    4    4    0    0  0.43694421107E-02  0.14879587454E-01 -0.40118843857E-01  0.43014845119E-01  0.51100000000E-03 0.  1.
</event>
<event>
 8    1  0.1143506E+005  0.1043930E+01  0.7957747E-01            NaN
         13   -1    0    0    0    0  0.00000000000E+00  0.00000000000E+00  0.74505805969E-08  0.10566000000E+00  0.10566000000E+00 0.  1.
     999900   -1    0    0    0    0 -0.00000000000E+00 -0.00000000000E+00 -0.74505805969E-08  0.93827000000E+00  0.93827000000E+00 0. -1.
     999902    2    1    2    0    0 -0.81920409789E-02  0.19065721978E-01  0.12176731685E-01  0.10198699899E+01  0.10195861476E+01 0.  0.
     999903    2    3    3    0    0 -0.68075494538E-01  0.61540413638E-02 -0.10826829414E+00  0.12955558269E+00  0.19760574585E-01 0.  0.
         14    1    1    2    0    0  0.81920409789E-02 -0.19065721978E-01 -0.12176731685E-01  0.24060010068E-01  0.00000000000E+00 0.  1.
     999901    1    3    3    0    0  0.59883453559E-01  0.12911680614E-01  0.12044502582E+00  0.89031440725E+00  0.88000000000E+00 0.  1.
        -11    1    4    4    0    0 -0.35533939938E-01  0.92935840853E-02 -0.42985130125E-01  0.56542144685E-01  0.51100000000E-03 0. -1.
         11    1    4    4    0    0 -0.32541554600E-01 -0.31395427215E-02 -0.65283164012E-01  0.73013438000E-01  0.51100000000E-03 0.  1.
</event>
<event>
 8    1  0.1143506E+005  0.1043930E+01  0.7957747E-01            NaN
         13   -1    0    0    0    0  0.00000000000E+00  0.00000000000E+00  0.74505805969E-08  0.10566000000E+00  0.10566000000E+00 0.  1.
     999900   -1    0    0    0    0 -0.00000000000E+00 -0.00000000000E+00 -0.74505805969E-08  0.93827000000E+00  0.93827000000E+00 0.  1.
     999902    2    1    2    0    0  0.76749950383E-02 -0.11295311949E-01  0.18777602303E-01  0.10207117320E+01  0.10204476233E+01 0.  0.
     999903    2    3    3    0    0  0.92406229209E-01 -0.73542276289E-01  0.58710434116E-01  0.13355408103E+00  0.21033304230E-01 0.  0.
         14    1    1    2    0    0 -0.76749950383E-02  0.11295311949E-01 -0.18777602303E-01  0.23218268004E-01  0.00000000000E+00 0. -1.
     999901    1    3    3    0    0 -0.84731234171E-01  0.62246964340E-01 -0.39932831814E-01  0.88715765097E+00  0.88000000000E+00 0. -1.
        -11    1    4    4    0    0  0.61787456541E-01 -0.60829662057E-01  0.40097945886E-01  0.95530330038E-01  0.51100000000E-03 0. -1.
         11    1    4    4    0    0  0.30618772668E-01 -0.12712614232E-01  0.18612488230E-01  0.38023750991E-01  0.51100000000E-03 0.  1.
</event>
<event>
 8    1  0.1143506E+005  0.1043930E+01  0.7957747E-01            NaN
         13   -1    0    0    0    0  0.00000000000E+00  0.00000000000E+00  0.74505805969E-08  0.10566000000E+00  0.10566000000E+00 0. -1.
     999900   -1    0    0    0    0 -0.00000000000E+00 -0.00000000000E+00 -0.74505805969E-08  0.93827000000E+00  0.93827000000E+00 0.  1.
     999902    2    1    2    0    0  0.13161390832E-01  0.29903130684E-02 -0.21119518012E-01  0.10188661172E+01  0.10185577875E+01 0.  0.
     999903    2    3    3    0    0 -0.28502586423E-01 -0.53603710623E-01 -0.11448222744E+00  0.13114129156E+00  0.20151990621E-01 0.  0.
         14    1    1    2    0    0 -0.13161390832E-01 -0.29903130684E-02  0.21119518012E-01  0.25063882819E-01  0.00000000000E+00 0.  1.
     999901    1    3    3    0    0  0.41663977255E-01  0.56594023692E-01  0.93362709429E-01  0.88772482562E+00  0.88000000000E+00 0. -1.
        -11    1    4    4    0    0  0.37209760392E-03 -0.65466468581E-02 -0.26223164624E-01  0.27035393942E-01  0.51100000000E-03 0.  1.
         11    1    4    4    0    0 -0.28874684027E-01 -0.47057063765E-01 -0.88259062817E-01  0.10410589761E+00  0.51100000000E-03 0. -1.
</event>
<event>
 8    1  0.1143506E+005  0.1043930E+01  0.7957747E-01            NaN
         13   -1    0    0    0    0  0.00000000000E+00  0.00000000000E+00  0.74505805969E-08  0.10566000000E+00  0.10566000000E+00 0.  1.
     999900   -1    0    0    0    0 -0.00000000000E+00 -0.00000000000E+00 -0.74505805969E-08  0.93827000000E+00  0.93827000000E+00 0. -1.
     999902    2    1    2    0    0  0.19271101152E-01  0.13664507759E-01 -0.10363381111E-01  0.10181328339E+01  0.10178059607E+01 0.  0.
     999903    2    3    3    0    0  0.12134028205E+00 -0.43220702286E-01  0.73763246057E-03  0.13033934589E+00  0.19907481813E-01 0.  0.
         14    1    1    2    0    0 -0.19271101152E-01 -0.13664507759E-01  0.10363381111E-01  0.25797166122E-01  0.00000000000E+00 0.  1.
     999901    1    3    3    0    0 -0.10206918090E+00  0.56885210044E-01 -0.11101013572E-01  0.88779348799E+00  0.88000000000E+00 0. -1.
        -11    1    4    4    0    0  0.51224289699E-01 -0.26305072997E-01  0.66466424568E-02  0.57968299074E-01  0.51100000000E-03 0. -1.
         11    1    4    4    0    0  0.70115992348E-01 -0.16915629288E-01 -0.59090099963E-02  0.72371046817E-01  0.51100000000E-03 0.  1.
</event>
<event>
 8    1  0.1143506E+005  0.1043930E+01  0.7957747E-01            NaN
         13   -1    0    0    0    0  0.00000000000E+00  0.00000000000E+00  0.74505805969E-08  0.10566000000E+00  0.10566000000E+00 0. -1.
     999900   -1    0    0    0    0 -0.00000000000E+00 -0.00000000000E+00 -0.74505805969E-08  0.93827000000E+00  0.93827000000E+00 0. -1.
     999902    2    1    2    0    0 -0.50099042103E-02  0.17484796818E-01  0.69195697862E-02  0.10244698431E+01  0.10242850003E+01 0.  0.
     999903    2    3    3    0    0 -0.35721969032E-01  0.97295189386E-01  0.86829651246E-01  0.13672069453E+00  0.20266894911E-01 0.  0.
         14    1    1    2    0    0  0.50099042103E-02 -0.17484796818E-01 -0.69195697862E-02  0.19460156885E-01  0.00000000000E+00 0. -1.
     999901    1    3    3    0    0  0.30712064821E-01 -0.79810392568E-01 -0.79910081460E-01  0.88774914858E+00  0.88000000000E+00 0. -1.
        -11    1    4    4    0    0 -0.19029338871E-01  0.34678045111E-01  0.23003334862E-01  0.45761305558E-01  0.51100000000E-03 0. -1.
         11    1    4    4    0    0 -0.16692630160E-01  0.62617144275E-01  0.63826316384E-01  0.90959388976E-01  0.51100000000E-03 0.  1.
</event>
<event>
 8    1  0.1143506E+005  0.1043930E+01  0.7957747E-01            NaN
         13   -1    0    0    0    0  0.00000000000E+00  0.00000000000E+00  0.74505805969E-08  0.10566000000E+00  0.10566000000E+00 0.  1.
     999900   -1    0    0    0    0 -0.00000000000E+00 -0.00000000000E+00 -0.74505805969E-08  0.93827000000E+00  0.93827000000E+00 0.  1.
     999902    2    1    2    0    0 -0.16043424534E-01 -0.17376206144E-01  0.15856025419E-02  0.10202268748E+01  0.10199514880E+01 0.  0.
     999903    2    3    3    0    0  0.10241406046E+00 -0.60780214468E-01  0.48067191302E-01  0.13001531463E+00  0.20264572775E-01 0.  0.
         14    1    1    2    0    0  0.16043424534E-01  0.17376206144E-01 -0.15856025419E-02  0.23703125241E-01  0.00000000000E+00 0.  1.
     999901    1    3    3    0    0 -0.11845748499E+00  0.43404008324E-01 -0.46481588760E-01  0.89021156013E+00  0.88000000000E+00 0. -1.
        -11    1    4    4    0    0  0.70259078807E-01 -0.37218440142E-01  0.41238228394E-01  0.89567868365E-01  0.51100000000E-03 0.  1.
         11    1    4    4    0    0  0.32154981649E-01 -0.23561774326E-01  0.68289629080E-02  0.40447446268E-01  0.51100000000E-03 0. -1.
</event>
<event>
 8    1  0.1143506E+005  0.1043930E+01  0.7957747E-01            NaN
         13   -1    0    0    0    0  0.00000000000E+00  0.00000000000E+00  0.74505805969E-08  0.10566000000E+00  0.10566000000E+00 0. -1.
     999900   -1    0    0    0    0 -0.00000000000E+00 -0.00000000000E+00 -0.74505805969E-08  0.93827000000E+00  0.93827000000E+00 0.  1.
     999902    2    1    2    0    0 -0.31959717679E-02  0.64104062513E-02 -0.23527782449E-01  0.10193360151E+01  0.10190392768E+01 0.  0.
     999903    2    3    3    0    0 -0.83618047779E-01 -0.71424012188E-01 -0.68478143051E-01  0.13110944387E+00  0.20175796525E-01 0.  0.
         14    1    1    2    0    0  0.31959717679E-02 -0.64104062513E-02  0.23527782449E-01  0.24593984851E-01  0.00000000000E+00 0. -1.
     999901    1    3    3    0    0  0.80422076011E-01  0.77834418439E-01  0.44950360602E-01  0.88822657128E+00  0.88000000000E+00 0.  1.
        -11    1    4    4    0    0 -0.22423009461E-01 -0.31464443268E-01 -0.21381325870E-01  0.44161349169E-01  0.51100000000E-03 0. -1.
         11    1    4    4    0    0 -0.61195038318E-01 -0.39959568920E-01 -0.47096817181E-01  0.86948094704E-01  0.51100000000E-03 0.  1.
</event>
<event>
 8    1  0.1143506E+005  0.1043930E+01  0.7957747E-01            NaN
         13   -1    0    0    0    0  0.00000000000E+00  0.00000000000E+00  0.74505805969E-08  0.10566000000E+00  0.10566000000E+00 0. -1.
     999900   -1    0    0    0    0 -0.00000000000E+00 -0.00000000000E+00 -0.74505805969E-08  0.93827000000E+00  0.93827000000E+00 0. -1.
     999902    2    1    2    0    0 -0.79688047849E-02  0.27238706094E-02  0.23383932581E-01  0.10190758329E+01  0.10187727045E+01 0.  0.
     999903    2    3    3    0    0  0.12498736343E+00  0.20694431036E-01  0.13135438343E-01  0.12884815674E+00  0.19473244794E-01 0.  0.
         14    1    1    2    0    0  0.79688047849E-02 -0.27238706094E-02 -0.23383932581E-01  0.24854167131E-01  0.00000000000E+00 0.  1.
     999901    1    3    3    0    0 -0.13295616821E+00 -0.17970560426E-01  0.10248494238E-01  0.89022767613E+00  0.88000000000E+00 0. -1.
        -11    1    4    4    0    0  0.10955351768E+00  0.23701971611E-01  0.14651429259E-01  0.11304283345E+00  0.51100000000E-03 0. -1.
         11    1    4    4    0    0  0.15433845746E-01 -0.30075405750E-02 -0.15159909156E-02  0.15805323289E-01  0.51100000000E-03 0.  1.
</event>
<event>
 7    1  0.1143506E+005  0.1043930E+01  0.7957747E-01            NaN
         13   -1    0    0    0    0  0.00000000000E+00  0.00000000000E+00  0.74505805969E-08  0.10566000000E+00  0.10566000000E+00 0.  1.
     999900   -1    0    0    0    0 -0.00000000000E+00 -0.00000000000E+00 -0.74505805969E-08  0.93827000000E+00  0.93827000000E+00 0.  1.
     999902    2    1    2    0    0 -0.65552319213E-02 -0.57469268306E-02  0.22017653750E-01  0.10202493051E+01  0.10199744454E+01 0.  0.
         14    1    1    2    0    0  0.65552319213E-02  0.57469268306E-02 -0.22017653750E-01  0.23680694884E-01  0.00000000000E+00 0. -1.
     999901    1    3    3    0    0 -0.55216698332E-01 -0.98421995814E-01  0.54613283240E-01  0.88888603529E+00  0.88000000000E+00 0. -1.
        -11    1    3    3    0    0  0.32101208327E-01  0.55717952752E-01  0.17786668333E-01  0.66720345670E-01  0.51100000000E-03 0. -1.
         11    1    3    3    0    0  0.16560258084E-01  0.36957116231E-01 -0.50382297824E-01  0.64642924153E-01  0.51100000000E-03 0.  1.
</event>
<event>
 8    1  0.1143506E+005  0.1043930E+01  0.7957747E-01            NaN
         13   -1    0    0    0    0  0.00000000000E+00  0.00000000000E+00  0.74505805969E-08  0.10566000000E+00  0.10566000000E+00 0. -1.
     999900   -1    0    0    0    0 -0.00000000000E+00 -0.00000000000E+00 -0.74505805969E-08  0.93827000000E+00  0.93827000000E+00 0. -1.
     999902    2    1    2    0    0 -0.60863588273E-02 -0.17187084293E-01 -0.15601436640E-01  0.10199332407E+01  0.10196509065E+01 0.  0.
     999903    2    3    3    0    0  0.87216958071E-01  0.87848553208E-01 -0.29280335238E-01  0.12868405764E+00  0.19444345788E-01 0.  0.
         14    1    1    2    0    0  0.60863588273E-02  0.17187084293E-01  0.15601436640E-01  0.23996759271E-01  0.00000000000E+00 0. -1.
     999901    1    3    3    0    0 -0.93303316899E-01 -0.10503563750E+00  0.13678898597E-01  0.89124918309E+00  0.88000000000E+00 0.  1.
        -11    1    4    4    0    0  0.78144387244E-01  0.85103786792E-01 -0.29277651401E-01  0.11919161790E+00  0.51100000000E-03 0. -1.
         11    1    4    4    0    0  0.90725708271E-02  0.27447664160E-02 -0.26838363686E-05  0.94924397440E-02  0.51100000000E-03 0.  1.
</event>
<event>
 8    1  0.1143506E+005  0.1043930E+01  0.7957747E-01            NaN
         13   -1    0    0    0    0  0.00000000000E+00  0.00000000000E+00  0.74505805969E-08  0.10566000000E+00  0.10566000000E+00 0.  1.
     999900   -1    0    0    0    0 -0.00000000000E+00 -0.00000000000E+00 -0.74505805969E-08  0.93827000000E+00  0.93827000000E+00 0.  1.
     999902    2    1    2    0    0  0.21638909030E-02 -0.23364940813E-01 -0.10831179813E-03  0.10204648212E+01  0.10201949994E+01 0.  0.
     999903    2    3    3    0    0  0.10253151354E+00  0.75955336094E-01  0.24149021100E-02  0.12920473367E+00  0.20152099155E-01 0.  0.
         14    1    1    2    0    0 -0.21638909030E-02  0.23364940813E-01  0.10831179813E-03  0.23465178765E-01  0.00000000000E+00 0.  1.
     999901    1    3    3    0    0 -0.10036762264E+00 -0.99320276907E-01 -0.25232139082E-02  0.89126008757E+00  0.88000000000E+00 0. -1.
        -11    1    4    4    0    0  0.22534197696E-01  0.21204974668E-01 -0.72472805252E-02  0.31784040216E-01  0.51100000000E-03 0.  1.
         11    1    4    4    0    0  0.79997315844E-01  0.54750361426E-01  0.96621826353E-02  0.97420693453E-01  0.51100000000E-03 0. -1.
</event>
<event>
 8    1  0.1143506E+005  0.1043930E+01  0.7957747E-01            NaN
         13   -1    0    0    0    0  0.00000000000E+00  0.00000000000E+00  0.74505805969E-08  0.10566000000E+00  0.10566000000E+00 0. -1.
     999900   -1    0    0    0    0 -0.00000000000E+00 -0.00000000000E+00 -0.74505805969E-08  0.93827000000E+00  0.93827000000E+00 0.  1.
     999902    2    1    2    0    0  0.15078311870E-01 -0.18610268292E-01 -0.12302618984E-02  0.10199464407E+01  0.10196644206E+01 0.  0.
     999903    2    3    3    0    0 -0.35006372178E-01  0.39269917432E-01 -0.11608597920E+00  0.12918809673E+00  0.21119594249E-01 0.  0.
         14    1    1    2    0    0 -0.15078311870E-01  0.18610268292E-01  0.12302618984E-02  0.23983559350E-01  0.00000000000E+00 0. -1.
     999901    1    3    3    0    0  0.50084684048E-01 -0.57880185724E-01  0.11485571730E+00  0.89075834392E+00  0.88000000000E+00 0. -1.
        -11    1    4    4    0    0 -0.15913785445E-01  0.29937330532E-01 -0.56150058935E-01  0.65594074168E-01  0.51100000000E-03 0. -1.
         11    1    4    4    0    0 -0.19092586733E-01  0.93325869009E-02 -0.59935920262E-01  0.63594022558E-01  0.51100000000E-03 0.  1.
</event>
<event>
 8    1  0.1143506E+005  0.1043930E+01  0.7957747E-01            NaN
         13   -1    0    0    0    0  0.00000000000E+00  0.00000000000E+00  0.74505805969E-08  0.10566000000E+00  0.10566000000E+00 0.  1.
     999900   -1    0    0    0    0 -0.00000000000E+00 -0.00000000000E+00 -0.74505805969E-08  0.93827000000E+00  0.93827000000E+00 0. -1.
     999902    2    1    2    0    0 -0.21592103289E-01  0.23514844162E-02 -0.91701767641E-02  0.10203537292E+01  0.10200813164E+01 0.  0.
     999903    2    3    3    0    0 -0.51280547994E-01  0.52914552868E-01  0.10634717550E+00  0.13086944810E+00  0.19683653102E-01 0.  0.
         14    1    1    2    0    0  0.21592103289E-01 -0.23514844162E-02  0.91701767641E-02  0.23576270809E-01  0.00000000000E+00 0. -1.
     999901    1    3    3    0    0  0.29688444705E-01 -0.50563068452E-01 -0.11551735227E+00  0.88948428110E+00  0.88000000000E+00 0. -1.
        -11    1    4    4    0    0 -0.28417424800E-01  0.39991082311E-01  0.78642091024E-01  0.92691295699E-01  0.51100000000E-03 0. -1.
         11    1    4    4    0    0 -0.22863123194E-01  0.12923470557E-01  0.27705084480E-01  0.38178152397E-01  0.51100000000E-03 0.  1.
</event>
<event>
 8    1  0.1143506E+005  0.1043930E+01  0.7957747E-01            NaN
         13   -1    0    0    0    0  0.00000000000E+00  0.00000000000E+00  0.74505805969E-08  0.10566000000E+00  0.10566000000E+00 0.  1.
     999900   -1    0    0    0    0 -0.00000000000E+00 -0.00000000000E+00 -0.74505805969E-08  0.93827000000E+00  0.93827000000E+00 0.  1.
     999902    2    1    2    0    0 -0.17886662926E-01  0.11503735407E-01  0.10856134245E-01  0.10200527244E+01  0.10197732279E+01 0.  0.
     999903    2    3    3    0    0 -0.10170184949E+00 -0.69427399080E-01  0.41547047815E-01  0.13184285833E+00  0.22202526366E-01 0.  0.
         14    1    1    2    0    0  0.17886662926E-01 -0.11503735407E-01 -0.10856134245E-01  0.23877275592E-01  0.00000000000E+00 0. -1.
     999901    1    3    3    0    0  0.83815186564E-01  0.80931134487E-01 -0.30690913570E-01  0.88820986608E+00  0.88000000000E+00 0.  1.
        -11    1    4    4    0    0 -0.49203082543E-01 -0.21391764930E-01  0.13278881719E-01  0.55273327738E-01  0.51100000000E-03 0.  1.
         11    1    4    4    0    0 -0.52498766947E-01 -0.48035634150E-01  0.28268166096E-01  0.76569530589E-01  0.51100000000E-03 0. -1.
</event>
<event>
 8    1  0.1143506E+005  0.1043930E+01  0.7957747E-01            NaN
         13   -1    0    0    0    0  0.00000000000E+00  0.00000000000E+00  0.74505805969E-08  0.10566000000E+00  0.10566000000E+00 0. -1.
     999900   -1    0    0    0    0 -0.00000000000E+00 -0.00000000000E+00 -0.74505805969E-08  0.93827000000E+00  0.93827000000E+00 0.  1.
     999902    2    1    2    0    0  0.19954387688E-01 -0.89613494233E-02  0.11634054697E-01  0.10191543143E+01  0.10188531208E+01 0.  0.
     999903    2    3    3    0    0 -0.21389725423E-01 -0.81750456526E-01  0.98900401277E-01  0.13088464523E+00  0.14451418239E-01 0.  0.
         14    1    1    2    0    0 -0.19954387688E-01  0.89613494233E-02 -0.11634054697E-01  0.24775685665E-01  0.00000000000E+00 0.  1.
     999901    1    3    3    0    0  0.41344113111E-01  0.72789107103E-01 -0.87266346579E-01  0.88826966910E+00  0.88000000000E+00 0.  1.
        -11    1    4    4    0    0 -0.71898162368E-02 -0.22456597585E-01  0.37881894669E-01  0.44623887071E-01  0.51100000000E-03 0. -1.
         11    1    4    4    0    0 -0.14199909186E-01 -0.59293858941E-01  0.61018506608E-01  0.86260758162E-01  0.51100000000E-03 0.  1.
</event>
<event>
 8    1  0.1143506E+005  0.1043930E+01  0.7957747E-01            NaN
         13   -1    0    0    0    0  0.00000000000E+00  0.00000000000E+00  0.74505805969E-08  0.10566000000E+00  0.10566000000E+00 0.  1.
     999900   -1    0    0    0    0 -0.00000000000E+00 -0.00000000000E+00 -0.74505805969E-08  0.93827000000E+00  0.93827000000E+00 0. -1.
     999902    2    1    2    0    0  0.80448614372E-02  0.17026275915E-01 -0.12262172654E-01  0.10214583569E+01  0.10212111437E+01 0.  0.
     999903    2    3    3    0    0  0.55178070510E-01  0.10973099790E+00 -0.51183963315E-01  0.13447999711E+00  0.19482303694E-01 0.  0.
         14    1    1    2    0    0 -0.80448614372E-02 -0.17026275915E-01  0.12262172654E-01  0.22471643137E-01  0.00000000000E+00 0. -1.
     999901    1    3    3    0    0 -0.47133209073E-01 -0.92704721987E-01  0.38921790660E-01  0.88697835975E+00  0.88000000000E+00 0. -1.
        -11    1    4    4    0    0  0.16289211013E-01  0.48494881259E-01 -0.28007915532E-01  0.58324920550E-01  0.51100000000E-03 0. -1.
         11    1    4    4    0    0  0.38888859497E-01  0.61236116642E-01 -0.23176047783E-01  0.76155076563E-01  0.51100000000E-03 0.  1.
</event>
<event>
 8    1  0.1143506E+005  0.1043930E+01  0.7957747E-01            NaN
         13   -1    0    0    0    0  0.00000000000E+00  0.00000000000E+00  0.74505805969E-08  0.10566000000E+00  0.10566000000E+00 0.  1.
     999900   -1    0    0    0    0 -0.00000000000E+00 -0.00000000000E+00 -0.74505805969E-08  0.93827000000E+00  0.93827000000E+00 0. -1.
     999902    2    1    2    0    0  0.18492119342E-01 -0.25769657226E-02 -0.15694299190E-01  0.10195392178E+01  0.10192474216E+01 0.  0.
     999903    2    3    3    0    0 -0.82096404153E-01 -0.93271545459E-01 -0.28607558891E-01  0.12908410374E+00  0.20122441327E-01 0.  0.
         14    1    1    2    0    0 -0.18492119342E-01  0.25769657226E-02  0.15694299190E-01  0.24390782217E-01  0.00000000000E+00 0. -1.
     999901    1    3    3    0    0  0.10058852349E+00  0.90694579737E-01  0.12913259700E-01  0.89045511404E+00  0.88000000000E+00 0. -1.
        -11    1    4    4    0    0 -0.42827159078E-01 -0.41627548134E-01 -0.22851971502E-01  0.63949136357E-01  0.51100000000E-03 0. -1.
         11    1    4    4    0    0 -0.39269245075E-01 -0.51643997325E-01 -0.57555873891E-02  0.65134967381E-01  0.51100000000E-03 0.  1.
</event>
<event>
 8    1  0.1143506E+005  0.1043930E+01  0.7957747E-01            NaN
         13   -1    0    0    0    0  0.00000000000E+00  0.00000000000E+00  0.74505805969E-08  0.10566000000E+00  0.10566000000E+00 0.  1.
     999900   -1    0    0    0    0 -0.00000000000E+00 -0.00000000000E+00 -0.74505805969E-08  0.93827000000E+00  0.93827000000E+00 0.  1.
     999902    2    1    2    0    0 -0.23539725181E-03  0.19428365458E-02  0.22896286387E-01  0.10209502272E+01  0.10206915776E+01 0.  0.
     999903    2    3    3    0    0 -0.68800905779E-01 -0.69227767414E-01 -0.82171429538E-01  0.12920715395E+00  0.20403342450E-01 0.  0.
         14    1    1    2    0    0  0.23539725181E-03 -0.19428365458E-02 -0.22896286387E-01  0.22979772758E-01  0.00000000000E+00 0. -1.
     999901    1    3    3    0    0  0.68565508527E-01  0.71170603960E-01  0.10506771593E+00  0.89174307329E+00  0.88000000000E+00 0. -1.
        -11    1    4    4    0    0 -0.14113864646E-01 -0.20375489464E-01 -0.11371067388E-01  0.27274970956E-01  0.51100000000E-03 0. -1.
         11    1    4    4    0    0 -0.54687041134E-01 -0.48852277950E-01 -0.70800362151E-01  0.10193218300E+00  0.51100000000E-03 0.  1.
</event>
<event>
 8    1  0.1143506E+005  0.1043930E+01  0.7957747E-01            NaN
         13   -1    0    0    0    0  0.00000000000E+00  0.00000000000E+00  0.74505805969E-08  0.10566000000E+00  0.10566000000E+00 0. -1.
     999900   -1    0    0    0    0 -0.00000000000E+00 -0.00000000000E+00 -0.74505805969E-08  0.93827000000E+00  0.93827000000E+00 0. -1.
     999902    2    1    2    0    0  0.29278408105E-02 -0.21077205343E-01  0.93139989574E-02  0.10207013235E+01  0.10204369752E+01 0.  0.
     999903    2    3    3    0    0  0.11427444573E+00 -0.29474247772E-01  0.56787291140E-01  0.13237576928E+00  0.19265711245E-01 0.  0.
         14    1    1    2    0    0 -0.29278408105E-02  0.21077205343E-01 -0.93139989574E-02  0.23228676532E-01  0.00000000000E+00 0. -1.
     999901    1    3    3    0    0 -0.11134660492E+00  0.83970424296E-02 -0.47473292183E-01  0.88832555419E+00  0.88000000000E+00 0. -1.
        -11    1    4    4    0    0  0.88413808910E-01 -0.30922818262E-01  0.44069093830E-01  0.10351602990E+00  0.51100000000E-03 0.  1.
         11    1    4    4    0    0  0.25860636818E-01  0.14485704899E-02  0.12718197311E-01  0.28859739378E-01  0.51100000000E-03 0. -1.
</event>
<event>
 7    1  0.1143506E+005  0.1043930E+01  0.7957747E-01            NaN
         13   -1    0    0    0    0  0.00000000000E+00  0.00000000000E+00  0.74505805969E-08  0.10566000000E+00  0.10566000000E+00 0.  1.
     999900   -1    0    0    0    0 -0.00000000000E+00 -0.00000000000E+00 -0.74505805969E-08  0.93827000000E+00  0.93827000000E+00 0.  1.
     999903    2    1    2    0    0  0.74998975341E-01 -0.37167201333E-01 -0.47286408597E-01  0.98154561406E-01  0.19800664883E-01 0.  0.
         14    1    1    2    0    0 -0.95551522658E-02  0.22130406088E-01  0.58365864686E-01  0.63147683797E-01  0.00000000000E+00 0.  1.
     999901    1    1    2    0    0 -0.65443823075E-01  0.15036795245E-01 -0.11079456089E-01  0.88262775480E+00  0.88000000000E+00 0.  1.
        -11    1    3    3    0    0  0.28857486779E-01 -0.22050576679E-01 -0.12459375272E-01  0.38398953478E-01  0.51100000000E-03 0.  1.
         11    1    3    3    0    0  0.46141488562E-01 -0.15116624654E-01 -0.34827033325E-01  0.59755607928E-01  0.51100000000E-03 0. -1.
</event>
<event>
 8    1  0.1143506E+005  0.1043930E+01  0.7957747E-01            NaN
         13   -1    0    0    0    0  0.00000000000E+00  0.00000000000E+00  0.74505805969E-08  0.10566000000E+00  0.10566000000E+00 0.  1.
     999900   -1    0    0    0    0 -0.00000000000E+00 -0.00000000000E+00 -0.74505805969E-08  0.93827000000E+00  0.93827000000E+00 0. -1.
     999902    2    1    2    0    0  0.16845255763E-01  0.16555329979E-01 -0.28949564259E-02  0.10201345726E+01  0.10198570115E+01 0.  0.
     999903    2    3    3    0    0 -0.68432300580E-01  0.49090102386E-01 -0.97592668136E-01  0.13036020253E+00  0.19407102170E-01 0.  0.
         14    1    1    2    0    0 -0.16845255763E-01 -0.16555329979E-01  0.28949564259E-02  0.23795427400E-01  0.00000000000E+00 0.  1.
     999901    1    3    3    0    0  0.85277556343E-01 -0.32534772407E-01  0.94697711710E-01  0.88977437007E+00  0.88000000000E+00 0.  1.
        -11    1    4    4    0    0 -0.11540047048E-01  0.17820324806E-01 -0.28632999720E-01  0.35648933448E-01  0.51100000000E-03 0. -1.
         11    1    4    4    0    0 -0.56892253532E-01  0.31269777581E-01 -0.68959668416E-01  0.94711269081E-01  0.51100000000E-03 0.  1.
</event>
<event>
 8    1  0.1143506E+005  0.1043930E+01  0.7957747E-01            NaN
         13   -1    0    0    0    0  0.00000000000E+00  0.00000000000E+00  0.74505805969E-08  0.10566000000E+00  0.10566000000E+00 0.  1.
     999900   -1    0    0    0    0 -0.00000000000E+00 -0.00000000000E+00 -0.74505805969E-08  0.93827000000E+00  0.93827000000E+00 0. -1.
     999902    2    1    2    0    0 -0.64201388587E-02 -0.11137733615E-01 -0.22296803515E-01  0.10181925809E+01  0.10178672394E+01 0.  0.
     999903    2    3    3    0    0  0.43099898701E-01 -0.10300863242E+00 -0.63555143576E-01  0.13106533708E+00  0.25893757702E-01 0.  0.
         14    1    1    2    0    0  0.64201388587E-02  0.11137733615E-01  0.22296803515E-01  0.25737419063E-01  0.00000000000E+00 0.  1.
     999901    1    3    3    0    0 -0.49520037559E-01  0.91870898806E-01  0.41258340061E-01  0.88712724386E+00  0.88000000000E+00 0. -1.
        -11    1    4    4    0    0  0.22683437427E-01 -0.68955895596E-01 -0.53288515247E-01  0.90052100748E-01  0.51100000000E-03 0. -1.
         11    1    4    4    0    0  0.20416461274E-01 -0.34052736825E-01 -0.10266628329E-01  0.41013236333E-01  0.51100000000E-03 0.  1.
</event>
<event>
 8    1  0.1143506E+005  0.1043930E+01  0.7957747E-01            NaN
         13   -1    0    0    0    0  0.00000000000E+00  0.00000000000E+00  0.74505805969E-08  0.10566000000E+00  0.10566000000E+00 0.  1.
     999900   -1    0    0    0    0 -0.00000000000E+00 -0.00000000000E+00 -0.74505805969E-08  0.93827000000E+00  0.93827000000E+00 0.  1.
     999902    2    1    2    0    0  0.13840964707E-01  0.12428076139E-01 -0.24371741854E-01  0.10132703982E+01  0.10128064419E+01 0.  0.
     999903    2    3    3    0    0  0.73025419277E-01  0.44222375070E-01 -0.93286703697E-01  0.12802300394E+00  0.19978742048E-01 0.  0.
         14    1    1    2    0    0 -0.13840964707E-01 -0.12428076139E-01  0.24371741854E-01  0.30659601783E-01  0.00000000000E+00 0.  1.
     999901    1    3    3    0    0 -0.59184454570E-01 -0.31794298932E-01  0.68914961843E-01  0.88524739428E+00  0.88000000000E+00 0. -1.
        -11    1    4    4    0    0  0.17016002879E-01  0.11519255784E-01 -0.36152694914E-01  0.41587450972E-01  0.51100000000E-03 0.  1.
         11    1    4    4    0    0  0.56009416398E-01  0.32703119286E-01 -0.57134008782E-01  0.86435552968E-01  0.51100000000E-03 0. -1.
</event>
<event>
 8    1  0.1143506E+005  0.1043930E+01  0.7957747E-01            NaN
         13   -1    0    0    0    0  0.00000000000E+00  0.00000000000E+00  0.74505805969E-08  0.10566000000E+00  0.10566000000E+00 0. -1.
     999900   -1    0    0    0    0 -0.00000000000E+00 -0.00000000000E+00 -0.74505805969E-08  0.93827000000E+00  0.93827000000E+00 0.  1.
     999902    2    1    2    0    0 -0.22889110287E-01 -0.11568269035E-03 -0.63433116302E-03  0.10210318095E+01  0.10207750138E+01 0.  0.
     999903    2    3    3    0    0  0.47199499578E-01 -0.10976373590E-01  0.11901295121E+00  0.13010766008E+00  0.20387425504E-01 0.  0.
         14    1    1    2    0    0  0.22889110287E-01  0.11568269035E-03  0.63433116302E-03  0.22898190501E-01  0.00000000000E+00 0.  1.
     999901    1    3    3    0    0 -0.70088609865E-01  0.10860690899E-01 -0.11964728237E+00  0.89092414942E+00  0.88000000000E+00 0.  1.
        -11    1    4    4    0    0  0.41415991329E-01 -0.15960922854E-02  0.90749777371E-01  0.99767805740E-01  0.51100000000E-03 0. -1.
         11    1    4    4    0    0  0.57835082485E-02 -0.93802813044E-02  0.28263173837E-01  0.30339854340E-01  0.51100000000E-03 0.  1.
</event>
<event>
 8    1  0.1143506E+005  0.1043930E+01  0.7957747E-01            NaN
         13   -1    0    0    0    0  0.00000000000E+00  0.00000000000E+00  0.74505805969E-08  0.10566000000E+00  0.10566000000E+00 0.  1.
     999900   -1    0    0    0    0 -0.00000000000E+00 -0.00000000000E+00 -0.74505805969E-08  0.93827000000E+00  0.93827000000E+00 0.  1.
     999902    2    1    2    0    0 -0.16983025700E-01 -0.97134314694E-02 -0.16185205959E-01  0.10185383714E+01  0.10182218222E+01 0.  0.
     999903    2    3    3    0    0  0.11741410124E+00  0.23767085441E-01 -0.38710038110E-01  0.12742058970E+00  0.19661996513E-01 0.  0.
         14    1    1    2    0    0  0.16983025700E-01  0.97134314694E-02  0.16185205959E-01  0.25391628635E-01  0.00000000000E+00 0.  1.
     999901    1    3    3    0    0 -0.13439712694E+00 -0.33480516911E-01  0.22524832151E-01  0.89111778167E+00  0.88000000000E+00 0.  1.
        -11    1    4    4    0    0  0.42670351859E-01  0.14717799939E-01 -0.22359369560E-01  0.50374349534E-01  0.51100000000E-03 0.  1.
         11    1    4    4    0    0  0.74743749384E-01  0.90492855025E-02 -0.16350668549E-01  0.77046240162E-01  0.51100000000E-03 0. -1.
</event>
<event>
 8    1  0.1143506E+005  0.1043930E+01  0.7957747E-01            NaN
         13   -1    0    0    0    0  0.00000000000E+00  0.00000000000E+00  0.74505805969E-08  0.10566000000E+00  0.10566000000E+00 0.  1.
     999900   -1    0    0    0    0 -0.00000000000E+00 -0.00000000000E+00 -0.74505805969E-08  0.93827000000E+00  0.93827000000E+00 0.  1.
     999902    2    1    2    0    0  0.11250876950E-01 -0.13529880437E-01 -0.14919257283E-01  0.10208600166E+01  0.10205993089E+01 0.  0.
     999903    2    3    3    0    0 -0.75537156568E-01  0.86279139662E-01  0.53896016370E-01  0.12831895583E+00  0.20273674575E-01 0.  0.
         14    1    1    2    0    0 -0.11250876950E-01  0.13529880437E-01  0.14919257283E-01  0.23069983413E-01  0.00000000000E+00 0. -1.
     999901    1    3    3    0    0  0.86788033518E-01 -0.99809020099E-01 -0.68815273652E-01  0.89254106076E+00  0.88000000000E+00 0. -1.
        -11    1    4    4    0    0 -0.15371435818E-01  0.19690661864E-01  0.21317312899E-01  0.32843449179E-01  0.51100000000E-03 0. -1.
         11    1    4    4    0    0 -0.60165720750E-01  0.66588477799E-01  0.32578703471E-01  0.95475506648E-01  0.51100000000E-03 0.  1.
</event>
<event>
 8    1  0.1143506E+005  0.1043930E+01  0.7957747E-01            NaN
         13   -1    0    0    0    0  0.00000000000E+00  0.00000000000E+00  0.74505805969E-08  0.10566000000E+00  0.10566000000E+00 0.  1.
     999900   -1    0    0    0    0 -0.00000000000E+00 -0.00000000000E+00 -0.74505805969E-08  0.93827000000E+00  0.93827000000E+00 0.  1.
     999902    2    1    2    0    0 -0.12766692807E-01 -0.11616639697E-01 -0.16492524319E-01  0.10200566232E+01  0.10197772190E+01 0.  0.
     999903    2    3    3    0    0  0.80261130786E-01  0.94221733747E-01  0.25031845089E-01  0.12787939273E+00  0.20173289039E-01 0.  0.
         14    1    1    2    0    0  0.12766692807E-01  0.11616639697E-01  0.16492524319E-01  0.23873376835E-01  0.00000000000E+00 0.  1.
     999901    1    3    3    0    0 -0.93027823593E-01 -0.10583837344E+00 -0.41524369408E-01  0.89217723044E+00  0.88000000000E+00 0.  1.
        -11    1    4    4    0    0  0.16930990243E-01  0.16410928605E-01  0.12730371946E-01  0.26801128692E-01  0.51100000000E-03 0. -1.
         11    1    4    4    0    0  0.63330140542E-01  0.77810805143E-01  0.12301473143E-01  0.10107826404E+00  0.51100000000E-03 0.  1.
</event>
<event>
 8    1  0.1143506E+005  0.1043930E+01  0.7957747E-01            NaN
         13   -1    0    0    0    0  0.00000000000E+00  0.00000000000E+00  0.74505805969E-08  0.10566000000E+00  0.10566000000E+00 0. -1.
     999900   -1    0    0    0    0 -0.00000000000E+00 -0.00000000000E+00 -0.74505805969E-08  0.93827000000E+00  0.93827000000E+00 0.  1.
     999902    2    1    2    0    0  0.20296335045E-01 -0.13328721628E-01  0.48639182541E-02  0.10191660395E+01  0.10188651346E+01 0.  0.
     999903    2    3    3    0    0 -0.69682466345E-01 -0.20669979334E-01 -0.10315021059E+00  0.12797743392E+00  0.21339247608E-01 0.  0.
         14    1    1    2    0    0 -0.20296335045E-01  0.13328721628E-01 -0.48639182541E-02  0.24763960452E-01  0.00000000000E+00 0.  1.
     999901    1    3    3    0    0  0.89978801389E-01  0.73412577060E-02  0.10801412884E+00  0.89118860562E+00  0.88000000000E+00 0. -1.
        -11    1    4    4    0    0 -0.62958674223E-01 -0.11079994008E-01 -0.84694746149E-01  0.10611325117E+00  0.51100000000E-03 0.  1.
         11    1    4    4    0    0 -0.67237921220E-02 -0.95899853265E-02 -0.18455464437E-01  0.21864182757E-01  0.51100000000E-03 0. -1.
</event>
<event>
 8    1  0.1143506E+005  0.1043930E+01  0.7957747E-01            NaN
         13   -1    0    0    0    0  0.00000000000E+00  0.00000000000E+00  0.74505805969E-08  0.10566000000E+00  0.10566000000E+00 0.  1.
     999900   -1    0    0    0    0 -0.00000000000E+00 -0.00000000000E+00 -0.74505805969E-08  0.93827000000E+00  0.93827000000E+00 0.  1.
     999902    2    1    2    0    0 -0.15629155721E-01 -0.18311815895E-01 -0.73770028044E-03  0.10198439602E+01  0.10195594960E+01 0.  0.
     999903    2    3    3    0    0  0.12049110085E+00  0.71766192593E-02  0.38247265613E-01  0.12816116229E+00  0.19819711012E-01 0.  0.
         14    1    1    2    0    0  0.15629155721E-01  0.18311815895E-01  0.73770028044E-03  0.24086039767E-01  0.00000000000E+00 0.  1.
     999901    1    3    3    0    0 -0.13612025657E+00 -0.25488435155E-01 -0.38984965894E-01  0.89168279794E+00  0.88000000000E+00 0.  1.
        -11    1    4    4    0    0  0.10549111082E+00  0.18568178893E-02  0.38277669900E-01  0.11223753102E+00  0.51100000000E-03 0. -1.
         11    1    4    4    0    0  0.14999990034E-01  0.53198013701E-02 -0.30404286536E-04  0.15923631277E-01  0.51100000000E-03 0.  1.
</event>
<event>
 8    1  0.1143506E+005  0.1043930E+01  0.7957747E-01            NaN
         13   -1    0    0    0    0  0.00000000000E+00  0.00000000000E+00  0.74505805969E-08  0.10566000000E+00  0.10566000000E+00 0. -1.
     999900   -1    0    0    0    0 -0.00000000000E+00 -0.00000000000E+00 -0.74505805969E-08  0.93827000000E+00  0.93827000000E+00 0. -1.
     999902    2    1    2    0    0 -0.21306053306E-01  0.10139437703E-01  0.37947832379E-02  0.10200311196E+01  0.10197511110E+01 0.  0.
     999903    2    3    3    0    0 -0.44135425746E-01 -0.11878434328E+00 -0.19719712357E-01  0.13003367407E+00  0.21499612129E-01 0.  0.
         14    1    1    2    0    0  0.21306053306E-01 -0.10139437703E-01 -0.37947832379E-02  0.23898880397E-01  0.00000000000E+00 0.  1.
     999901    1    3    3    0    0  0.22829372440E-01  0.12892378099E+00  0.23514495595E-01  0.88999744553E+00  0.88000000000E+00 0. -1.
        -11    1    4    4    0    0 -0.46044405801E-01 -0.11276588750E+00 -0.20913717215E-01  0.12358752922E+00  0.51100000000E-03 0. -1.
         11    1    4    4    0    0  0.19089800548E-02 -0.60184557797E-02  0.11940048586E-02  0.64461448497E-02  0.51100000000E-03 0.  1.
</event>
<event>
 7    1  0.1143506E+005  0.1043930E+01  0.7957747E-01            NaN
         13   -1    0    0    0    0  0.00000000000E+00  0.00000000000E+00  0.74505805969E-08  0.10566000000E+00  0.10566000000E+00 0.  1.
     999900   -1    0    0    0    0 -0.00000000000E+00 -0.00000000000E+00 -0.74505805969E-08  0.93827000000E+00  0.93827000000E+00 0. -1.
     999903    2    1    2    0    0 -0.66254807645E-01  0.88417467095E-01 -0.10481511532E-01  0.11280076164E+00  0.20169326211E-01 0.  0.
         14    1    1    2    0    0 -0.22205318895E-01 -0.28665054117E-01  0.25873781077E-01  0.44544517754E-01  0.00000000000E+00 0.  1.
     999901    1    1    2    0    0  0.88460126540E-01 -0.59752412978E-01 -0.15392269545E-01  0.88658472060E+00  0.88000000000E+00 0. -1.
        -11    1    3    3    0    0 -0.61312865754E-01  0.71568655298E-01 -0.12704057375E-01  0.95094658751E-01  0.51100000000E-03 0. -1.
         11    1    3    3    0    0 -0.49419418905E-02  0.16848811796E-01  0.22225458429E-02  0.17706102892E-01  0.51100000000E-03 0.  1.
</event>
<event>
 8    1  0.1143506E+005  0.1043930E+01  0.7957747E-01            NaN
         13   -1    0    0    0    0  0.00000000000E+00  0.00000000000E+00  0.74505805969E-08  0.10566000000E+00  0.10566000000E+00 0. -1.
     999900   -1    0    0    0    0 -0.00000000000E+00 -0.00000000000E+00 -0.74505805969E-08  0.93827000000E+00  0.93827000000E+00 0.  1.
     999902    2    1    2    0    0  0.68424101350E-02 -0.22862737497E-01 -0.27952920815E-02  0.10199021620E+01  0.10196190872E+01 0.  0.
     999903    2    3    3    0    0  0.11071531053E+00  0.21870502880E-02 -0.66779869360E-01  0.13113273325E+00  0.21761884198E-01 0.  0.
         14    1    1    2    0    0 -0.68424101350E-02  0.22862737497E-01  0.27952920815E-02  0.24027838025E-01  0.00000000000E+00 0. -1.
     999901    1    3    3    0    0 -0.10387290039E+00 -0.25049787785E-01  0.63984577279E-01  0.88876942872E+00  0.88000000000E+00 0.  1.
        -11    1    4    4    0    0  0.97942300928E-01 -0.47769909395E-02 -0.55181669890E-01  0.11252018382E+00  0.51100000000E-03 0.  1.
         11    1    4    4    0    0  0.12773009601E-01  0.69640412275E-02 -0.11598199470E-01  0.18612549434E-01  0.51100000000E-03 0. -1.
</event>
<event>
 8    1  0.1143506E+005  0.1043930E+01  0.7957747E-01            NaN
         13   -1    0    0    0    0  0.00000000000E+00  0.00000000000E+00  0.74505805969E-08  0.10566000000E+00  0.10566000000E+00 0.  1.
     999900   -1    0    0    0    0 -0.00000000000E+00 -0.00000000000E+00 -0.74505805969E-08  0.93827000000E+00  0.93827000000E+00 0. -1.
     999902    2    1    2    0    0 -0.78092923025E-02  0.17217245447E-01  0.13822788526E-01  0.10205101778E+01  0.10202414102E+01 0.  0.
     999903    2    3    3    0    0  0.58957660779E-01 -0.91459227604E-02 -0.11226809456E+00  0.12862915806E+00  0.19536672698E-01 0.  0.
         14    1    1    2    0    0  0.78092923025E-02 -0.17217245447E-01 -0.13822788526E-01  0.23419822153E-01  0.00000000000E+00 0.  1.
     999901    1    3    3    0    0 -0.66766953081E-01  0.26363168208E-01  0.12609088308E+00  0.89188101979E+00  0.88000000000E+00 0.  1.
        -11    1    4    4    0    0  0.40351087850E-02 -0.50957237784E-02 -0.56526661882E-02  0.86291517409E-02  0.51100000000E-03 0.  1.
         11    1    4    4    0    0  0.54922551994E-01 -0.40501989819E-02 -0.10661542837E+00  0.12000000632E+00  0.51100000000E-03 0. -1.
</event>
<event>
 8    1  0.1143506E+005  0.1043930E+01  0.7957747E-01            NaN
         13   -1    0    0    0    0  0.00000000000E+00  0.00000000000E+00  0.74505805969E-08  0.10566000000E+00  0.10566000000E+00 0. -1.
     999900   -1    0    0    0    0 -0.00000000000E+00 -0.00000000000E+00 -0.74505805969E-08  0.93827000000E+00  0.93827000000E+00 0.  1.
     999902    2    1    2    0    0 -0.23133067470E-01 -0.18503549342E-02  0.58633599929E-02  0.10199938012E+01  0.10197129071E+01 0.  0.
     999903    2    3    3    0    0 -0.48924620865E-01 -0.89073999993E-01 -0.80025720423E-01  0.13114617496E+00  0.21619603983E-01 0.  0.
         14    1    1    2    0    0  0.23133067470E-01  0.18503549342E-02 -0.58633599929E-02  0.23936198829E-01  0.00000000000E+00 0.  1.
     999901    1    3    3    0    0  0.25791553394E-01  0.87223645059E-01  0.85889080416E-01  0.88884762621E+00  0.88000000000E+00 0. -1.
        -11    1    4    4    0    0 -0.16092325055E-01 -0.22012150049E-01 -0.33380717063E-01  0.43104884504E-01  0.51100000000E-03 0. -1.
         11    1    4    4    0    0 -0.32832295809E-01 -0.67061849944E-01 -0.46645003360E-01  0.88041290458E-01  0.51100000000E-03 0.  1.
</event>
<event>
 8    1  0.1143506E+005  0.1043930E+01  0.7957747E-01            NaN
         13   -1    0    0    0    0  0.00000000000E+00  0.00000000000E+00  0.74505805969E-08  0.10566000000E+00  0.10566000000E+00 0. -1.
     999900   -1    0    0    0    0 -0.00000000000E+00 -0.00000000000E+00 -0.74505805969E-08  0.93827000000E+00  0.93827000000E+00 0.  1.
     999902    2    1    2    0    0 -0.21391421957E-01  0.48930738822E-02  0.10026255054E-01  0.10198040618E+01  0.10195186430E+01 0.  0.
     999903    2    3    3    0    0  0.84970397060E-01 -0.75427919583E-01  0.56728851885E-01  0.12854347636E+00  0.19897820246E-01 0.  0.
         14    1    1    2    0    0  0.21391421957E-01 -0.48930738822E-02 -0.10026255054E-01  0.24125938236E-01  0.00000000000E+00 0. -1.
     999901    1    3    3    0    0 -0.10636181902E+00  0.80320993465E-01 -0.46702596831E-01  0.89126058540E+00  0.88000000000E+00 0.  1.
        -11    1    4    4    0    0  0.39562347525E-01 -0.48210146698E-01  0.32332323395E-01  0.70249824508E-01  0.51100000000E-03 0.  1.
         11    1    4    4    0    0  0.45408049535E-01 -0.27217772886E-01  0.24396528489E-01  0.58293651856E-01  0.51100000000E-03 0. -1.
</event>
<event>
 8    1  0.1143506E+005  0.1043930E+01  0.7957747E-01            NaN
         13   -1    0    0    0    0  0.00000000000E+00  0.00000000000E+00  0.74505805969E-08  0.10566000000E+00  0.10566000000E+00 0.  1.
     999900   -1    0    0    0    0 -0.00000000000E+00 -0.00000000000E+00 -0.74505805969E-08  0.93827000000E+00  0.93827000000E+00 0. -1.
     999902    2    1    2    0    0  0.15312716223E-01 -0.16107587960E-01  0.92109207540E-02  0.10198722626E+01  0.10195884745E+01 0.  0.
     999903    2    3    3    0    0  0.95854031561E-01  0.14594127082E-01 -0.85325961653E-01  0.13062161125E+00  0.19506452294E-01 0.  0.
         14    1    1    2    0    0 -0.15312716223E-01  0.16107587960E-01 -0.92109207540E-02  0.24057737407E-01  0.00000000000E+00 0.  1.
     999901    1    3    3    0    0 -0.80541315338E-01 -0.30701715042E-01  0.94536882407E-01  0.88925065135E+00  0.88000000000E+00 0.  1.
        -11    1    4    4    0    0  0.73258557015E-01  0.28908307644E-02 -0.66239909904E-01  0.98808703380E-01  0.51100000000E-03 0.  1.
         11    1    4    4    0    0  0.22595474546E-01  0.11703296317E-01 -0.19086051749E-01  0.31812907868E-01  0.51100000000E-03 0. -1.
</event>
<event>
 8    1  0.1143506E+005  0.1043930E+01  0.7957747E-01            NaN
         13   -1    0    0    0    0  0.00000000000E+00  0.00000000000E+00  0.74505805969E-08  0.10566000000E+00  0.10566000000E+00 0.  1.
     999900   -1    0    0    0    0 -0.00000000000E+00 -0.00000000000E+00 -0.74505805969E-08  0.93827000000E+00  0.93827000000E+00 0.  1.
     999902    2    1    2    0    0  0.23624647040E-01  0.92625522764E-03 -0.52744319905E-02  0.10197060133E+01  0.10194182420E+01 0.  0.
     999903    2    3    3    0    0 -0.53827658398E-01  0.11037072646E+00 -0.34373142137E-01  0.12907495234E+00  0.19992907561E-01 0.  0.
         14    1    1    2    0    0 -0.23624647040E-01 -0.92625522764E-03  0.52744319905E-02  0.24223986653E-01  0.00000000000E+00 0. -1.
     999901    1    3    3    0    0  0.77452305438E-01 -0.10944447123E+00  0.29098710146E-01  0.89063106101E+00  0.88000000000E+00 0. -1.
        -11    1    4    4    0    0 -0.79187898055E-02  0.32768360355E-01 -0.41094767377E-02  0.33965005409E-01  0.51100000000E-03 0. -1.
         11    1    4    4    0    0 -0.45908868592E-01  0.77602366106E-01 -0.30263665399E-01  0.95109946930E-01  0.51100000000E-03 0.  1.
</event>
<event>
 8    1  0.1143506E+005  0.1043930E+01  0.7957747E-01            NaN
         13   -1    0    0    0    0  0.00000000000E+00  0.00000000000E+00  0.74505805969E-08  0.10566000000E+00  0.10566000000E+00 0.  1.
     999900   -1    0    0    0    0 -0.00000000000E+00 -0.00000000000E+00 -0.74505805969E-08  0.93827000000E+00  0.93827000000E+00 0.  1.
     999902    2    1    2    0    0 -0.15690355406E-01 -0.13690267542E-01 -0.11455540934E-01  0.10201636352E+01  0.10198867596E+01 0.  0.
     999903    2    3    3    0    0 -0.21960038143E-01 -0.12605226093E+00 -0.29295331894E-01  0.13281771357E+00  0.20270984332E-01 0.  0.
         14    1    1    2    0    0  0.15690355406E-01  0.13690267542E-01  0.11455540934E-01  0.23766364809E-01  0.00000000000E+00 0.  1.
     999901    1    3    3    0    0  0.62696827372E-02  0.11236199339E+00  0.17839790960E-01  0.88734592162E+00  0.88000000000E+00 0.  1.
        -11    1    4    4    0    0  0.26708202301E-02 -0.38144441165E-01 -0.94269234384E-02  0.39386034061E-01  0.51100000000E-03 0. -1.
         11    1    4    4    0    0 -0.24630858373E-01 -0.87907819765E-01 -0.19868408455E-01  0.93431679508E-01  0.51100000000E-03 0.  1.
</event>
<event>
 8    1  0.1143506E+005  0.1043930E+01  0.7957747E-01            NaN
         13   -1    0    0    0    0  0.00000000000E+00  0.00000000000E+00  0.74505805969E-08  0.10566000000E+00  0.10566000000E+00 0.  1.
     999900   -1    0    0    0    0 -0.00000000000E+00 -0.00000000000E+00 -0.74505805969E-08  0.93827000000E+00  0.93827000000E+00 0.  1.
     999902    2    1    2    0    0 -0.12460597870E-01 -0.44757275420E-02  0.20101891370E-01  0.10198595893E+01  0.10195754985E+01 0.  0.
     999903    2    3    3    0    0  0.12532648032E-02  0.24562432194E-01  0.12876481118E+00  0.13259473879E+00  0.19902371895E-01 0.  0.
         14    1    1    2    0    0  0.12460597870E-01  0.44757275420E-02 -0.20101891370E-01  0.24070410735E-01  0.00000000000E+00 0.  1.
     999901    1    3    3    0    0 -0.13713862674E-01 -0.29038159736E-01 -0.10866291981E+00  0.88726485048E+00  0.88000000000E+00 0.  1.
        -11    1    4    4    0    0  0.16592484815E-02 -0.33064913789E-02  0.13519071874E-01  0.14025420354E-01  0.51100000000E-03 0.  1.
         11    1    4    4    0    0 -0.40598367827E-03  0.27868923573E-01  0.11524573931E+00  0.11856931843E+00  0.51100000000E-03 0. -1.
</event>
<event>
 8    1  0.1143506E+005  0.1043930E+01  0.7957747E-01            NaN
         13   -1    0    0    0    0  0.00000000000E+00  0.00000000000E+00  0.74505805969E-08  0.10566000000E+00  0.10566000000E+00 0.  1.
     999900   -1    0    0    0    0 -0.00000000000E+00 -0.00000000000E+00 -0.74505805969E-08  0.93827000000E+00  0.93827000000E+00 0.  1.
     999902    2    1    2    0    0 -0.23277913400E-01 -0.50637349636E-02 -0.26109404203E-02  0.10199650324E+01  0.10196834546E+01 0.  0.
     999903    2    3    3    0    0  0.22823598063E-02 -0.62262607963E-01  0.11201254517E+00  0.13032264236E+00  0.23565638547E-01 0.  0.
         14    1    1    2    0    0  0.23277913400E-01  0.50637349636E-02  0.26109404203E-02  0.23964967638E-01  0.00000000000E+00 0. -1.
     999901    1    3    3    0    0 -0.25560273206E-01  0.57198873000E-01 -0.11462348559E+00  0.88964239000E+00  0.88000000000E+00 0.  1.
        -11    1    4    4    0    0  0.85026538743E-02 -0.74966153415E-02  0.16047277171E-01  0.19653767834E-01  0.51100000000E-03 0.  1.
         11    1    4    4    0    0 -0.62202940681E-02 -0.54765992622E-01  0.95965267997E-01  0.11066887453E+00  0.51100000000E-03 0. -1.
</event>
<event>
 8    1  0.1143506E+005  0.1043930E+01  0.7957747E-01            NaN
         13   -1    0    0    0    0  0.00000000000E+00  0.00000000000E+00  0.74505805969E-08  0.10566000000E+00  0.10566000000E+00 0.  1.
     999900   -1    0    0    0    0 -0.00000000000E+00 -0.00000000000E+00 -0.74505805969E-08  0.93827000000E+00  0.93827000000E+00 0.  1.
     999902    2    1    2    0    0 -0.13833585214E-01 -0.17856322289E-01  0.65626886557E-02  0.10204079846E+01  0.10201368388E+01 0.  0.
     999903    2    3    3    0    0 -0.11718890367E+00  0.52478692516E-01 -0.13575826149E-01  0.13134392846E+00  0.24076382097E-01 0.  0.
         14    1    1    2    0    0  0.13833585214E-01  0.17856322289E-01 -0.65626886557E-02  0.23522015389E-01  0.00000000000E+00 0. -1.
     999901    1    3    3    0    0  0.10335531846E+00 -0.70335014806E-01  0.20138514805E-01  0.88906405615E+00  0.88000000000E+00 0. -1.
        -11    1    4    4    0    0 -0.23076500308E-01  0.72272116524E-03 -0.47402141832E-02  0.23574943135E-01  0.51100000000E-03 0. -1.
         11    1    4    4    0    0 -0.94112403367E-01  0.51755971351E-01 -0.88356119661E-02  0.10776898532E+00  0.51100000000E-03 0.  1.
</event>
<event>
 8    1  0.1143506E+005  0.1043930E+01  0.7957747E-01            NaN
         13   -1    0    0    0    0  0.00000000000E+00  0.00000000000E+00  0.74505805969E-08  0.10566000000E+00  0.10566000000E+00 0.  1.
     999900   -1    0    0    0    0 -0.00000000000E+00 -0.00000000000E+00 -0.74505805969E-08  0.93827000000E+00  0.93827000000E+00 0. -1.
     999902    2    1    2    0    0 -0.76131343469E-03  0.32302406568E-02  0.23294639015E-01  0.10204001411E+01  0.10201288123E+01 0.  0.
     999903    2    3    3    0    0 -0.11660871752E+00  0.23895568154E-01 -0.47559912051E-01  0.12974417823E+00  0.20075242734E-01 0.  0.
         14    1    1    2    0    0  0.76131343469E-03 -0.32302406568E-02 -0.23294639015E-01  0.23529858897E-01  0.00000000000E+00 0. -1.
     999901    1    3    3    0    0  0.11584740409E+00 -0.20665327497E-01  0.70854551066E-01  0.89065596287E+00  0.88000000000E+00 0.  1.
        -11    1    4    4    0    0 -0.87869592239E-01  0.18258272439E-01 -0.26206656454E-01  0.93495880745E-01  0.51100000000E-03 0. -1.
         11    1    4    4    0    0 -0.28739125282E-01  0.56372957147E-02 -0.21353255597E-01  0.36248297485E-01  0.51100000000E-03 0.  1.
</event>
<event>
 8    1  0.1143506E+005  0.1043930E+01  0.7957747E-01            NaN
         13   -1    0    0    0    0  0.00000000000E+00  0.00000000000E+00  0.74505805969E-08  0.10566000000E+00  0.10566000000E+00 0. -1.
     999900   -1    0    0    0    0 -0.00000000000E+00 -0.00000000000E+00 -0.74505805969E-08  0.93827000000E+00  0.93827000000E+00 0. -1.
     999902    2    1    2    0    0  0.16839094066E-01  0.14265166980E-01 -0.42510741189E-02  0.10214550871E+01  0.10212078012E+01 0.  0.
     999903    2    3    3    0    0  0.70763814651E-01  0.74185225102E-01 -0.84234589213E-01  0.13415826443E+00  0.19799212327E-01 0.  0.
         14    1    1    2    0    0 -0.16839094066E-01 -0.14265166980E-01  0.42510741189E-02  0.22474912883E-01  0.00000000000E+00 0. -1.
     999901    1    3    3    0    0 -0.53924720584E-01 -0.59920058122E-01  0.79983515094E-01  0.88729682268E+00  0.88000000000E+00 0.  1.
        -11    1    4    4    0    0  0.16212419135E-01  0.25042729179E-01 -0.33777003351E-01  0.45068036293E-01  0.51100000000E-03 0.  1.
         11    1    4    4    0    0  0.54551395516E-01  0.49142495924E-01 -0.50457585862E-01  0.89090228142E-01  0.51100000000E-03 0. -1.
</event>
<event>
 8    1  0.1143506E+005  0.1043930E+01  0.7957747E-01            NaN
         13   -1    0    0    0    0  0.00000000000E+00  0.00000000000E+00  0.74505805969E-08  0.10566000000E+00  0.10566000000E+00 0.  1.
     999900   -1    0    0    0    0 -0.00000000000E+00 -0.00000000000E+00 -0.74505805969E-08  0.93827000000E+00  0.93827000000E+00 0.  1.
     999902    2    1    2    0    0 -0.17270779644E-01  0.77560689844E-02  0.99547990883E-02  0.10225399448E+01  0.10223161959E+01 0.  0.
     999903    2    3    3    0    0  0.41686479903E-01  0.12468344439E+00  0.17441177865E-01  0.13281863147E+00  0.72711943211E-02 0.  0.
         14    1    1    2    0    0  0.17270779644E-01 -0.77560689844E-02 -0.99547990883E-02  0.21390055177E-01  0.00000000000E+00 0.  1.
     999901    1    3    3    0    0 -0.58957259547E-01 -0.11692737541E+00 -0.74863787771E-02  0.88972131336E+00  0.88000000000E+00 0.  1.
        -11    1    4    4    0    0  0.96272756343E-02  0.39034253344E-01  0.46830334325E-02  0.40478998176E-01  0.51100000000E-03 0. -1.
         11    1    4    4    0    0  0.32059204269E-01  0.85649191049E-01  0.12758144433E-01  0.92339633290E-01  0.51100000000E-03 0.  1.
</event>
<event>
 8    1  0.1143506E+005  0.1043930E+01  0.7957747E-01            NaN
         13   -1    0    0    0    0  0.00000000000E+00  0.00000000000E+00  0.74505805969E-08  0.10566000000E+00  0.10566000000E+00 0. -1.
     999900   -1    0    0    0    0 -0.00000000000E+00 -0.00000000000E+00 -0.74505805969E-08  0.93827000000E+00  0.93827000000E+00 0.  1.
     999902    2    1    2    0    0  0.19200857916E-01  0.14552132632E-01  0.83254901861E-02  0.10184397804E+01  0.10181207369E+01 0.  0.
     999903    2    3    3    0    0 -0.35936339912E-02  0.10669197868E+00 -0.71130242526E-01  0.12977642819E+00  0.19654958449E-01 0.  0.
         14    1    1    2    0    0 -0.19200857916E-01 -0.14552132632E-01 -0.83254901861E-02  0.25490219609E-01  0.00000000000E+00 0.  1.
     999901    1    3    3    0    0  0.22794491908E-01 -0.92139846046E-01  0.79455732712E-01  0.88866335220E+00  0.88000000000E+00 0. -1.
        -11    1    4    4    0    0 -0.61459447819E-02  0.18095145211E-01 -0.18973087935E-01  0.26934106710E-01  0.51100000000E-03 0. -1.
         11    1    4    4    0    0  0.25523107907E-02  0.88596833467E-01 -0.52157154591E-01  0.10284232148E+00  0.51100000000E-03 0.  1.
</event>
<event>
 8    1  0.1143506E+005  0.1043930E+01  0.7957747E-01            NaN
         13   -1    0    0    0    0  0.00000000000E+00  0.00000000000E+00  0.74505805969E-08  0.10566000000E+00  0.10566000000E+00 0. -1.
     999900   -1    0    0    0    0 -0.00000000000E+00 -0.00000000000E+00 -0.74505805969E-08  0.93827000000E+00  0.93827000000E+00 0. -1.
     999902    2    1    2    0    0 -0.11442468142E-01 -0.17774501428E-01 -0.13523462355E-01  0.10188352393E+01  0.10185261400E+01 0.  0.
     999903    2    3    3    0    0 -0.63206035783E-01  0.54670789583E-01 -0.97970800930E-01  0.13032010716E+00  0.20028836796E-01 0.  0.
         14    1    1    2    0    0  0.11442468142E-01  0.17774501428E-01  0.13523462355E-01  0.25094760654E-01  0.00000000000E+00 0. -1.
     999901    1    3    3    0    0  0.51763567641E-01 -0.72445291011E-01  0.84447338575E-01  0.88851513218E+00  0.88000000000E+00 0.  1.
        -11    1    4    4    0    0 -0.61682538507E-01  0.56266694757E-01 -0.96563967496E-01  0.12765397540E+00  0.51100000000E-03 0.  1.
         11    1    4    4    0    0 -0.15234972763E-02 -0.15959051749E-02 -0.14068334339E-02  0.26661317651E-02  0.51100000000E-03 0. -1.
</event>
<event>
 8    1  0.1143506E+005  0.1043930E+01  0.7957747E-01            NaN
         13   -1    0    0    0    0  0.00000000000E+00  0.00000000000E+00  0.74505805969E-08  0.10566000000E+00  0.10566000000E+00 0. -1.
     999900   -1    0    0    0    0 -0.00000000000E+00 -0.00000000000E+00 -0.74505805969E-08  0.93827000000E+00  0.93827000000E+00 0.  1.
     999902    2    1    2    0    0 -0.30348279609E-02  0.11180793881E-01  0.20148360096E-01  0.10206882972E+01  0.10204236490E+01 0.  0.
     999903    2    3    3    0    0  0.12374162576E+00 -0.28528292281E-01 -0.17735795924E-01  0.12991094570E+00  0.20891193094E-01 0.  0.
         14    1    1    2    0    0  0.30348279609E-02 -0.11180793881E-01 -0.20148360096E-01  0.23241702759E-01  0.00000000000E+00 0.  1.
     999901    1    3    3    0    0 -0.12677645372E+00  0.39709086162E-01  0.37884156020E-01  0.89077735154E+00  0.88000000000E+00 0.  1.
        -11    1    4    4    0    0  0.89525255398E-01 -0.14605219422E-01 -0.20030874336E-01  0.92895537224E-01  0.51100000000E-03 0.  1.
         11    1    4    4    0    0  0.34216370363E-01 -0.13923072859E-01  0.22950784125E-02  0.37015408475E-01  0.51100000000E-03 0. -1.
</event>
<event>
 8    1  0.1143506E+005  0.1043930E+01  0.7957747E-01            NaN
         13   -1    0    0    0    0  0.00000000000E+00  0.00000000000E+00  0.74505805969E-08  0.10566000000E+00  0.10566000000E+00 0.  1.
     999900   -1    0    0    0    0 -0.00000000000E+00 -0.00000000000E+00 -0.74505805969E-08  0.93827000000E+00  0.93827000000E+00 0.  1.
     999902    2    1    2    0    0  0.11910810267E-01 -0.16087459870E-01  0.13298284684E-01  0.10198983929E+01  0.10196152282E+01 0.  0.
     999903    2    3    3    0    0 -0.16682690991E-01  0.80122284767E-01  0.99680196825E-01  0.12999067965E+00  0.16233990962E-01 0.  0.
         14    1    1    2    0    0 -0.11910810267E-01  0.16087459870E-01 -0.13298284684E-01  0.24031607142E-01  0.00000000000E+00 0. -1.
     999901    1    3    3    0    0  0.28593501258E-01 -0.96209744637E-01 -0.86381912141E-01  0.88990771321E+00  0.88000000000E+00 0. -1.
        -11    1    4    4    0    0  0.87450924909E-03  0.34800269104E-01  0.42760793658E-01  0.55141364613E-01  0.51100000000E-03 0.  1.
         11    1    4    4    0    0 -0.17557200240E-01  0.45322015663E-01  0.56919403167E-01  0.74849315040E-01  0.51100000000E-03 0. -1.
</event>
<event>
 8    1  0.1143506E+005  0.1043930E+01  0.7957747E-01            NaN
         13   -1    0    0    0    0  0.00000000000E+00  0.00000000000E+00  0.74505805969E-08  0.10566000000E+00  0.10566000000E+00 0. -1.
     999900   -1    0    0    0    0 -0.00000000000E+00 -0.00000000000E+00 -0.74505805969E-08  0.93827000000E+00  0.93827000000E+00 0.  1.
     999902    2    1    2    0    0 -0.10676082707E-01  0.11484694689E-01  0.17151082068E-01  0.10206913131E+01  0.10204267343E+01 0.  0.
     999903    2    3    3    0    0  0.51030840503E-02  0.41319190025E-01 -0.12078643315E+00  0.12930708766E+00  0.19941001820E-01 0.  0.
         14    1    1    2    0    0  0.10676082707E-01 -0.11484694689E-01 -0.17151082068E-01  0.23238686929E-01  0.00000000000E+00 0.  1.
     999901    1    3    3    0    0 -0.15779166758E-01 -0.29834495336E-01  0.13793751522E+00  0.89138422542E+00  0.88000000000E+00 0. -1.
        -11    1    4    4    0    0  0.12539832663E-01  0.22403456434E-01 -0.62167135632E-01  0.67261996232E-01  0.51100000000E-03 0.  1.
         11    1    4    4    0    0 -0.74367486125E-02  0.18915733591E-01 -0.58619297518E-01  0.62045091424E-01  0.51100000000E-03 0. -1.
</event>
<event>
 8    1  0.1143506E+005  0.1043930E+01  0.7957747E-01            NaN
         13   -1    0    0    0    0  0.00000000000E+00  0.00000000000E+00  0.74505805969E-08  0.10566000000E+00  0.10566000000E+00 0. -1.
     999900   -1    0    0    0    0 -0.00000000000E+00 -0.00000000000E+00 -0.74505805969E-08  0.93827000000E+00  0.93827000000E+00 0.  1.
     999902    2    1    2    0    0 -0.13293263591E-01 -0.17558434198E-01  0.22242117716E-02  0.10217950370E+01  0.10215552560E+01 0.  0.
     999903    2    3    3    0    0  0.53726690557E-01  0.10461768302E+00 -0.50290697345E-01  0.12928369616E+00  0.18806992706E-01 0.  0.
         14    1    1    2    0    0  0.13293263591E-01  0.17558434198E-01 -0.22242117716E-02  0.22134962986E-01  0.00000000000E+00 0.  1.
     999901    1    3    3    0    0 -0.67019954149E-01 -0.12217611722E+00  0.52514909116E-01  0.89251134085E+00  0.88000000000E+00 0. -1.
        -11    1    4    4    0    0  0.27312714682E-01  0.51662526013E-01 -0.14827026947E-01  0.60291813925E-01  0.51100000000E-03 0. -1.
         11    1    4    4    0    0  0.26413975875E-01  0.52955157008E-01 -0.35463670398E-01  0.68991882235E-01  0.51100000000E-03 0.  1.
</event>
<event>
 8    1  0.1143506E+005  0.1043930E+01  0.7957747E-01            NaN
         13   -1    0    0    0    0  0.00000000000E+00  0.00000000000E+00  0.74505805969E-08  0.10566000000E+00  0.10566000000E+00 0. -1.
     999900   -1    0    0    0    0 -0.00000000000E+00 -0.00000000000E+00 -0.74505805969E-08  0.93827000000E+00  0.93827000000E+00 0.  1.
     999902    2    1    2    0    0  0.24378832253E-01  0.10994623349E-02  0.13685002097E-02  0.10194880469E+01  0.10191950101E+01 0.  0.
     999903    2    3    3    0    0 -0.45668038613E-01 -0.15185008571E-01 -0.11753853845E+00  0.12858365697E+00  0.20057282557E-01 0.  0.
         14    1    1    2    0    0 -0.24378832253E-01 -0.10994623349E-02 -0.13685002097E-02  0.24441953119E-01  0.00000000000E+00 0. -1.
     999901    1    3    3    0    0  0.70046870866E-01  0.16284470906E-01  0.11890703866E+00  0.89090438991E+00  0.88000000000E+00 0. -1.
        -11    1    4    4    0    0 -0.71561632640E-02 -0.11349546667E-01 -0.29426680850E-01  0.32345224517E-01  0.51100000000E-03 0. -1.
         11    1    4    4    0    0 -0.38511875349E-01 -0.38354619038E-02 -0.88111857601E-01  0.96238432457E-01  0.51100000000E-03 0.  1.
</event>
<event>
 8    1  0.1143506E+005  0.1043930E+01  0.7957747E-01            NaN
         13   -1    0    0    0    0  0.00000000000E+00  0.00000000000E+00  0.74505805969E-08  0.10566000000E+00  0.10566000000E+00 0.  1.
     999900   -1    0    0    0    0 -0.00000000000E+00 -0.00000000000E+00 -0.74505805969E-08  0.93827000000E+00  0.93827000000E+00 0. -1.
     999902    2    1    2    0    0  0.11462976514E-01 -0.58000075739E-03 -0.20612694219E-01  0.10203372173E+01  0.10200644184E+01 0.  0.
     999903    2    3    3    0    0  0.64740482965E-01 -0.64121315432E-01 -0.96001762861E-01  0.13322983767E+00  0.15197958618E-01 0.  0.
         14    1    1    2    0    0 -0.11462976514E-01  0.58000075739E-03  0.20612694219E-01  0.23592782676E-01  0.00000000000E+00 0.  1.
     999901    1    3    3    0    0 -0.53277506451E-01  0.63541314675E-01  0.75389068643E-01  0.88710737965E+00  0.88000000000E+00 0.  1.
        -11    1    4    4    0    0  0.48153095829E-01 -0.38006031581E-01 -0.66558730824E-01  0.90517980779E-01  0.51100000000E-03 0. -1.
         11    1    4    4    0    0  0.16587387136E-01 -0.26115283851E-01 -0.29443032037E-01  0.42711856892E-01  0.51100000000E-03 0.  1.
</event>
<event>
 8    1  0.1143506E+005  0.1043930E+01  0.7957747E-01            NaN
         13   -1    0    0    0    0  0.00000000000E+00  0.00000000000E+00  0.74505805969E-08  0.10566000000E+00  0.10566000000E+00 0. -1.
     999900   -1    0    0    0    0 -0.00000000000E+00 -0.00000000000E+00 -0.74505805969E-08  0.93827000000E+00  0.93827000000E+00 0.  1.
     999902    2    1    2    0    0  0.68425859421E-02 -0.20279285695E-01 -0.96018394949E-02  0.10204722565E+01  0.10202026076E+01 0.  0.
     999903    2    3    3    0    0 -0.10251217418E+00  0.62005760896E-01  0.41661912145E-01  0.12841997957E+00  0.20062801149E-01 0.  0.
         14    1    1    2    0    0 -0.68425859421E-02  0.20279285695E-01  0.96018394949E-02  0.23457743548E-01  0.00000000000E+00 0. -1.
     999901    1    3    3    0    0  0.10935476012E+00 -0.82285046591E-01 -0.51263751640E-01  0.89205227688E+00  0.88000000000E+00 0.  1.
        -11    1    4    4    0    0 -0.59722145744E-01  0.47430146553E-01  0.26048019428E-01  0.80592269676E-01  0.51100000000E-03 0. -1.
         11    1    4    4    0    0 -0.42790028438E-01  0.14575614343E-01  0.15613892716E-01  0.47827709897E-01  0.51100000000E-03 0.  1.
</event>
<event>
 8    1  0.1143506E+005  0.1043930E+01  0.7957747E-01            NaN
         13   -1    0    0    0    0  0.00000000000E+00  0.00000000000E+00  0.74505805969E-08  0.10566000000E+00  0.10566000000E+00 0. -1.
     999900   -1    0    0    0    0 -0.00000000000E+00 -0.00000000000E+00 -0.74505805969E-08  0.93827000000E+00  0.93827000000E+00 0. -1.
     999902    2    1    2    0    0 -0.15967931945E-01 -0.16259870162E-01  0.60492260751E-02  0.10203513791E+01  0.10200789114E+01 0.  0.
     999903    2    3    3    0    0 -0.30713867581E-01  0.11544235692E+00  0.45676884484E-01  0.12954653483E+00  0.20631225745E-01 0.  0.
         14    1    1    2    0    0  0.15967931945E-01  0.16259870162E-01 -0.60492260751E-02  0.23578620918E-01  0.00000000000E+00 0. -1.
     999901    1    3    3    0    0  0.14745935636E-01 -0.13170222709E+00 -0.39627658409E-01  0.89080484425E+00  0.88000000000E+00 0.  1.
        -11    1    4    4    0    0 -0.11181978109E-01  0.70497814433E-01  0.34496517197E-01  0.79279564164E-01  0.51100000000E-03 0. -1.
         11    1    4    4    0    0 -0.19531889472E-01  0.44944542491E-01  0.11180367287E-01  0.50266970664E-01  0.51100000000E-03 0.  1.
</event>
<event>
 8    1  0.1143506E+005  0.1043930E+01  0.7957747E-01            NaN
         13   -1    0    0    0    0  0.00000000000E+00  0.00000000000E+00  0.74505805969E-08  0.10566000000E+00  0.10566000000E+00 0. -1.
     999900   -1    0    0    0    0 -0.00000000000E+00 -0.00000000000E+00 -0.74505805969E-08  0.93827000000E+00  0.93827000000E+00 0. -1.
     999902    2    1    2    0    0  0.90751427083E-02  0.17076575569E-01 -0.12698402944E-01  0.10207952407E+01  0.10205330501E+01 0.  0.
     999903    2    3    3    0    0  0.72678828803E-01 -0.97155216237E-01  0.40429797347E-01  0.12955064087E+00  0.20674908418E-01 0.  0.
         14    1    1    2    0    0 -0.90751427083E-02 -0.17076575569E-01  0.12698402944E-01  0.23134759252E-01  0.00000000000E+00 0. -1.
     999901    1    3    3    0    0 -0.63603686095E-01  0.11423179181E+00 -0.53128200291E-01  0.89124459988E+00  0.88000000000E+00 0. -1.
        -11    1    4    4    0    0  0.17691220349E-01 -0.22168402973E-01  0.18946917481E-01  0.34112522200E-01  0.51100000000E-03 0.  1.
         11    1    4    4    0    0  0.54987608455E-01 -0.74986813264E-01  0.21482879866E-01  0.95438118671E-01  0.51100000000E-03 0. -1.
</event>
<event>
 8    1  0.1143506E+005  0.1043930E+01  0.7957747E-01            NaN
         13   -1    0    0    0    0  0.00000000000E+00  0.00000000000E+00  0.74505805969E-08  0.10566000000E+00  0.10566000000E+00 0. -1.
     999900   -1    0    0    0    0 -0.00000000000E+00 -0.00000000000E+00 -0.74505805969E-08  0.93827000000E+00  0.93827000000E+00 0.  1.
     999902    2    1    2    0    0  0.21025413669E-01  0.10056416340E-01 -0.18892516849E-02  0.10205469121E+01  0.10202789966E+01 0.  0.
     999903    2    3    3    0    0  0.79549649613E-01  0.97199436325E-01 -0.40118921077E-01  0.13348406212E+00  0.20798794113E-01 0.  0.
         14    1    1    2    0    0 -0.21025413669E-01 -0.10056416340E-01  0.18892516849E-02  0.23383087938E-01  0.00000000000E+00 0. -1.
     999901    1    3    3    0    0 -0.58524235944E-01 -0.87143019984E-01  0.38229669392E-01  0.88706284994E+00  0.88000000000E+00 0. -1.
        -11    1    4    4    0    0  0.36062195581E-01  0.33558682508E-01 -0.23722084734E-01  0.54677834146E-01  0.51100000000E-03 0. -1.
         11    1    4    4    0    0  0.43487454032E-01  0.63640753817E-01 -0.16396836343E-01  0.78806227975E-01  0.51100000000E-03 0.  1.
</event>
<event>
 8    1  0.1318703E+005  0.1043930E+01  0.7957747E-01            NaN
         13   -1    0    0    0    0  0.00000000000E+00  0.00000000000E+00  0.74505805969E-08  0.10566000000E+00  0.10566000000E+00 0. -1.
     999900   -1    0    0    0    0 -0.00000000000E+00 -0.00000000000E+00 -0.74505805969E-08  0.93827000000E+00  0.93827000000E+00 0. -1.
     999902    2    1    2    0    0  0.98443640041E-02 -0.19778540619E-01 -0.85437312838E-02  0.10202425030E+01  0.10199674835E+01 0.  0.
     999903    2    3    3    0    0 -0.35976659544E-01  0.11496126402E-01  0.12133466412E+00  0.12898155992E+00  0.22083050701E-01 0.  0.
         14    1    1    2    0    0 -0.98443640041E-02  0.19778540619E-01  0.85437312838E-02  0.23687497038E-01  0.00000000000E+00 0. -1.
     999901    1    3    3    0    0  0.45821023548E-01 -0.31274667022E-01 -0.12987839540E+00  0.89126094304E+00  0.88000000000E+00 0. -1.
        -11    1    4    4    0    0 -0.18385505978E-01 -0.55825701539E-02  0.52216197845E-01  0.55641570412E-01  0.51100000000E-03 0. -1.
         11    1    4    4    0    0 -0.17591153567E-01  0.17078696556E-01  0.69118466276E-01  0.73339989509E-01  0.51100000000E-03 0.  1.
</event>
<event>
 8    1  0.1143506E+005  0.1043930E+01  0.7957747E-01            NaN
         13   -1    0    0    0    0  0.00000000000E+00  0.00000000000E+00  0.74505805969E-08  0.10566000000E+00  0.10566000000E+00 0. -1.
     999900   -1    0    0    0    0 -0.00000000000E+00 -0.00000000000E+00 -0.74505805969E-08  0.93827000000E+00  0.93827000000E+00 0. -1.
     999902    2    1    2    0    0 -0.11696759866E-01  0.30190813659E-02 -0.21069709393E-01  0.10196429315E+01  0.10193536413E+01 0.  0.
     999903    2    3    3    0    0  0.63467311961E-01  0.67806649193E-01  0.85590603245E-01  0.12766563976E+00  0.18625865075E-01 0.  0.
         14    1    1    2    0    0  0.11696759866E-01 -0.30190813659E-02  0.21069709393E-01  0.24287068526E-01  0.00000000000E+00 0. -1.
     999901    1    3    3    0    0 -0.75164071827E-01 -0.64787567827E-01 -0.10666031264E+00  0.89197729171E+00  0.88000000000E+00 0. -1.
        -11    1    4    4    0    0  0.12461360501E-01  0.14679646119E-01  0.28867494735E-01  0.34704047155E-01  0.51100000000E-03 0.  1.
         11    1    4    4    0    0  0.51005951460E-01  0.53127003074E-01  0.56723108510E-01  0.92961592607E-01  0.51100000000E-03 0. -1.
</event>
<event>
 8    1  0.1143506E+005  0.1043930E+01  0.7957747E-01            NaN
         13   -1    0    0    0    0  0.00000000000E+00  0.00000000000E+00  0.74505805969E-08  0.10566000000E+00  0.10566000000E+00 0. -1.
     999900   -1    0    0    0    0 -0.00000000000E+00 -0.00000000000E+00 -0.74505805969E-08  0.93827000000E+00  0.93827000000E+00 0. -1.
     999902    2    1    2    0    0 -0.10690688007E-01 -0.18009480646E-01  0.84693136275E-02  0.10213388186E+01  0.10210889388E+01 0.  0.
     999903    2    3    3    0    0  0.27336374198E-01  0.77439403365E-01  0.99567942024E-01  0.13068989394E+00  0.20541050412E-01 0.  0.
         14    1    1    2    0    0  0.10690688007E-01  0.18009480646E-01 -0.84693136275E-02  0.22591181388E-01  0.00000000000E+00 0.  1.
     999901    1    3    3    0    0 -0.38027062205E-01 -0.95448884010E-01 -0.91098628397E-01  0.89064892467E+00  0.88000000000E+00 0. -1.
        -11    1    4    4    0    0 -0.10419776708E-02  0.24965731000E-01  0.28992040154E-01  0.38277577708E-01  0.51100000000E-03 0. -1.
         11    1    4    4    0    0  0.28378351868E-01  0.52473672364E-01  0.70575901870E-01  0.92412316235E-01  0.51100000000E-03 0.  1.
</event>
<event>
 8    1  0.1143506E+005  0.1043930E+01  0.7957747E-01            NaN
         13   -1    0    0    0    0  0.00000000000E+00  0.00000000000E+00  0.74505805969E-08  0.10566000000E+00  0.10566000000E+00 0.  1.
     999900   -1    0    0    0    0 -0.00000000000E+00 -0.00000000000E+00 -0.74505805969E-08  0.93827000000E+00  0.93827000000E+00 0.  1.
     999902    2    1    2    0    0 -0.21290190279E-02  0.11073090227E-01 -0.20670471688E-01  0.10203839929E+01  0.10201122872E+01 0.  0.
     999903    2    3    3    0    0  0.40451848524E-01 -0.11702673715E+00 -0.33985289780E-01  0.12999083233E+00  0.20273315281E-01 0.  0.
         14    1    1    2    0    0  0.21290190279E-02 -0.11073090227E-01  0.20670471688E-01  0.23546007071E-01  0.00000000000E+00 0.  1.
     999901    1    3    3    0    0 -0.42580867552E-01  0.12809982738E+00  0.13314818092E-01  0.89039316060E+00  0.88000000000E+00 0.  1.
        -11    1    4    4    0    0  0.12779794374E-01 -0.37256776885E-01 -0.20759154673E-01  0.44526331444E-01  0.51100000000E-03 0. -1.
         11    1    4    4    0    0  0.27672054150E-01 -0.79769960263E-01 -0.13226135106E-01  0.85464500889E-01  0.51100000000E-03 0.  1.
</event>
<event>
 8    1  0.1143506E+005  0.1043930E+01  0.7957747E-01            NaN
         13   -1    0    0    0    0  0.00000000000E+00  0.00000000000E+00  0.74505805969E-08  0.10566000000E+00  0.10566000000E+00 0.  1.
     999900   -1    0    0    0    0 -0.00000000000E+00 -0.00000000000E+00 -0.74505805969E-08  0.93827000000E+00  0.93827000000E+00 0. -1.
     999902    2    1    2    0    0  0.16725275751E-01  0.11188664987E-01 -0.12594390474E-01  0.10201910079E+01  0.10199147773E+01 0.  0.
     999903    2    3    3    0    0  0.11118142113E+00  0.12410051004E-01 -0.69580939539E-01  0.13330267113E+00  0.20316919368E-01 0.  0.
         14    1    1    2    0    0 -0.16725275751E-01 -0.11188664987E-01  0.12594390474E-01  0.23738992071E-01  0.00000000000E+00 0.  1.
     999901    1    3    3    0    0 -0.94456145374E-01 -0.12213860171E-02  0.56986549066E-01  0.88688833680E+00  0.88000000000E+00 0.  1.
        -11    1    4    4    0    0  0.41366655060E-01  0.14492369738E-01 -0.25637136829E-01  0.50781422166E-01  0.51100000000E-03 0. -1.
         11    1    4    4    0    0  0.69814766066E-01 -0.20823187333E-02 -0.43943802711E-01  0.82521248959E-01  0.51100000000E-03 0.  1.
</event>
<event>
 8    1  0.1143506E+005  0.1043930E+01  0.7957747E-01            NaN
         13   -1    0    0    0    0  0.00000000000E+00  0.00000000000E+00  0.74505805969E-08  0.10566000000E+00  0.10566000000E+00 0. -1.
     999900   -1    0    0    0    0 -0.00000000000E+00 -0.00000000000E+00 -0.74505805969E-08  0.93827000000E+00  0.93827000000E+00 0.  1.
     999902    2    1    2    0    0 -0.87723146962E-02  0.64621657819E-02  0.21726121348E-01  0.10196249092E+01  0.10193351843E+01 0.  0.
     999903    2    3    3    0    0  0.62605708586E-01  0.26687299665E-01  0.11130261577E+00  0.13197192145E+00  0.19915548253E-01 0.  0.
         14    1    1    2    0    0  0.87723146962E-02 -0.64621657819E-02 -0.21726121348E-01  0.24305090836E-01  0.00000000000E+00 0. -1.
     999901    1    3    3    0    0 -0.71378023282E-01 -0.20225133883E-01 -0.89576494424E-01  0.88765298772E+00  0.88000000000E+00 0. -1.
        -11    1    4    4    0    0  0.49554060544E-01  0.26046382317E-01  0.76530001622E-01  0.94821522965E-01  0.51100000000E-03 0.  1.
         11    1    4    4    0    0  0.13051648041E-01  0.64091734869E-03  0.34772614149E-01  0.37150398483E-01  0.51100000000E-03 0. -1.
</event>
<event>
 8    1  0.1143506E+005  0.1043930E+01  0.7957747E-01            NaN
         13   -1    0    0    0    0  0.00000000000E+00  0.00000000000E+00  0.74505805969E-08  0.10566000000E+00  0.10566000000E+00 0.  1.
     999900   -1    0    0    0    0 -0.00000000000E+00 -0.00000000000E+00 -0.74505805969E-08  0.93827000000E+00  0.93827000000E+00 0.  1.
     999902    2    1    2    0    0  0.66956772330E-02 -0.17538875366E-01 -0.13189542449E-01  0.10209864111E+01  0.10207285846E+01 0.  0.
     999903    2    3    3    0    0  0.15642702333E-01  0.23472151860E-01  0.12463549780E+00  0.12927025930E+00  0.19523231791E-01 0.  0.
         14    1    1    2    0    0 -0.66956772330E-02  0.17538875366E-01  0.13189542449E-01  0.22943588924E-01  0.00000000000E+00 0.  1.
     999901    1    3    3    0    0 -0.89470251000E-02 -0.41011027225E-01 -0.13782504025E+00  0.89171615177E+00  0.88000000000E+00 0.  1.
        -11    1    4    4    0    0  0.25895269530E-02  0.19369400645E-01  0.88362461605E-01  0.90498978298E-01  0.51100000000E-03 0.  1.
         11    1    4    4    0    0  0.13053175380E-01  0.41027512146E-02  0.36273036195E-01  0.38771281006E-01  0.51100000000E-03 0. -1.
</event>
<event>
 8    1  0.1143506E+005  0.1043930E+01  0.7957747E-01            NaN
         13   -1    0    0    0    0  0.00000000000E+00  0.00000000000E+00  0.74505805969E-08  0.10566000000E+00  0.10566000000E+00 0. -1.
     999900   -1    0    0    0    0 -0.00000000000E+00 -0.00000000000E+00 -0.74505805969E-08  0.93827000000E+00  0.93827000000E+00 0.  1.
     999902    2    1    2    0    0  0.16899732795E-02  0.22607474263E-01  0.15218429861E-02  0.10212084264E+01  0.10209556211E+01 0.  0.
     999903    2    3    3    0    0 -0.73062888088E-02  0.12968679573E+00 -0.27605127241E-01  0.13419360450E+00  0.19334776823E-01 0.  0.
         14    1    1    2    0    0 -0.16899732795E-02 -0.22607474263E-01 -0.15218429861E-02  0.22721573632E-01  0.00000000000E+00 0.  1.
     999901    1    3    3    0    0  0.89962620883E-02 -0.10707932147E+00  0.29126970227E-01  0.88701482187E+00  0.88000000000E+00 0. -1.
        -11    1    4    4    0    0  0.57935783537E-03  0.69615145190E-01 -0.23447715239E-01  0.73461966801E-01  0.51100000000E-03 0. -1.
         11    1    4    4    0    0 -0.78856466442E-02  0.60071650544E-01 -0.41574120026E-02  0.60731637700E-01  0.51100000000E-03 0.  1.
</event>
<event>
 8    1  0.1143506E+005  0.1043930E+01  0.7957747E-01            NaN
         13   -1    0    0    0    0  0.00000000000E+00  0.00000000000E+00  0.74505805969E-08  0.10566000000E+00  0.10566000000E+00 0. -1.
     999900   -1    0    0    0    0 -0.00000000000E+00 -0.00000000000E+00 -0.74505805969E-08  0.93827000000E+00  0.93827000000E+00 0.  1.
     999902    2    1    2    0    0 -0.21911842134E-02 -0.18678444856E-01  0.15179218242E-01  0.10197619579E+01  0.10194755302E+01 0.  0.
     999903    2    3    3    0    0  0.59254618473E-02  0.10767468659E+00 -0.64190879962E-01  0.12716428471E+00  0.20526495177E-01 0.  0.
         14    1    1    2    0    0  0.21911842134E-02  0.18678444856E-01 -0.15179218242E-01  0.24168042058E-01  0.00000000000E+00 0.  1.
     999901    1    3    3    0    0 -0.81166460607E-02 -0.12635313145E+00  0.79370098203E-01  0.89259767323E+00  0.88000000000E+00 0. -1.
        -11    1    4    4    0    0  0.68471592741E-02  0.48831897816E-01 -0.18540757899E-01  0.52682621982E-01  0.51100000000E-03 0.  1.
         11    1    4    4    0    0 -0.92169742671E-03  0.58842788779E-01 -0.45650122063E-01  0.74481662728E-01  0.51100000000E-03 0. -1.
</event>
<event>
 8    1  0.1143506E+005  0.1043930E+01  0.7957747E-01            NaN
         13   -1    0    0    0    0  0.00000000000E+00  0.00000000000E+00  0.74505805969E-08  0.10566000000E+00  0.10566000000E+00 0. -1.
     999900   -1    0    0    0    0 -0.00000000000E+00 -0.00000000000E+00 -0.74505805969E-08  0.93827000000E+00  0.93827000000E+00 0. -1.
     999902    2    1    2    0    0  0.23542138373E-02 -0.17113158704E-01 -0.16358981842E-01  0.10201388502E+01  0.10198613900E+01 0.  0.
     999903    2    3    3    0    0  0.30186279988E-01  0.19689221427E-01  0.12182304232E+00  0.12816165825E+00  0.16902072856E-01 0.  0.
         14    1    1    2    0    0 -0.23542138373E-02  0.17113158704E-01  0.16358981842E-01  0.23791149836E-01  0.00000000000E+00 0. -1.
     999901    1    3    3    0    0 -0.27832066150E-01 -0.36802380132E-01 -0.13818202416E+00  0.89197719191E+00  0.88000000000E+00 0. -1.
        -11    1    4    4    0    0  0.15875987103E-01  0.56011293404E-02  0.32469916640E-01  0.36578357317E-01  0.51100000000E-03 0. -1.
         11    1    4    4    0    0  0.14310292885E-01  0.14088092087E-01  0.89353125676E-01  0.91583300935E-01  0.51100000000E-03 0.  1.
</event>
<event>
 8    1  0.1143506E+005  0.1043930E+01  0.7957747E-01            NaN
         13   -1    0    0    0    0  0.00000000000E+00  0.00000000000E+00  0.74505805969E-08  0.10566000000E+00  0.10566000000E+00 0. -1.
     999900   -1    0    0    0    0 -0.00000000000E+00 -0.00000000000E+00 -0.74505805969E-08  0.93827000000E+00  0.93827000000E+00 0. -1.
     999902    2    1    2    0    0  0.84431909016E-02 -0.36643523758E-02  0.21846741355E-01  0.10202235650E+01  0.10199481004E+01 0.  0.
     999903    2    3    3    0    0 -0.53543252282E-02 -0.56611750049E-01 -0.11319016850E+00  0.12824331559E+00  0.20019358325E-01 0.  0.
         14    1    1    2    0    0 -0.84431909016E-02  0.36643523758E-02 -0.21846741355E-01  0.23706434965E-01  0.00000000000E+00 0.  1.
     999901    1    3    3    0    0  0.13797516130E-01  0.52947397673E-01  0.13503690985E+00  0.89198024944E+00  0.88000000000E+00 0.  1.
        -11    1    4    4    0    0 -0.78103708126E-02 -0.28817227927E-01 -0.76676551079E-01  0.82286020222E-01  0.51100000000E-03 0. -1.
         11    1    4    4    0    0  0.24560455844E-02 -0.27794522122E-01 -0.36513617418E-01  0.45957295371E-01  0.51100000000E-03 0.  1.
</event>
<event>
 8    1  0.1143506E+005  0.1043930E+01  0.7957747E-01            NaN
         13   -1    0    0    0    0  0.00000000000E+00  0.00000000000E+00  0.74505805969E-08  0.10566000000E+00  0.10566000000E+00 0. -1.
     999900   -1    0    0    0    0 -0.00000000000E+00 -0.00000000000E+00 -0.74505805969E-08  0.93827000000E+00  0.93827000000E+00 0.  1.
     999902    2    1    2    0    0  0.37380927780E-02 -0.25271607525E-01 -0.77241717701E-03  0.10183717506E+01  0.10180509802E+01 0.  0.
     999903    2    3    3    0    0  0.14411776958E-01 -0.44419898854E-01 -0.11986541697E+00  0.13007915961E+00  0.19288412349E-01 0.  0.
         14    1    1    2    0    0 -0.37380927780E-02  0.25271607525E-01  0.77241717701E-03  0.25558249408E-01  0.00000000000E+00 0. -1.
     999901    1    3    3    0    0 -0.10673684180E-01  0.19148291328E-01  0.11909299979E+00  0.88829259098E+00  0.88000000000E+00 0. -1.
        -11    1    4    4    0    0  0.42510089425E-02 -0.31732752635E-01 -0.59585925565E-01  0.67644529071E-01  0.51100000000E-03 0. -1.
         11    1    4    4    0    0  0.10160768016E-01 -0.12687146219E-01 -0.60279491402E-01  0.62434630539E-01  0.51100000000E-03 0.  1.
</event>
<event>
 8    1  0.1143506E+005  0.1043930E+01  0.7957747E-01            NaN
         13   -1    0    0    0    0  0.00000000000E+00  0.00000000000E+00  0.74505805969E-08  0.10566000000E+00  0.10566000000E+00 0.  1.
     999900   -1    0    0    0    0 -0.00000000000E+00 -0.00000000000E+00 -0.74505805969E-08  0.93827000000E+00  0.93827000000E+00 0.  1.
     999902    2    1    2    0    0  0.23600635455E-01 -0.71597685049E-03 -0.44103934509E-02  0.10199101293E+01  0.10196272445E+01 0.  0.
     999903    2    3    3    0    0  0.44842086671E-01  0.11977390920E+00  0.20925272412E-01  0.13108455147E+00  0.19715236392E-01 0.  0.
         14    1    1    2    0    0 -0.23600635455E-01  0.71597685049E-03  0.44103934509E-02  0.24019870672E-01  0.00000000000E+00 0.  1.
     999901    1    3    3    0    0 -0.21241451216E-01 -0.12048988605E+00 -0.25335665863E-01  0.88882557786E+00  0.88000000000E+00 0. -1.
        -11    1    4    4    0    0  0.24457041140E-01  0.89195410396E-01  0.17908884114E-01  0.94206992035E-01  0.51100000000E-03 0.  1.
         11    1    4    4    0    0  0.20385045530E-01  0.30578498805E-01  0.30163882978E-02  0.36877559434E-01  0.51100000000E-03 0. -1.
</event>
<event>
 8    1  0.1143506E+005  0.1043930E+01  0.7957747E-01            NaN
         13   -1    0    0    0    0  0.00000000000E+00  0.00000000000E+00  0.74505805969E-08  0.10566000000E+00  0.10566000000E+00 0. -1.
     999900   -1    0    0    0    0 -0.00000000000E+00 -0.00000000000E+00 -0.74505805969E-08  0.93827000000E+00  0.93827000000E+00 0.  1.
     999902    2    1    2    0    0 -0.14616582469E-01  0.93999937293E-02  0.16602193174E-01  0.10198959162E+01  0.10196126925E+01 0.  0.
     999903    2    3    3    0    0  0.10247255847E+00 -0.19975356961E-02  0.77395284289E-01  0.12998829712E+00  0.20057715956E-01 0.  0.
         14    1    1    2    0    0  0.14616582469E-01 -0.93999937293E-02 -0.16602193174E-01  0.24034083785E-01  0.00000000000E+00 0.  1.
     999901    1    3    3    0    0 -0.11708914094E+00  0.11397529425E-01 -0.60793091115E-01  0.88990761910E+00  0.88000000000E+00 0.  1.
        -11    1    4    4    0    0  0.84321262897E-01 -0.93605503357E-02  0.63091236291E-01  0.10572823888E+00  0.51100000000E-03 0. -1.
         11    1    4    4    0    0  0.18151295570E-01  0.73630146396E-02  0.14304047999E-01  0.24260058236E-01  0.51100000000E-03 0.  1.
</event>
<event>
 8    1  0.1143506E+005  0.1043930E+01  0.7957747E-01            NaN
         13   -1    0    0    0    0  0.00000000000E+00  0.00000000000E+00  0.74505805969E-08  0.10566000000E+00  0.10566000000E+00 0.  1.
     999900   -1    0    0    0    0 -0.00000000000E+00 -0.00000000000E+00 -0.74505805969E-08  0.93827000000E+00  0.93827000000E+00 0. -1.
     999902    2    1    2    0    0 -0.98286140500E-02  0.43794321253E-04 -0.20934924593E-01  0.10208026430E+01  0.10205406221E+01 0.  0.
     999903    2    3    3    0    0  0.11753209966E+00  0.80848230055E-02  0.48519425411E-01  0.12888935338E+00  0.19472338310E-01 0.  0.
         14    1    1    2    0    0  0.98286140500E-02 -0.43794321253E-04  0.20934924593E-01  0.23127356957E-01  0.00000000000E+00 0.  1.
     999901    1    3    3    0    0 -0.12736071371E+00 -0.80410286842E-02 -0.69454350004E-01  0.89191328966E+00  0.88000000000E+00 0.  1.
        -11    1    4    4    0    0  0.72564976367E-01 -0.24495237133E-02  0.23241266641E-01  0.76237087810E-01  0.51100000000E-03 0.  1.
         11    1    4    4    0    0  0.44967123294E-01  0.10534346719E-01  0.25278158770E-01  0.52652265572E-01  0.51100000000E-03 0. -1.
</event>
<event>
 8    1  0.1143506E+005  0.1043930E+01  0.7957747E-01            NaN
         13   -1    0    0    0    0  0.00000000000E+00  0.00000000000E+00  0.74505805969E-08  0.10566000000E+00  0.10566000000E+00 0. -1.
     999900   -1    0    0    0    0 -0.00000000000E+00 -0.00000000000E+00 -0.74505805969E-08  0.93827000000E+00  0.93827000000E+00 0. -1.
     999902    2    1    2    0    0 -0.21220799807E-01 -0.13817202472E-01 -0.76704393616E-02  0.10174711061E+01  0.10171270219E+01 0.  0.
     999903    2    3    3    0    0 -0.31360672878E-01  0.11839465711E+00 -0.27743044802E-01  0.12731061360E+00  0.20917197862E-01 0.  0.
         14    1    1    2    0    0  0.21220799807E-01  0.13817202472E-01  0.76704393616E-02  0.26458893942E-01  0.00000000000E+00 0.  1.
     999901    1    3    3    0    0  0.10139873070E-01 -0.13221185958E+00  0.20072605441E-01  0.89016049246E+00  0.88000000000E+00 0.  1.
        -11    1    4    4    0    0 -0.24520650571E-01  0.71954855746E-01 -0.25970247177E-01  0.80333544857E-01  0.51100000000E-03 0.  1.
         11    1    4    4    0    0 -0.68400223066E-02  0.46439801360E-01 -0.17727976250E-02  0.46977068746E-01  0.51100000000E-03 0. -1.
</event>
<event>
 8    1  0.1143506E+005  0.1043930E+01  0.7957747E-01            NaN
         13   -1    0    0    0    0  0.00000000000E+00  0.00000000000E+00  0.74505805969E-08  0.10566000000E+00  0.10566000000E+00 0. -1.
     999900   -1    0    0    0    0 -0.00000000000E+00 -0.00000000000E+00 -0.74505805969E-08  0.93827000000E+00  0.93827000000E+00 0.  1.
     999902    2    1    2    0    0 -0.12685611509E-01  0.19148369728E-01 -0.47392353184E-02  0.10204769585E+01  0.10202074190E+01 0.  0.
     999903    2    3    3    0    0 -0.43649803340E-01  0.92257204645E-01  0.82094866391E-01  0.13264598130E+00  0.20944978549E-01 0.  0.
         14    1    1    2    0    0  0.12685611509E-01 -0.19148369728E-01  0.47392353184E-02  0.23453041466E-01  0.00000000000E+00 0.  1.
     999901    1    3    3    0    0  0.30964191831E-01 -0.73108834917E-01 -0.86834101710E-01  0.88783097724E+00  0.88000000000E+00 0.  1.
        -11    1    4    4    0    0  0.17750955663E-03  0.12490399014E-01  0.53728399967E-02  0.13607722359E-01  0.51100000000E-03 0.  1.
         11    1    4    4    0    0 -0.43827312897E-01  0.79766805631E-01  0.76722026395E-01  0.11903825894E+00  0.51100000000E-03 0. -1.
</event>
<event>
 8    1  0.1143506E+005  0.1043930E+01  0.7957747E-01            NaN
         13   -1    0    0    0    0  0.00000000000E+00  0.00000000000E+00  0.74505805969E-08  0.10566000000E+00  0.10566000000E+00 0. -1.
     999900   -1    0    0    0    0 -0.00000000000E+00 -0.00000000000E+00 -0.74505805969E-08  0.93827000000E+00  0.93827000000E+00 0. -1.
     999902    2    1    2    0    0 -0.27646217637E-02  0.21212323478E-01 -0.14307982224E-01  0.10181943408E+01  0.10178690443E+01 0.  0.
     999903    2    3    3    0    0 -0.16134317646E-01 -0.12115833610E+00 -0.26119775659E-01  0.12657352902E+00  0.19973906891E-01 0.  0.
         14    1    1    2    0    0  0.27646217637E-02 -0.21212323478E-01  0.14307982224E-01  0.25735659233E-01  0.00000000000E+00 0. -1.
     999901    1    3    3    0    0  0.13369695882E-01  0.14237065957E+00  0.11811793435E-01  0.89162081175E+00  0.88000000000E+00 0.  1.
        -11    1    4    4    0    0 -0.17223599081E-01 -0.54998779880E-01 -0.10481341542E-01  0.58580182614E-01  0.51100000000E-03 0. -1.
         11    1    4    4    0    0  0.10892814354E-02 -0.66159556217E-01 -0.15638434117E-01  0.67993346406E-01  0.51100000000E-03 0.  1.
</event>
<event>
 8    1  0.1143506E+005  0.1043930E+01  0.7957747E-01            NaN
         13   -1    0    0    0    0  0.00000000000E+00  0.00000000000E+00  0.74505805969E-08  0.10566000000E+00  0.10566000000E+00 0. -1.
     999900   -1    0    0    0    0 -0.00000000000E+00 -0.00000000000E+00 -0.74505805969E-08  0.93827000000E+00  0.93827000000E+00 0.  1.
     999902    2    1    2    0    0  0.11295780306E-01 -0.89511236069E-02  0.18499264605E-01  0.10204791992E+01  0.10202097118E+01 0.  0.
     999903    2    3    3    0    0  0.24342923515E-01  0.55691181387E-01 -0.11139125487E+00  0.12850363756E+00  0.20275295202E-01 0.  0.
         14    1    1    2    0    0 -0.11295780306E-01  0.89511236069E-02 -0.18499264605E-01  0.23450800785E-01  0.00000000000E+00 0.  1.
     999901    1    3    3    0    0 -0.13047143210E-01 -0.64642304993E-01  0.12989051947E+00  0.89197556166E+00  0.88000000000E+00 0. -1.
        -11    1    4    4    0    0  0.15792836848E-01  0.50662454400E-01 -0.83921870016E-01  0.99293702567E-01  0.51100000000E-03 0.  1.
         11    1    4    4    0    0  0.85500866669E-02  0.50287269867E-02 -0.27469384852E-01  0.29209934992E-01  0.51100000000E-03 0. -1.
</event>
<event>
 8    1  0.1143506E+005  0.1043930E+01  0.7957747E-01            NaN
         13   -1    0    0    0    0  0.00000000000E+00  0.00000000000E+00  0.74505805969E-08  0.10566000000E+00  0.10566000000E+00 0.  1.
     999900   -1    0    0    0    0 -0.00000000000E+00 -0.00000000000E+00 -0.74505805969E-08  0.93827000000E+00  0.93827000000E+00 0.  1.
     999902    2    1    2    0    0  0.15765563663E-01  0.10072243141E-01 -0.14213900688E-01  0.10204345100E+01  0.10201639824E+01 0.  0.
     999903    2    3    3    0    0  0.36046500680E-02  0.12672881997E+00  0.29733247845E-01  0.13156556765E+00  0.18768197882E-01 0.  0.
         14    1    1    2    0    0 -0.15765563663E-01 -0.10072243141E-01  0.14213900688E-01  0.23495490041E-01  0.00000000000E+00 0.  1.
     999901    1    3    3    0    0  0.12160913595E-01 -0.11665657682E+00 -0.43947148532E-01  0.88886894231E+00  0.88000000000E+00 0. -1.
        -11    1    4    4    0    0  0.31147783589E-04  0.80420417651E-01  0.27747480557E-01  0.85074251942E-01  0.51100000000E-03 0. -1.
         11    1    4    4    0    0  0.35735022845E-02  0.46308402315E-01  0.19857672882E-02  0.46491315708E-01  0.51100000000E-03 0.  1.
</event>
<event>
 8    1  0.1143506E+005  0.1043930E+01  0.7957747E-01            NaN
         13   -1    0    0    0    0  0.00000000000E+00  0.00000000000E+00  0.74505805969E-08  0.10566000000E+00  0.10566000000E+00 0. -1.
     999900   -1    0    0    0    0 -0.00000000000E+00 -0.00000000000E+00 -0.74505805969E-08  0.93827000000E+00  0.93827000000E+00 0. -1.
     999902    2    1    2    0    0  0.21354017018E-01  0.65063150351E-02 -0.24672291637E-01  0.10106576669E+01  0.10101098314E+01 0.  0.
     999903    2    3    3    0    0 -0.11019597138E+00 -0.40406029939E-01 -0.11071849185E-01  0.11953975121E+00  0.19782995482E-01 0.  0.
         14    1    1    2    0    0 -0.21354017018E-01 -0.65063150351E-02  0.24672291637E-01  0.33272333143E-01  0.00000000000E+00 0.  1.
     999901    1    3    3    0    0  0.13154998840E+00  0.46912344974E-01 -0.13600442452E-01  0.89111791565E+00  0.88000000000E+00 0. -1.
        -11    1    4    4    0    0 -0.42305083233E-01 -0.11691451390E-01 -0.13066291314E-01  0.45797371023E-01  0.51100000000E-03 0.  1.
         11    1    4    4    0    0 -0.67890888148E-01 -0.28714578548E-01  0.19944421288E-02  0.73742380183E-01  0.51100000000E-03 0. -1.
</event>
<event>
 8    1  0.1143506E+005  0.1043930E+01  0.7957747E-01            NaN
         13   -1    0    0    0    0  0.00000000000E+00  0.00000000000E+00  0.74505805969E-08  0.10566000000E+00  0.10566000000E+00 0. -1.
     999900   -1    0    0    0    0 -0.00000000000E+00 -0.00000000000E+00 -0.74505805969E-08  0.93827000000E+00  0.93827000000E+00 0. -1.
     999902    2    1    2    0    0 -0.22053232420E-01 -0.45261321046E-02  0.57199673533E-02  0.10207018068E+01  0.10204374697E+01 0.  0.
     999903    2    3    3    0    0  0.92045093224E-01  0.16000399327E-01 -0.86292095055E-01  0.12834202173E+00  0.17234758728E-01 0.  0.
         14    1    1    2    0    0  0.22053232420E-01  0.45261321046E-02 -0.57199673533E-02  0.23228193183E-01  0.00000000000E+00 0. -1.
     999901    1    3    3    0    0 -0.11409832564E+00 -0.20526531431E-01  0.92012062408E-01  0.89235978508E+00  0.88000000000E+00 0.  1.
        -11    1    4    4    0    0  0.80799467328E-01  0.86951202160E-02 -0.77509141701E-01  0.11230354938E+00  0.51100000000E-03 0. -1.
         11    1    4    4    0    0  0.11245625896E-01  0.73052791106E-02 -0.87829533538E-02  0.16038472349E-01  0.51100000000E-03 0.  1.
</event>
<event>
 8    1  0.1143506E+005  0.1043930E+01  0.7957747E-01            NaN
         13   -1    0    0    0    0  0.00000000000E+00  0.00000000000E+00  0.74505805969E-08  0.10566000000E+00  0.10566000000E+00 0. -1.
     999900   -1    0    0    0    0 -0.00000000000E+00 -0.00000000000E+00 -0.74505805969E-08  0.93827000000E+00  0.93827000000E+00 0.  1.
     999902    2    1    2    0    0 -0.17277981771E-01 -0.29006397252E-02 -0.15707939988E-01  0.10203995571E+01  0.10201282147E+01 0.  0.
     999903    2    3    3    0    0  0.49531744179E-01  0.70467116681E-01 -0.96705852503E-01  0.13112624196E+00  0.20568451778E-01 0.  0.
         14    1    1    2    0    0  0.17277981771E-01  0.29006397252E-02  0.15707939988E-01  0.23530442910E-01  0.00000000000E+00 0. -1.
     999901    1    3    3    0    0 -0.66809725950E-01 -0.73367756407E-01  0.80997912515E-01  0.88927331513E+00  0.88000000000E+00 0. -1.
        -11    1    4    4    0    0  0.33763162201E-01  0.49950555226E-01 -0.52722974713E-01  0.80093584467E-01  0.51100000000E-03 0. -1.
         11    1    4    4    0    0  0.15768581978E-01  0.20516561456E-01 -0.43982877790E-01  0.51032657498E-01  0.51100000000E-03 0.  1.
</event>
<event>
 8    1  0.1143506E+005  0.1043930E+01  0.7957747E-01            NaN
         13   -1    0    0    0    0  0.00000000000E+00  0.00000000000E+00  0.74505805969E-08  0.10566000000E+00  0.10566000000E+00 0.  1.
     999900   -1    0    0    0    0 -0.00000000000E+00 -0.00000000000E+00 -0.74505805969E-08  0.93827000000E+00  0.93827000000E+00 0.  1.
     999902    2    1    2    0    0  0.20075561423E-01  0.70718299279E-02  0.10453467340E-01  0.10202168407E+01  0.10199412180E+01 0.  0.
     999903    2    3    3    0    0 -0.50402196796E-01 -0.10304694976E+00  0.56733565321E-01  0.12935483818E+00  0.18839358566E-01 0.  0.
         14    1    1    2    0    0 -0.20075561423E-01 -0.70718299279E-02 -0.10453467340E-01  0.23713159309E-01  0.00000000000E+00 0. -1.
     999901    1    3    3    0    0  0.70477758219E-01  0.11011877968E+00 -0.46280097981E-01  0.89086200251E+00  0.88000000000E+00 0.  1.
        -11    1    4    4    0    0 -0.11180978889E-01 -0.91628801939E-02  0.81390967252E-02  0.16597550388E-01  0.51100000000E-03 0. -1.
         11    1    4    4    0    0 -0.39221217907E-01 -0.93884069563E-01  0.48594468596E-01  0.11275728780E+00  0.51100000000E-03 0.  1.
</event>
<event>
 8    1  0.1143506E+005  0.1043930E+01  0.7957747E-01            NaN
         13   -1    0    0    0    0  0.00000000000E+00  0.00000000000E+00  0.74505805969E-08  0.10566000000E+00  0.10566000000E+00 0.  1.
     999900   -1    0    0    0    0 -0.00000000000E+00 -0.00000000000E+00 -0.74505805969E-08  0.93827000000E+00  0.93827000000E+00 0.  1.
     999902    2    1    2    0    0  0.23734782628E-01  0.16746747680E-02 -0.19021894188E-02  0.10200602961E+01  0.10197809788E+01 0.  0.
     999903    2    3    3    0    0 -0.66304691079E-02 -0.10098309719E+00  0.78892115871E-01  0.12989829595E+00  0.20200304612E-01 0.  0.
         14    1    1    2    0    0 -0.23734782628E-01 -0.16746747680E-02  0.19021894188E-02  0.23869703948E-01  0.00000000000E+00 0.  1.
     999901    1    3    3    0    0  0.30365251736E-01  0.10265777196E+00 -0.80794305290E-01  0.89016200010E+00  0.88000000000E+00 0.  1.
        -11    1    4    4    0    0  0.45710697987E-02 -0.29999042490E-01  0.15540773601E-01  0.34097125898E-01  0.51100000000E-03 0.  1.
         11    1    4    4    0    0 -0.11201538907E-01 -0.70984054698E-01  0.63351342270E-01  0.95801170054E-01  0.51100000000E-03 0. -1.
</event>
<event>
 8    1  0.1143506E+005  0.1043930E+01  0.7957747E-01            NaN
         13   -1    0    0    0    0  0.00000000000E+00  0.00000000000E+00  0.74505805969E-08  0.10566000000E+00  0.10566000000E+00 0. -1.
     999900   -1    0    0    0    0 -0.00000000000E+00 -0.00000000000E+00 -0.74505805969E-08  0.93827000000E+00  0.93827000000E+00 0.  1.
     999902    2    1    2    0    0  0.20028933989E-01  0.13004568551E-01  0.25704876562E-02  0.10199115819E+01  0.10196287317E+01 0.  0.
     999903    2    3    3    0    0  0.47449828778E-01 -0.70190611741E-01  0.97322528604E-01  0.13050093843E+00  0.19509283198E-01 0.  0.
         14    1    1    2    0    0 -0.20028933989E-01 -0.13004568551E-01 -0.25704876562E-02  0.24018418072E-01  0.00000000000E+00 0. -1.
     999901    1    3    3    0    0 -0.27420894789E-01  0.83195180291E-01 -0.94752040948E-01  0.88941064349E+00  0.88000000000E+00 0.  1.
        -11    1    4    4    0    0  0.12024812697E-01 -0.15278675294E-01  0.35831040313E-01  0.40769579469E-01  0.51100000000E-03 0.  1.
         11    1    4    4    0    0  0.35425016081E-01 -0.54911936447E-01  0.61491488290E-01  0.89731358966E-01  0.51100000000E-03 0. -1.
</event>
<event>
 8    1  0.1143506E+005  0.1043930E+01  0.7957747E-01            NaN
         13   -1    0    0    0    0  0.00000000000E+00  0.00000000000E+00  0.74505805969E-08  0.10566000000E+00  0.10566000000E+00 0. -1.
     999900   -1    0    0    0    0 -0.00000000000E+00 -0.00000000000E+00 -0.74505805969E-08  0.93827000000E+00  0.93827000000E+00 0.  1.
     999902    2    1    2    0    0  0.15386482014E-03 -0.17921403191E-01 -0.14132198528E-01  0.10211063412E+01  0.10208512333E+01 0.  0.
     999903    2    3    3    0    0  0.12825136730E+00 -0.14848047389E-01 -0.17873464560E-01  0.13181875399E+00  0.19693791993E-01 0.  0.
         14    1    1    2    0    0 -0.15386482014E-03  0.17921403191E-01  0.14132198528E-01  0.22823658820E-01  0.00000000000E+00 0. -1.
     999901    1    3    3    0    0 -0.12809750248E+00 -0.30733558025E-02  0.37412660323E-02  0.88928758719E+00  0.88000000000E+00 0.  1.
        -11    1    4    4    0    0  0.95701484763E-01 -0.14448191645E-01 -0.21234725846E-01  0.99089349228E-01  0.51100000000E-03 0.  1.
         11    1    4    4    0    0  0.32549882536E-01 -0.39985574404E-03  0.33612612859E-02  0.32729404763E-01  0.51100000000E-03 0. -1.
</event>
<event>
 8    1  0.1143506E+005  0.1043930E+01  0.7957747E-01            NaN
         13   -1    0    0    0    0  0.00000000000E+00  0.00000000000E+00  0.74505805969E-08  0.10566000000E+00  0.10566000000E+00 0. -1.
     999900   -1    0    0    0    0 -0.00000000000E+00 -0.00000000000E+00 -0.74505805969E-08  0.93827000000E+00  0.93827000000E+00 0. -1.
     999902    2    1    2    0    0 -0.29846321854E-02 -0.21004511216E-01  0.11035932861E-01  0.10200157922E+01  0.10197354201E+01 0.  0.
     999903    2    3    3    0    0  0.25571471672E-01  0.11661412918E+00 -0.39464888987E-01  0.12743264523E+00  0.20708604935E-01 0.  0.
         14    1    1    2    0    0  0.29846321854E-02  0.21004511216E-01 -0.11035932861E-01  0.23914207802E-01  0.00000000000E+00 0.  1.
     999901    1    3    3    0    0 -0.28556103857E-01 -0.13761864040E+00  0.50500821848E-01  0.89258314697E+00  0.88000000000E+00 0.  1.
        -11    1    4    4    0    0 -0.10070543642E-02  0.36672421452E-01 -0.15627835937E-01  0.39879456249E-01  0.51100000000E-03 0. -1.
         11    1    4    4    0    0  0.26578526036E-01  0.79941707729E-01 -0.23837053050E-01  0.87553188976E-01  0.51100000000E-03 0.  1.
</event>
<event>
 8    1  0.1143506E+005  0.1043930E+01  0.7957747E-01            NaN
         13   -1    0    0    0    0  0.00000000000E+00  0.00000000000E+00  0.74505805969E-08  0.10566000000E+00  0.10566000000E+00 0. -1.
     999900   -1    0    0    0    0 -0.00000000000E+00 -0.00000000000E+00 -0.74505805969E-08  0.93827000000E+00  0.93827000000E+00 0. -1.
     999902    2    1    2    0    0 -0.24976934964E-02  0.14000887127E-01  0.19282190723E-01  0.10199703215E+01  0.10196888695E+01 0.  0.
     999903    2    3    3    0    0  0.11984107517E+00  0.16013908914E-02  0.48818518007E-01  0.13092987450E+00  0.19873011480E-01 0.  0.
         14    1    1    2    0    0  0.24976934964E-02 -0.14000887127E-01 -0.19282190723E-01  0.23959678467E-01  0.00000000000E+00 0.  1.
     999901    1    3    3    0    0 -0.12233876867E+00  0.12399496235E-01 -0.29536327284E-01  0.88904044703E+00  0.88000000000E+00 0. -1.
        -11    1    4    4    0    0  0.10890639735E+00 -0.26418785347E-02  0.48331271358E-01  0.11917951089E+00  0.51100000000E-03 0. -1.
         11    1    4    4    0    0  0.10934677828E-01  0.42432694261E-02  0.48724664924E-03  0.11750363608E-01  0.51100000000E-03 0.  1.
</event>
<event>
 8    1  0.1143506E+005  0.1043930E+01  0.7957747E-01            NaN
         13   -1    0    0    0    0  0.00000000000E+00  0.00000000000E+00  0.74505805969E-08  0.10566000000E+00  0.10566000000E+00 0.  1.
     999900   -1    0    0    0    0 -0.00000000000E+00 -0.00000000000E+00 -0.74505805969E-08  0.93827000000E+00  0.93827000000E+00 0.  1.
     999902    2    1    2    0    0  0.20332820176E-01  0.93724824644E-02 -0.75074208419E-02  0.10203158438E+01  0.10200425446E+01 0.  0.
     999903    2    3    3    0    0 -0.12594969492E+00 -0.10650352692E-01 -0.24701685870E-02  0.12800151465E+00  0.20038222408E-01 0.  0.
         14    1    1    2    0    0 -0.20332820176E-01 -0.93724824644E-02  0.75074208419E-02  0.23614156168E-01  0.00000000000E+00 0. -1.
     999901    1    3    3    0    0  0.14628251510E+00  0.20022835156E-01 -0.50372522549E-02  0.89231432918E+00  0.88000000000E+00 0. -1.
        -11    1    4    4    0    0 -0.38272939521E-01 -0.10711842377E-01  0.47333539173E-02  0.40027830656E-01  0.51100000000E-03 0. -1.
         11    1    4    4    0    0 -0.87676755399E-01  0.61489685515E-04 -0.72035225043E-02  0.87973683995E-01  0.51100000000E-03 0.  1.
</event>
<event>
 8    1  0.1143506E+005  0.1043930E+01  0.7957747E-01            NaN
         13   -1    0    0    0    0  0.00000000000E+00  0.00000000000E+00  0.74505805969E-08  0.10566000000E+00  0.10566000000E+00 0.  1.
     999900   -1    0    0    0    0 -0.00000000000E+00 -0.00000000000E+00 -0.74505805969E-08  0.93827000000E+00  0.93827000000E+00 0. -1.
     999902    2    1    2    0    0  0.15387813316E-02 -0.29681658996E-01  0.12978891614E-01  0.10114982200E+01  0.10109781544E+01 0.  0.
     999903    2    3    3    0    0 -0.29140579453E-01  0.10149839670E+00  0.54031355195E-01  0.12029973761E+00  0.20038503474E-01 0.  0.
         14    1    1    2    0    0 -0.15387813316E-02  0.29681658996E-01 -0.12978891614E-01  0.32431780036E-01  0.00000000000E+00 0. -1.
     999901    1    3    3    0    0  0.30679360785E-01 -0.13118005569E+00 -0.41052463581E-01  0.89119848236E+00  0.88000000000E+00 0. -1.
        -11    1    4    4    0    0 -0.56528311017E-02  0.53953675155E-01  0.23659568356E-01  0.59186061349E-01  0.51100000000E-03 0.  1.
         11    1    4    4    0    0 -0.23487748352E-01  0.47544721540E-01  0.30371786839E-01  0.61113676258E-01  0.51100000000E-03 0. -1.
</event>
<event>
 8    1  0.1143506E+005  0.1043930E+01  0.7957747E-01            NaN
         13   -1    0    0    0    0  0.00000000000E+00  0.00000000000E+00  0.74505805969E-08  0.10566000000E+00  0.10566000000E+00 0. -1.
     999900   -1    0    0    0    0 -0.00000000000E+00 -0.00000000000E+00 -0.74505805969E-08  0.93827000000E+00  0.93827000000E+00 0.  1.
     999902    2    1    2    0    0  0.16430926858E-02  0.23610395893E-01 -0.61017529232E-03  0.10202546360E+01  0.10199799015E+01 0.  0.
     999903    2    3    3    0    0 -0.94291742121E-01  0.13672911260E-01  0.87098653466E-01  0.13065074391E+00  0.20138528128E-01 0.  0.
         14    1    1    2    0    0 -0.16430926858E-02 -0.23610395893E-01  0.61017529232E-03  0.23675364024E-01  0.00000000000E+00 0. -1.
     999901    1    3    3    0    0  0.95934834807E-01  0.99374846326E-02 -0.87708828758E-01  0.88960389206E+00  0.88000000000E+00 0.  1.
        -11    1    4    4    0    0 -0.26930035637E-01  0.96355789382E-02  0.16670217947E-01  0.33109341405E-01  0.51100000000E-03 0.  1.
         11    1    4    4    0    0 -0.67361706483E-01  0.40373323221E-02  0.70428435519E-01  0.97541402508E-01  0.51100000000E-03 0. -1.
</event>
<event>
 8    1  0.1143506E+005  0.1043930E+01  0.7957747E-01            NaN
         13   -1    0    0    0    0  0.00000000000E+00  0.00000000000E+00  0.74505805969E-08  0.10566000000E+00  0.10566000000E+00 0.  1.
     999900   -1    0    0    0    0 -0.00000000000E+00 -0.00000000000E+00 -0.74505805969E-08  0.93827000000E+00  0.93827000000E+00 0.  1.
     999902    2    1    2    0    0  0.11450680240E-01 -0.18031639989E-01  0.98166963182E-02  0.10204220089E+01  0.10201511901E+01 0.  0.
     999903    2    3    3    0    0 -0.88567127400E-01 -0.11782661582E-01 -0.90782900418E-01  0.12903943647E+00  0.20656088374E-01 0.  0.
         14    1    1    2    0    0 -0.11450680240E-01  0.18031639989E-01 -0.98166963182E-02  0.23507991094E-01  0.00000000000E+00 0. -1.
     999901    1    3    3    0    0  0.10001780764E+00 -0.62489784070E-02  0.10059959674E+00  0.89138257243E+00  0.88000000000E+00 0. -1.
        -11    1    4    4    0    0 -0.46941255773E-01 -0.84102647526E-02 -0.62419037992E-01  0.78553239727E-01  0.51100000000E-03 0. -1.
         11    1    4    4    0    0 -0.41625871626E-01 -0.33723968292E-02 -0.28363862426E-01  0.50486196745E-01  0.51100000000E-03 0.  1.
</event>
<event>
 8    1  0.1143506E+005  0.1043930E+01  0.7957747E-01            NaN
         13   -1    0    0    0    0  0.00000000000E+00  0.00000000000E+00  0.74505805969E-08  0.10566000000E+00  0.10566000000E+00 0.  1.
     999900   -1    0    0    0    0 -0.00000000000E+00 -0.00000000000E+00 -0.74505805969E-08  0.93827000000E+00  0.93827000000E+00 0. -1.
     999902    2    1    2    0    0 -0.11902966675E-02  0.82585187799E-02 -0.21781024289E-01  0.10206054859E+01  0.10203389265E+01 0.  0.
     999903    2    3    3    0    0 -0.10543058853E+00  0.72785098512E-01  0.20088106651E-01  0.13112094862E+00  0.19387923446E-01 0.  0.
         14    1    1    2    0    0  0.11902966675E-02 -0.82585187799E-02  0.21781024289E-01  0.23324514093E-01  0.00000000000E+00 0.  1.
     999901    1    3    3    0    0  0.10424029187E+00 -0.64526579732E-01 -0.41869130940E-01  0.88948453728E+00  0.88000000000E+00 0. -1.
        -11    1    4    4    0    0 -0.76668003504E-01  0.59460641260E-01  0.86184161155E-02  0.97406821310E-01  0.51100000000E-03 0. -1.
         11    1    4    4    0    0 -0.28762585029E-01  0.13324457252E-01  0.11469690535E-01  0.33714127314E-01  0.51100000000E-03 0.  1.
</event>
<event>
 8    1  0.1143506E+005  0.1043930E+01  0.7957747E-01            NaN
         13   -1    0    0    0    0  0.00000000000E+00  0.00000000000E+00  0.74505805969E-08  0.10566000000E+00  0.10566000000E+00 0.  1.
     999900   -1    0    0    0    0 -0.00000000000E+00 -0.00000000000E+00 -0.74505805969E-08  0.93827000000E+00  0.93827000000E+00 0.  1.
     999902    2    1    2    0    0 -0.17504946476E-01 -0.16788431616E-01  0.19900793348E-02  0.10195941211E+01  0.10193036529E+01 0.  0.
     999903    2    3    3    0    0 -0.92805525384E-01 -0.37353545446E-01 -0.83353581506E-01  0.13202629745E+00  0.21793824108E-01 0.  0.
         14    1    1    2    0    0  0.17504946476E-01  0.16788431616E-01 -0.19900793348E-02  0.24335878924E-01  0.00000000000E+00 0.  1.
     999901    1    3    3    0    0  0.75300578908E-01  0.20565113830E-01  0.85343660840E-01  0.88756782363E+00  0.88000000000E+00 0.  1.
        -11    1    4    4    0    0 -0.52521880221E-01 -0.23440589573E-01 -0.61217496361E-01  0.83999119777E-01  0.51100000000E-03 0. -1.
         11    1    4    4    0    0 -0.40283645162E-01 -0.13912955873E-01 -0.22136085144E-01  0.48027177673E-01  0.51100000000E-03 0.  1.
</event>
<event>
 8    1  0.1143506E+005  0.1043930E+01  0.7957747E-01            NaN
         13   -1    0    0    0    0  0.00000000000E+00  0.00000000000E+00  0.74505805969E-08  0.10566000000E+00  0.10566000000E+00 0.  1.
     999900   -1    0    0    0    0 -0.00000000000E+00 -0.00000000000E+00 -0.74505805969E-08  0.93827000000E+00  0.93827000000E+00 0. -1.
     999902    2    1    2    0    0  0.65017280811E-02  0.78541744631E-02 -0.21484884813E-01  0.10201484778E+01  0.10198712448E+01 0.  0.
     999903    2    3    3    0    0 -0.11748731753E+00 -0.30679862642E-01 -0.42851678311E-01  0.13036496740E+00  0.20352755043E-01 0.  0.
         14    1    1    2    0    0 -0.65017280811E-02 -0.78541744631E-02  0.21484884813E-01  0.23781522239E-01  0.00000000000E+00 0.  1.
     999901    1    3    3    0    0  0.12398904561E+00  0.38534037106E-01  0.21366793498E-01  0.88978351036E+00  0.88000000000E+00 0. -1.
        -11    1    4    4    0    0 -0.59204489937E-01 -0.13065353302E-01 -0.31859700410E-01  0.68492165368E-01  0.51100000000E-03 0. -1.
         11    1    4    4    0    0 -0.58282827597E-01 -0.17614509341E-01 -0.10991977901E-01  0.61872802031E-01  0.51100000000E-03 0.  1.
</event>
<event>
 8    1  0.1143506E+005  0.1043930E+01  0.7957747E-01            NaN
         13   -1    0    0    0    0  0.00000000000E+00  0.00000000000E+00  0.74505805969E-08  0.10566000000E+00  0.10566000000E+00 0.  1.
     999900   -1    0    0    0    0 -0.00000000000E+00 -0.00000000000E+00 -0.74505805969E-08  0.93827000000E+00  0.93827000000E+00 0. -1.
     999902    2    1    2    0    0  0.18523655299E-01  0.14752155834E-01  0.13799966007E-02  0.10202096227E+01  0.10199338302E+01 0.  0.
     999903    2    3    3    0    0  0.66469877877E-01 -0.93604979079E-01  0.58818916836E-01  0.13041226461E+00  0.19171776411E-01 0.  0.
         14    1    1    2    0    0 -0.18523655299E-01 -0.14752155834E-01 -0.13799966007E-02  0.23720377273E-01  0.00000000000E+00 0. -1.
     999901    1    3    3    0    0 -0.47946222579E-01  0.10835713491E+00 -0.57438920235E-01  0.88979735811E+00  0.88000000000E+00 0.  1.
        -11    1    4    4    0    0  0.32934445182E-01 -0.30761537061E-01  0.25333470867E-01  0.51701022320E-01  0.51100000000E-03 0. -1.
         11    1    4    4    0    0  0.33535432695E-01 -0.62843442018E-01  0.33485445969E-01  0.78711242294E-01  0.51100000000E-03 0.  1.
</event>
<event>
 8    1  0.1143506E+005  0.1043930E+01  0.7957747E-01            NaN
         13   -1    0    0    0    0  0.00000000000E+00  0.00000000000E+00  0.74505805969E-08  0.10566000000E+00  0.10566000000E+00 0.  1.
     999900   -1    0    0    0    0 -0.00000000000E+00 -0.00000000000E+00 -0.74505805969E-08  0.93827000000E+00  0.93827000000E+00 0.  1.
     999902    2    1    2    0    0 -0.17574215143E-01  0.14048396820E-01 -0.73781532459E-02  0.10202520010E+01  0.10199772046E+01 0.  0.
     999903    2    3    3    0    0  0.15789178226E-02  0.11738498105E+00  0.55812297564E-01  0.13174858221E+00  0.21469736767E-01 0.  0.
         14    1    1    2    0    0  0.17574215143E-01 -0.14048396820E-01  0.73781532459E-02  0.23677998995E-01  0.00000000000E+00 0.  1.
     999901    1    3    3    0    0 -0.19153132966E-01 -0.10333658423E+00 -0.63190450810E-01  0.88850341880E+00  0.88000000000E+00 0.  1.
        -11    1    4    4    0    0  0.54604146813E-03  0.38853026311E-01  0.29940852599E-01  0.49056820017E-01  0.51100000000E-03 0.  1.
         11    1    4    4    0    0  0.10328763545E-02  0.78531954737E-01  0.25871444964E-01  0.82691762189E-01  0.51100000000E-03 0. -1.
</event>
<event>
 8    1  0.1143506E+005  0.1043930E+01  0.7957747E-01            NaN
         13   -1    0    0    0    0  0.00000000000E+00  0.00000000000E+00  0.74505805969E-08  0.10566000000E+00  0.10566000000E+00 0.  1.
     999900   -1    0    0    0    0 -0.00000000000E+00 -0.00000000000E+00 -0.74505805969E-08  0.93827000000E+00  0.93827000000E+00 0. -1.
     999902    2    1    2    0    0 -0.48810207295E-02 -0.12353587646E-01 -0.19977280241E-01  0.10199398517E+01  0.10196576748E+01 0.  0.
     999903    2    3    3    0    0 -0.86227570248E-01  0.43371039961E-01  0.82650817163E-01  0.12850560193E+00  0.19138734817E-01 0.  0.
         14    1    1    2    0    0  0.48810207295E-02  0.12353587646E-01  0.19977280241E-01  0.23990148330E-01  0.00000000000E+00 0.  1.
     999901    1    3    3    0    0  0.81346549519E-01 -0.55724627607E-01 -0.10262809740E+00  0.89143424974E+00  0.88000000000E+00 0. -1.
        -11    1    4    4    0    0 -0.60467842175E-01  0.29734108235E-01  0.45610434812E-01  0.81369834795E-01  0.51100000000E-03 0. -1.
         11    1    4    4    0    0 -0.25759728074E-01  0.13636931726E-01  0.37040382351E-01  0.47135767131E-01  0.51100000000E-03 0.  1.
</event>
<event>
 8    1  0.1143506E+005  0.1043930E+01  0.7957747E-01            NaN
         13   -1    0    0    0    0  0.00000000000E+00  0.00000000000E+00  0.74505805969E-08  0.10566000000E+00  0.10566000000E+00 0.  1.
     999900   -1    0    0    0    0 -0.00000000000E+00 -0.00000000000E+00 -0.74505805969E-08  0.93827000000E+00  0.93827000000E+00 0. -1.
     999902    2    1    2    0    0 -0.11709019695E-01 -0.20647884054E-02  0.22620104345E-01  0.10183754776E+01  0.10180548020E+01 0.  0.
     999903    2    3    3    0    0  0.39447410538E-01  0.18219610320E-02 -0.11767238780E+00  0.12578706714E+00  0.20400433041E-01 0.  0.
         14    1    1    2    0    0  0.11709019695E-01  0.20647884054E-02 -0.22620104345E-01  0.25554522378E-01  0.00000000000E+00 0. -1.
     999901    1    3    3    0    0 -0.51156430233E-01 -0.38867494374E-02  0.14029249215E+00  0.89258841048E+00  0.88000000000E+00 0.  1.
        -11    1    4    4    0    0  0.10492401900E-01  0.88717433599E-02 -0.49703998741E-01  0.51570795415E-01  0.51100000000E-03 0.  1.
         11    1    4    4    0    0  0.28955008637E-01 -0.70497823280E-02 -0.67968389061E-01  0.74216271724E-01  0.51100000000E-03 0. -1.
</event>
<event>
 8    1  0.1143506E+005  0.1043930E+01  0.7957747E-01            NaN
         13   -1    0    0    0    0  0.00000000000E+00  0.00000000000E+00  0.74505805969E-08  0.10566000000E+00  0.10566000000E+00 0. -1.
     999900   -1    0    0    0    0 -0.00000000000E+00 -0.00000000000E+00 -0.74505805969E-08  0.93827000000E+00  0.93827000000E+00 0. -1.
     999902    2    1    2    0    0 -0.61022144460E-02  0.45957816696E-02  0.21045349066E-01  0.10215410530E+01  0.10212956761E+01 0.  0.
     999903    2    3    3    0    0  0.66914629514E-01 -0.85638503415E-01 -0.67474430150E-01  0.12951558419E+00  0.20247639691E-01 0.  0.
         14    1    1    2    0    0  0.61022144460E-02 -0.45957816696E-02 -0.21045349066E-01  0.22388946996E-01  0.00000000000E+00 0.  1.
     999901    1    3    3    0    0 -0.73016843959E-01  0.90234285084E-01  0.88519779216E-01  0.89202546882E+00  0.88000000000E+00 0.  1.
        -11    1    4    4    0    0  0.19277714691E-01 -0.38733807863E-01 -0.32122087946E-01  0.53889032375E-01  0.51100000000E-03 0. -1.
         11    1    4    4    0    0  0.47636914823E-01 -0.46904695552E-01 -0.35352342204E-01  0.75626551812E-01  0.51100000000E-03 0.  1.
</event>
<event>
 8    1  0.1143506E+005  0.1043930E+01  0.7957747E-01            NaN
         13   -1    0    0    0    0  0.00000000000E+00  0.00000000000E+00  0.74505805969E-08  0.10566000000E+00  0.10566000000E+00 0. -1.
     999900   -1    0    0    0    0 -0.00000000000E+00 -0.00000000000E+00 -0.74505805969E-08  0.93827000000E+00  0.93827000000E+00 0.  1.
     999902    2    1    2    0    0 -0.19378198447E-01  0.64253996470E-02 -0.14097765431E-01  0.10191197738E+01  0.10188177295E+01 0.  0.
     999903    2    3    3    0    0 -0.30924783092E-01 -0.20341362439E-01  0.12127167509E+00  0.12829169349E+00  0.19540373695E-01 0.  0.
         14    1    1    2    0    0  0.19378198447E-01 -0.64253996470E-02  0.14097765431E-01  0.24810226235E-01  0.00000000000E+00 0. -1.
     999901    1    3    3    0    0  0.11546584645E-01  0.26766762086E-01 -0.13536944053E+00  0.89082808027E+00  0.88000000000E+00 0.  1.
        -11    1    4    4    0    0 -0.12284751932E-01 -0.10975104220E-01  0.26167747716E-01  0.30925397074E-01  0.51100000000E-03 0.  1.
         11    1    4    4    0    0 -0.18640031160E-01 -0.93662582189E-02  0.95103927379E-01  0.97366296421E-01  0.51100000000E-03 0. -1.
</event>
<event>
 8    1  0.1143506E+005  0.1043930E+01  0.7957747E-01            NaN
         13   -1    0    0    0    0  0.00000000000E+00  0.00000000000E+00  0.74505805969E-08  0.10566000000E+00  0.10566000000E+00 0.  1.
     999900   -1    0    0    0    0 -0.00000000000E+00 -0.00000000000E+00 -0.74505805969E-08  0.93827000000E+00  0.93827000000E+00 0. -1.
     999902    2    1    2    0    0  0.11038255603E-01 -0.12897749919E-01 -0.24655276739E-01  0.10139954429E+01  0.10135534917E+01 0.  0.
     999903    2    3    3    0    0  0.74141941744E-02  0.34845971793E-01 -0.12076950721E+00  0.12746820579E+00  0.19840806197E-01 0.  0.
         14    1    1    2    0    0 -0.11038255603E-01  0.12897749919E-01  0.24655276739E-01  0.29934557134E-01  0.00000000000E+00 0.  1.
     999901    1    3    3    0    0  0.36240614281E-02 -0.47743721712E-01  0.96114230467E-01  0.88652723708E+00  0.88000000000E+00 0.  1.
        -11    1    4    4    0    0  0.10765947248E-01  0.17269280667E-01 -0.41775451958E-01  0.46471315693E-01  0.51100000000E-03 0. -1.
         11    1    4    4    0    0 -0.33517530732E-02  0.17576691125E-01 -0.78994055247E-01  0.80996890095E-01  0.51100000000E-03 0.  1.
</event>
<event>
 8    1  0.1143506E+005  0.1043930E+01  0.7957747E-01            NaN
         13   -1    0    0    0    0  0.00000000000E+00  0.00000000000E+00  0.74505805969E-08  0.10566000000E+00  0.10566000000E+00 0.  1.
     999900   -1    0    0    0    0 -0.00000000000E+00 -0.00000000000E+00 -0.74505805969E-08  0.93827000000E+00  0.93827000000E+00 0.  1.
     999902    2    1    2    0    0  0.32870135811E-02 -0.34134683698E-02  0.14325506366E-01  0.10288410518E+01  0.10287303989E+01 0.  0.
     999903    2    3    3    0    0 -0.12933110130E+00 -0.11111344074E-01  0.38202537227E-01  0.13855068666E+00  0.29780248378E-01 0.  0.
         14    1    1    2    0    0 -0.32870135811E-02  0.34134683698E-02 -0.14325506366E-01  0.15088948182E-01  0.00000000000E+00 0. -1.
     999901    1    3    3    0    0  0.13261811488E+00  0.76978757040E-02 -0.23877030860E-01  0.89029036516E+00  0.88000000000E+00 0. -1.
        -11    1    4    4    0    0 -0.59831410398E-01  0.37666988150E-02  0.51729101835E-02  0.60174793818E-01  0.51100000000E-03 0.  1.
         11    1    4    4    0    0 -0.69499690902E-01 -0.14878042889E-01  0.33029627043E-01  0.78375892845E-01  0.51100000000E-03 0. -1.
</event>
<event>
 8    1  0.1143506E+005  0.1043930E+01  0.7957747E-01            NaN
         13   -1    0    0    0    0  0.00000000000E+00  0.00000000000E+00  0.74505805969E-08  0.10566000000E+00  0.10566000000E+00 0. -1.
     999900   -1    0    0    0    0 -0.00000000000E+00 -0.00000000000E+00 -0.74505805969E-08  0.93827000000E+00  0.93827000000E+00 0. -1.
     999902    2    1    2    0    0  0.35941633944E-02 -0.21049538049E-01 -0.10810485492E-01  0.10199953461E+01  0.10197144886E+01 0.  0.
     999903    2    3    3    0    0  0.34136152657E-01  0.99722569015E-01  0.69130947608E-01  0.12763367741E+00  0.20034969499E-01 0.  0.
         14    1    1    2    0    0 -0.35941633944E-02  0.21049538049E-01  0.10810485492E-01  0.23934653938E-01  0.00000000000E+00 0.  1.
     999901    1    3    3    0    0 -0.30541989262E-01 -0.12077210706E+00 -0.79941433100E-01  0.89236166865E+00  0.88000000000E+00 0. -1.
        -11    1    4    4    0    0  0.91774666385E-02  0.51180534140E-01  0.26430200888E-01  0.58330863261E-01  0.51100000000E-03 0.  1.
         11    1    4    4    0    0  0.24958686018E-01  0.48542034875E-01  0.42700746720E-01  0.69302814149E-01  0.51100000000E-03 0. -1.
</event>
<event>
 8    1  0.1143506E+005  0.1043930E+01  0.7957747E-01            NaN
         13   -1    0    0    0    0  0.00000000000E+00  0.00000000000E+00  0.74505805969E-08  0.10566000000E+00  0.10566000000E+00 0.  1.
     999900   -1    0    0    0    0 -0.00000000000E+00 -0.00000000000E+00 -0.74505805969E-08  0.93827000000E+00  0.93827000000E+00 0. -1.
     999902    2    1    2    0    0 -0.15930439138E-01  0.44633245556E-02 -0.17129247542E-01  0.10201159017E+01  0.10198378997E+01 0.  0.
     999903    2    3    3    0    0  0.12394165986E-01  0.12458955182E+00 -0.34198283527E-01  0.13133924486E+00  0.20107283990E-01 0.  0.
         14    1    1    2    0    0  0.15930439138E-01 -0.44633245556E-02  0.17129247542E-01  0.23814098315E-01  0.00000000000E+00 0.  1.
     999901    1    3    3    0    0 -0.28324605123E-01 -0.12012622727E+00  0.17069035986E-01  0.88877665683E+00  0.88000000000E+00 0. -1.
        -11    1    4    4    0    0  0.12627822622E-01  0.91830723229E-01 -0.16676070485E-01  0.94184372805E-01  0.51100000000E-03 0.  1.
         11    1    4    4    0    0 -0.23365663674E-03  0.32758828594E-01 -0.17522213042E-01  0.37154872052E-01  0.51100000000E-03 0. -1.
</event>
<event>
 8    1  0.1143506E+005  0.1043930E+01  0.7957747E-01            NaN
         13   -1    0    0    0    0  0.00000000000E+00  0.00000000000E+00  0.74505805969E-08  0.10566000000E+00  0.10566000000E+00 0. -1.
     999900   -1    0    0    0    0 -0.00000000000E+00 -0.00000000000E+00 -0.74505805969E-08  0.93827000000E+00  0.93827000000E+00 0. -1.
     999902    2    1    2    0    0  0.64639602433E-02 -0.12864655829E-01  0.18619110902E-01  0.10203937845E+01  0.10201223073E+01 0.  0.
     999903    2    3    3    0    0 -0.12149873253E+00  0.14286792836E-01 -0.36050192997E-01  0.12904627383E+00  0.19679174702E-01 0.  0.
         14    1    1    2    0    0 -0.64639602433E-02  0.12864655829E-01 -0.18619110902E-01  0.23536215550E-01  0.00000000000E+00 0. -1.
     999901    1    3    3    0    0  0.12796269278E+00 -0.27151448665E-01  0.54669303898E-01  0.89134751062E+00  0.88000000000E+00 0. -1.
        -11    1    4    4    0    0 -0.39620540226E-01  0.25265572472E-02 -0.21180114045E-01  0.45000322791E-01  0.51100000000E-03 0.  1.
         11    1    4    4    0    0 -0.81878192306E-01  0.11760235589E-01 -0.14870078951E-01  0.84045951036E-01  0.51100000000E-03 0. -1.
</event>
<event>
 8    1  0.1143506E+005  0.1043930E+01  0.7957747E-01            NaN
         13   -1    0    0    0    0  0.00000000000E+00  0.00000000000E+00  0.74505805969E-08  0.10566000000E+00  0.10566000000E+00 0. -1.
     999900   -1    0    0    0    0 -0.00000000000E+00 -0.00000000000E+00 -0.74505805969E-08  0.93827000000E+00  0.93827000000E+00 0. -1.
     999902    2    1    2    0    0 -0.20064678774E-01 -0.13208347099E-01 -0.17193543077E-02  0.10198466459E+01  0.10195622458E+01 0.  0.
     999903    2    3    3    0    0 -0.11859074523E+00  0.54129551568E-01 -0.14519791774E-02  0.13179155193E+00  0.19316617411E-01 0.  0.
         14    1    1    2    0    0  0.20064678774E-01  0.13208347099E-01  0.17193543077E-02  0.24083354140E-01  0.00000000000E+00 0. -1.
     999901    1    3    3    0    0  0.98526066459E-01 -0.67337898667E-01 -0.26737513031E-03  0.88805509393E+00  0.88000000000E+00 0. -1.
        -11    1    4    4    0    0 -0.55834802322E-01  0.32870116125E-01 -0.76376640215E-02  0.65242353706E-01  0.51100000000E-03 0.  1.
         11    1    4    4    0    0 -0.62755942911E-01  0.21259435443E-01  0.61856848441E-02  0.66549198222E-01  0.51100000000E-03 0. -1.
</event>
<event>
 8    1  0.1143506E+005  0.1043930E+01  0.7957747E-01            NaN
         13   -1    0    0    0    0  0.00000000000E+00  0.00000000000E+00  0.74505805969E-08  0.10566000000E+00  0.10566000000E+00 0.  1.
     999900   -1    0    0    0    0 -0.00000000000E+00 -0.00000000000E+00 -0.74505805969E-08  0.93827000000E+00  0.93827000000E+00 0.  1.
     999902    2    1    2    0    0  0.26964830338E-01  0.12269663710E-01 -0.16205332211E-01  0.10101622711E+01  0.10095977191E+01 0.  0.
     999903    2    3    3    0    0 -0.10158452444E+00  0.59200838480E-01 -0.88077641566E-02  0.11955450346E+00  0.19787564388E-01 0.  0.
         14    1    1    2    0    0 -0.26964830338E-01 -0.12269663710E-01  0.16205332211E-01  0.33767728896E-01  0.00000000000E+00 0.  1.
     999901    1    3    3    0    0  0.12854935478E+00 -0.46931174770E-01 -0.73975680546E-02  0.89060776765E+00  0.88000000000E+00 0.  1.
        -11    1    4    4    0    0 -0.65165589468E-01  0.48523272584E-01 -0.71594685715E-02  0.81563356627E-01  0.51100000000E-03 0.  1.
         11    1    4    4    0    0 -0.36418934974E-01  0.10677565896E-01 -0.16482955851E-02  0.37991146830E-01  0.51100000000E-03 0. -1.
</event>
<event>
 8    1  0.1143506E+005  0.1043930E+01  0.7957747E-01            NaN
         13   -1    0    0    0    0  0.00000000000E+00  0.00000000000E+00  0.74505805969E-08  0.10566000000E+00  0.10566000000E+00 0. -1.
     999900   -1    0    0    0    0 -0.00000000000E+00 -0.00000000000E+00 -0.74505805969E-08  0.93827000000E+00  0.93827000000E+00 0.  1.
     999902    2    1    2    0    0  0.49932202075E-02 -0.22112782836E-01 -0.44755853231E-02  0.10208228955E+01  0.10205613386E+01 0.  0.
     999903    2    3    3    0    0  0.33139374331E-01  0.80804285254E-01  0.93008295736E-01  0.12903411115E+00  0.19279733321E-01 0.  0.
         14    1    1    2    0    0 -0.49932202075E-02  0.22112782836E-01  0.44755853231E-02  0.23107104465E-01  0.00000000000E+00 0. -1.
     999901    1    3    3    0    0 -0.28146154123E-01 -0.10291706809E+00 -0.97483881059E-01  0.89178878439E+00  0.88000000000E+00 0.  1.
        -11    1    4    4    0    0  0.13717521543E-01  0.56162289045E-01  0.55670296538E-01  0.80260925398E-01  0.51100000000E-03 0.  1.
         11    1    4    4    0    0  0.19421852788E-01  0.24641996209E-01  0.37337999198E-01  0.48773185748E-01  0.51100000000E-03 0. -1.
</event>
<event>
 8    1  0.1143506E+005  0.1043930E+01  0.7957747E-01            NaN
         13   -1    0    0    0    0  0.00000000000E+00  0.00000000000E+00  0.74505805969E-08  0.10566000000E+00  0.10566000000E+00 0.  1.
     999900   -1    0    0    0    0 -0.00000000000E+00 -0.00000000000E+00 -0.74505805969E-08  0.93827000000E+00  0.93827000000E+00 0. -1.
     999902    2    1    2    0    0  0.12544191336E-01 -0.35378400323E-01  0.41995865232E-03  0.10063911626E+01  0.10056908113E+01 0.  0.
     999903    2    3    3    0    0  0.11015239186E-01  0.34172920268E-01  0.10975356296E+00  0.11690054384E+00  0.18187044672E-01 0.  0.
         14    1    1    2    0    0 -0.12544191336E-01  0.35378400323E-01 -0.41995865232E-03  0.37538837368E-01  0.00000000000E+00 0.  1.
     999901    1    3    3    0    0  0.15289521504E-02 -0.69551320591E-01 -0.10933360431E+00  0.88949061879E+00  0.88000000000E+00 0. -1.
        -11    1    4    4    0    0  0.50047660705E-02  0.45277102795E-02  0.68002479225E-02  0.95943908927E-02  0.51100000000E-03 0.  1.
         11    1    4    4    0    0  0.60104731151E-02  0.29645209989E-01  0.10295331504E+00  0.10730615295E+00  0.51100000000E-03 0. -1.
</event>
<event>
 8    1  0.1143506E+005  0.1043930E+01  0.7957747E-01            NaN
         13   -1    0    0    0    0  0.00000000000E+00  0.00000000000E+00  0.74505805969E-08  0.10566000000E+00  0.10566000000E+00 0.  1.
     999900   -1    0    0    0    0 -0.00000000000E+00 -0.00000000000E+00 -0.74505805969E-08  0.93827000000E+00  0.93827000000E+00 0.  1.
     999902    2    1    2    0    0  0.92334084026E-02 -0.21640644130E-01  0.13293288229E-02  0.10203643380E+01  0.10200921732E+01 0.  0.
     999903    2    3    3    0    0  0.11453418241E+00 -0.23271719110E-01 -0.59015298612E-01  0.13203310055E+00  0.17037673580E-01 0.  0.
         14    1    1    2    0    0 -0.92334084026E-02  0.21640644130E-01 -0.13293288229E-02  0.23565661973E-01  0.00000000000E+00 0. -1.
     999901    1    3    3    0    0 -0.10530077401E+00  0.16310749795E-02  0.60344627435E-01  0.88833123747E+00  0.88000000000E+00 0. -1.
        -11    1    4    4    0    0  0.55214131690E-01 -0.43778364079E-02 -0.33619770157E-01  0.64794412230E-01  0.51100000000E-03 0.  1.
         11    1    4    4    0    0  0.59320050719E-01 -0.18893882702E-01 -0.25395528455E-01  0.67238688323E-01  0.51100000000E-03 0. -1.
</event>
<event>
 8    1  0.1143506E+005  0.1043930E+01  0.7957747E-01            NaN
         13   -1    0    0    0    0  0.00000000000E+00  0.00000000000E+00  0.74505805969E-08  0.10566000000E+00  0.10566000000E+00 0. -1.
     999900   -1    0    0    0    0 -0.00000000000E+00 -0.00000000000E+00 -0.74505805969E-08  0.93827000000E+00  0.93827000000E+00 0.  1.
     999902    2    1    2    0    0  0.13361887038E-01  0.17639078678E-01 -0.34805993847E-02  0.10215292926E+01  0.10212836549E+01 0.  0.
     999903    2    3    3    0    0 -0.20883351106E-01  0.35319729168E-01 -0.12435055124E+00  0.13243149872E+00  0.19784959911E-01 0.  0.
         14    1    1    2    0    0 -0.13361887038E-01 -0.17639078678E-01  0.34805993847E-02  0.22400707442E-01  0.00000000000E+00 0. -1.
     999901    1    3    3    0    0  0.34245238144E-01 -0.17680650491E-01  0.12086995186E+00  0.88909779383E+00  0.88000000000E+00 0. -1.
        -11    1    4    4    0    0 -0.54696792219E-02  0.20918915736E-01 -0.39900747817E-01  0.45385561842E-01  0.51100000000E-03 0. -1.
         11    1    4    4    0    0 -0.15413671884E-01  0.14400813432E-01 -0.84449803424E-01  0.87045936883E-01  0.51100000000E-03 0.  1.
</event>
<event>
 8    1  0.1143506E+005  0.1043930E+01  0.7957747E-01            NaN
         13   -1    0    0    0    0  0.00000000000E+00  0.00000000000E+00  0.74505805969E-08  0.10566000000E+00  0.10566000000E+00 0.  1.
     999900   -1    0    0    0    0 -0.00000000000E+00 -0.00000000000E+00 -0.74505805969E-08  0.93827000000E+00  0.93827000000E+00 0. -1.
     999902    2    1    2    0    0 -0.96791156344E-02  0.15533364989E-01  0.14683075003E-01  0.10204659126E+01  0.10201961161E+01 0.  0.
     999903    2    3    3    0    0 -0.80178669360E-01 -0.32111109139E-02 -0.10036673342E+00  0.12998402007E+00  0.19581471945E-01 0.  0.
         14    1    1    2    0    0  0.96791156344E-02 -0.15533364989E-01 -0.14683075003E-01  0.23464087429E-01  0.00000000000E+00 0. -1.
     999901    1    3    3    0    0  0.70499553725E-01  0.18744475903E-01  0.11504980842E+00  0.89048189250E+00  0.88000000000E+00 0.  1.
        -11    1    4    4    0    0 -0.23730913490E-01 -0.55601051101E-02 -0.43229557763E-01  0.49629898340E-01  0.51100000000E-03 0.  1.
         11    1    4    4    0    0 -0.56447755869E-01  0.23489941962E-02 -0.57137175654E-01  0.80354121731E-01  0.51100000000E-03 0. -1.
</event>
<event>
 8    1  0.1143506E+005  0.1043930E+01  0.7957747E-01            NaN
         13   -1    0    0    0    0  0.00000000000E+00  0.00000000000E+00  0.74505805969E-08  0.10566000000E+00  0.10566000000E+00 0.  1.
     999900   -1    0    0    0    0 -0.00000000000E+00 -0.00000000000E+00 -0.74505805969E-08  0.93827000000E+00  0.93827000000E+00 0. -1.
     999902    2    1    2    0    0  0.13296620966E-01 -0.22310768222E-01  0.93700590733E-02  0.10163189784E+01  0.10159438455E+01 0.  0.
     999903    2    3    3    0    0  0.45941980546E-01  0.93315222674E-01  0.68622858778E-01  0.12618079611E+00  0.19851957079E-01 0.  0.
         14    1    1    2    0    0 -0.13296620966E-01  0.22310768222E-01 -0.93700590733E-02  0.27611021618E-01  0.00000000000E+00 0. -1.
     999901    1    3    3    0    0 -0.32645359580E-01 -0.11562599090E+00 -0.59252799705E-01  0.89013818228E+00  0.88000000000E+00 0.  1.
        -11    1    4    4    0    0  0.92528559744E-02  0.14441634402E-01  0.20615625401E-01  0.26822402569E-01  0.51100000000E-03 0.  1.
         11    1    4    4    0    0  0.36689124572E-01  0.78873588272E-01  0.48007233376E-01  0.99358393537E-01  0.51100000000E-03 0. -1.
</event>
<event>
 8    1  0.1143506E+005  0.1043930E+01  0.7957747E-01            NaN
         13   -1    0    0    0    0  0.00000000000E+00  0.00000000000E+00  0.74505805969E-08  0.10566000000E+00  0.10566000000E+00 0.  1.
     999900   -1    0    0    0    0 -0.00000000000E+00 -0.00000000000E+00 -0.74505805969E-08  0.93827000000E+00  0.93827000000E+00 0. -1.
     999902    2    1    2    0    0  0.47666599704E-02  0.22630485255E-01  0.34239826347E-02  0.10205508733E+01  0.10202830496E+01 0.  0.
     999903    2    3    3    0    0  0.18861182974E-01 -0.10409191637E+00 -0.69799760135E-01  0.12835193851E+00  0.20281576078E-01 0.  0.
         14    1    1    2    0    0 -0.47666599704E-02 -0.22630485255E-01 -0.34239826347E-02  0.23379126742E-01  0.00000000000E+00 0. -1.
     999901    1    3    3    0    0 -0.14094523004E-01  0.12672240163E+00  0.73223742769E-01  0.89219893474E+00  0.88000000000E+00 0.  1.
        -11    1    4    4    0    0 -0.35741398352E-02 -0.32166854947E-01 -0.20915079756E-01  0.38538068386E-01  0.51100000000E-03 0.  1.
         11    1    4    4    0    0  0.22435322809E-01 -0.71925061426E-01 -0.48884680378E-01  0.89813870128E-01  0.51100000000E-03 0. -1.
</event>
<event>
 8    1  0.1143506E+005  0.1043930E+01  0.7957747E-01            NaN
         13   -1    0    0    0    0  0.00000000000E+00  0.00000000000E+00  0.74505805969E-08  0.10566000000E+00  0.10566000000E+00 0.  1.
     999900   -1    0    0    0    0 -0.00000000000E+00 -0.00000000000E+00 -0.74505805969E-08  0.93827000000E+00  0.93827000000E+00 0. -1.
     999902    2    1    2    0    0 -0.10552695083E-01 -0.33089637678E-02 -0.18574443204E-01  0.10223124480E+01  0.10220838629E+01 0.  0.
     999903    2    3    3    0    0 -0.81520091568E-01  0.83010621877E-01  0.58193074571E-01  0.13193011774E+00  0.21973469573E-01 0.  0.
         14    1    1    2    0    0  0.10552695083E-01  0.33089637678E-02  0.18574443204E-01  0.21617552014E-01  0.00000000000E+00 0.  1.
     999901    1    3    3    0    0  0.70967396486E-01 -0.86319585645E-01 -0.76767517775E-01  0.89038233025E+00  0.88000000000E+00 0.  1.
        -11    1    4    4    0    0 -0.64414580987E-01  0.56204283760E-01  0.34134300013E-01  0.92052003319E-01  0.51100000000E-03 0. -1.
         11    1    4    4    0    0 -0.17105510581E-01  0.26806338118E-01  0.24058774558E-01  0.39878114421E-01  0.51100000000E-03 0.  1.
</event>
<event>
 8    1  0.1143506E+005  0.1043930E+01  0.7957747E-01            NaN
         13   -1    0    0    0    0  0.00000000000E+00  0.00000000000E+00  0.74505805969E-08  0.10566000000E+00  0.10566000000E+00 0. -1.
     999900   -1    0    0    0    0 -0.00000000000E+00 -0.00000000000E+00 -0.74505805969E-08  0.93827000000E+00  0.93827000000E+00 0.  1.
     999902    2    1    2    0    0  0.74614413138E-02  0.19167703883E-01 -0.11064582558E-01  0.10205740807E+01  0.10203067947E+01 0.  0.
     999903    2    3    3    0    0  0.94001770955E-01  0.63200699274E-01  0.64447037669E-01  0.13201899625E+00  0.21093443874E-01 0.  0.
         14    1    1    2    0    0 -0.74614413138E-02 -0.19167703883E-01  0.11064582558E-01  0.23355919288E-01  0.00000000000E+00 0. -1.
     999901    1    3    3    0    0 -0.86540329641E-01 -0.44032995391E-01 -0.75511620228E-01  0.88855508446E+00  0.88000000000E+00 0.  1.
        -11    1    4    4    0    0  0.44164125419E-01  0.42178912897E-01  0.32129210711E-01  0.69007810928E-01  0.51100000000E-03 0.  1.
         11    1    4    4    0    0  0.49837645536E-01  0.21021786377E-01  0.32317826958E-01  0.63011185319E-01  0.51100000000E-03 0. -1.
</event>
<event>
 8    1  0.1143506E+005  0.1043930E+01  0.7957747E-01            NaN
         13   -1    0    0    0    0  0.00000000000E+00  0.00000000000E+00  0.74505805969E-08  0.10566000000E+00  0.10566000000E+00 0.  1.
     999900   -1    0    0    0    0 -0.00000000000E+00 -0.00000000000E+00 -0.74505805969E-08  0.93827000000E+00  0.93827000000E+00 0.  1.
     999902    2    1    2    0    0 -0.12970833792E-01 -0.14035579781E-01 -0.14521498443E-01  0.10199276262E+01  0.10196451583E+01 0.  0.
     999903    2    3    3    0    0  0.27255822034E-01  0.36621250806E-01 -0.12173625659E+00  0.13106357438E+00  0.16551390105E-01 0.  0.
         14    1    1    2    0    0  0.12970833792E-01  0.14035579781E-01  0.14521498443E-01  0.24002373759E-01  0.00000000000E+00 0.  1.
     999901    1    3    3    0    0 -0.40226655827E-01 -0.50656830587E-01  0.10721475815E+00  0.88886405186E+00  0.88000000000E+00 0. -1.
        -11    1    4    4    0    0  0.25651940422E-01  0.27554988898E-01 -0.81384519116E-01  0.89671626133E-01  0.51100000000E-03 0.  1.
         11    1    4    4    0    0  0.16038816124E-02  0.90662619083E-02 -0.40351737478E-01  0.41391948247E-01  0.51100000000E-03 0. -1.
</event>
<event>
 8    1  0.1143506E+005  0.1043930E+01  0.7957747E-01            NaN
         13   -1    0    0    0    0  0.00000000000E+00  0.00000000000E+00  0.74505805969E-08  0.10566000000E+00  0.10566000000E+00 0. -1.
     999900   -1    0    0    0    0 -0.00000000000E+00 -0.00000000000E+00 -0.74505805969E-08  0.93827000000E+00  0.93827000000E+00 0.  1.
     999902    2    1    2    0    0  0.48515053427E-02 -0.62738190477E-02 -0.18596655562E-01  0.10237128413E+01  0.10235131889E+01 0.  0.
     999903    2    3    3    0    0 -0.38687639991E-01  0.12533408938E+00 -0.32759456805E-02  0.13272966359E+00  0.20026590537E-01 0.  0.
         14    1    1    2    0    0 -0.48515053427E-02  0.62738190477E-02  0.18596655562E-01  0.20217158743E-01  0.00000000000E+00 0. -1.
     999901    1    3    3    0    0  0.43539145334E-01 -0.13160790842E+00 -0.15320709882E-01  0.89098317767E+00  0.88000000000E+00 0. -1.
        -11    1    4    4    0    0 -0.11035643506E-01  0.54845312317E-01  0.67336101026E-02  0.56350655158E-01  0.51100000000E-03 0.  1.
         11    1    4    4    0    0 -0.27651996486E-01  0.70488777059E-01 -0.10009555783E-01  0.76379008431E-01  0.51100000000E-03 0. -1.
</event>
<event>
 8    1  0.1143506E+005  0.1043930E+01  0.7957747E-01            NaN
         13   -1    0    0    0    0  0.00000000000E+00  0.00000000000E+00  0.74505805969E-08  0.10566000000E+00  0.10566000000E+00 0.  1.
     999900   -1    0    0    0    0 -0.00000000000E+00 -0.00000000000E+00 -0.74505805969E-08  0.93827000000E+00  0.93827000000E+00 0.  1.
     999902    2    1    2    0    0 -0.12069108603E-03  0.20195445279E-01 -0.14456608005E-01  0.10190932512E+01  0.10187905528E+01 0.  0.
     999903    2    3    3    0    0 -0.11556679769E+00  0.42124074241E-01  0.36572306938E-01  0.12981679336E+00  0.19614888296E-01 0.  0.
         14    1    1    2    0    0  0.12069108603E-03 -0.20195445279E-01  0.14456608005E-01  0.24836748808E-01  0.00000000000E+00 0.  1.
     999901    1    3    3    0    0  0.11544610661E+00 -0.21928628962E-01 -0.51028914943E-01  0.88927645783E+00  0.88000000000E+00 0.  1.
        -11    1    4    4    0    0 -0.49114020505E-01  0.84335166193E-02  0.18418099888E-01  0.53130017290E-01  0.51100000000E-03 0. -1.
         11    1    4    4    0    0 -0.66452777189E-01  0.33690557622E-01  0.18154207050E-01  0.76686776067E-01  0.51100000000E-03 0.  1.
</event>
<event>
 8    1  0.1143506E+005  0.1043930E+01  0.7957747E-01            NaN
         13   -1    0    0    0    0  0.00000000000E+00  0.00000000000E+00  0.74505805969E-08  0.10566000000E+00  0.10566000000E+00 0.  1.
     999900   -1    0    0    0    0 -0.00000000000E+00 -0.00000000000E+00 -0.74505805969E-08  0.93827000000E+00  0.93827000000E+00 0. -1.
     999902    2    1    2    0    0  0.69286496527E-03 -0.31448485933E-01 -0.63924172925E-02  0.10118309295E+01  0.10113216499E+01 0.  0.
     999903    2    3    3    0    0 -0.50160224585E-02  0.10480336563E+00 -0.54679459465E-01  0.12001884339E+00  0.20143821713E-01 0.  0.
         14    1    1    2    0    0 -0.69286496527E-03  0.31448485933E-01  0.63924172925E-02  0.32099070519E-01  0.00000000000E+00 0.  1.
     999901    1    3    3    0    0  0.57088874237E-02 -0.13625185156E+00  0.48287042172E-01  0.89181208609E+00  0.88000000000E+00 0.  1.
        -11    1    4    4    0    0  0.19787848178E-02  0.14955216360E-01 -0.10120656459E-02  0.15128102445E-01  0.51100000000E-03 0. -1.
         11    1    4    4    0    0 -0.69948072762E-02  0.89848149271E-01 -0.53667393819E-01  0.10489074095E+00  0.51100000000E-03 0.  1.
</event>
<event>
 8    1  0.1143506E+005  0.1043930E+01  0.7957747E-01            NaN
         13   -1    0    0    0    0  0.00000000000E+00  0.00000000000E+00  0.74505805969E-08  0.10566000000E+00  0.10566000000E+00 0.  1.
     999900   -1    0    0    0    0 -0.00000000000E+00 -0.00000000000E+00 -0.74505805969E-08  0.93827000000E+00  0.93827000000E+00 0.  1.
     999902    2    1    2    0    0  0.31273295416E-03 -0.13894099314E-01  0.25304829829E-01  0.10150599773E+01  0.10146493381E+01 0.  0.
     999903    2    3    3    0    0  0.21781533167E-01 -0.12084169046E+00 -0.24878086627E-01  0.12690626216E+00  0.20226982982E-01 0.  0.
         14    1    1    2    0    0 -0.31273295416E-03  0.13894099314E-01 -0.25304829829E-01  0.28870022693E-01  0.00000000000E+00 0. -1.
     999901    1    3    3    0    0 -0.21468800213E-01  0.10694759114E+00  0.50182916456E-01  0.88815371515E+00  0.88000000000E+00 0. -1.
        -11    1    4    4    0    0  0.69340160820E-02 -0.31486920984E-01  0.23226285820E-02  0.32328973021E-01  0.51100000000E-03 0. -1.
         11    1    4    4    0    0  0.14847517085E-01 -0.89354769472E-01 -0.27200715209E-01  0.94577289134E-01  0.51100000000E-03 0.  1.
</event>
<event>
 8    1  0.1143506E+005  0.1043930E+01  0.7957747E-01            NaN
         13   -1    0    0    0    0  0.00000000000E+00  0.00000000000E+00  0.74505805969E-08  0.10566000000E+00  0.10566000000E+00 0. -1.
     999900   -1    0    0    0    0 -0.00000000000E+00 -0.00000000000E+00 -0.74505805969E-08  0.93827000000E+00  0.93827000000E+00 0. -1.
     999902    2    1    2    0    0 -0.10903134899E-01  0.14384176561E-01  0.20026843147E-01  0.10169697082E+01  0.10166122811E+01 0.  0.
     999903    2    3    3    0    0  0.25113379322E-01 -0.92917384783E-01 -0.75215094116E-01  0.12462345201E+00  0.24685465222E-01 0.  0.
         14    1    1    2    0    0  0.10903134899E-01 -0.14384176561E-01 -0.20026843147E-01  0.26960291772E-01  0.00000000000E+00 0.  1.
     999901    1    3    3    0    0 -0.36016514222E-01  0.10730156134E+00  0.95241937264E-01  0.89234625621E+00  0.88000000000E+00 0.  1.
        -11    1    4    4    0    0  0.85216473596E-02 -0.68899695327E-01 -0.45760201627E-01  0.83150728582E-01  0.51100000000E-03 0.  1.
         11    1    4    4    0    0  0.16591731963E-01 -0.24017689457E-01 -0.29454892490E-01  0.41472723433E-01  0.51100000000E-03 0. -1.
</event>
<event>
 8    1  0.1143506E+005  0.1043930E+01  0.7957747E-01            NaN
         13   -1    0    0    0    0  0.00000000000E+00  0.00000000000E+00  0.74505805969E-08  0.10566000000E+00  0.10566000000E+00 0.  1.
     999900   -1    0    0    0    0 -0.00000000000E+00 -0.00000000000E+00 -0.74505805969E-08  0.93827000000E+00  0.93827000000E+00 0.  1.
     999902    2    1    2    0    0 -0.17262017941E-02  0.35483730884E-02 -0.23318769179E-01  0.10202797205E+01  0.10200055747E+01 0.  0.
     999903    2    3    3    0    0 -0.10249737575E+00 -0.77101220669E-01  0.99575328646E-02  0.13024236244E+00  0.20337410098E-01 0.  0.
         14    1    1    2    0    0  0.17262017941E-02 -0.35483730884E-02  0.23318769179E-01  0.23650279495E-01  0.00000000000E+00 0.  1.
     999901    1    3    3    0    0  0.10077117395E+00  0.80649593757E-01 -0.33276302043E-01  0.89003735806E+00  0.88000000000E+00 0. -1.
        -11    1    4    4    0    0 -0.99030648835E-01 -0.69372647791E-01  0.65254568605E-02  0.12108871284E+00  0.51100000000E-03 0.  1.
         11    1    4    4    0    0 -0.34667269125E-02 -0.77285728776E-02  0.34320760041E-02  0.91536495950E-02  0.51100000000E-03 0. -1.
</event>
<event>
 8    1  0.1143506E+005  0.1043930E+01  0.7957747E-01            NaN
         13   -1    0    0    0    0  0.00000000000E+00  0.00000000000E+00  0.74505805969E-08  0.10566000000E+00  0.10566000000E+00 0.  1.
     999900   -1    0    0    0    0 -0.00000000000E+00 -0.00000000000E+00 -0.74505805969E-08  0.93827000000E+00  0.93827000000E+00 0.  1.
     999902    2    1    2    0    0 -0.11563029592E-01  0.20357106258E-01 -0.55322591402E-02  0.10198733726E+01  0.10195896110E+01 0.  0.
     999903    2    3    3    0    0 -0.93747729353E-01 -0.78017063099E-01 -0.40183551778E-01  0.12991128685E+00  0.19670427648E-01 0.  0.
         14    1    1    2    0    0  0.11563029592E-01 -0.20357106258E-01  0.55322591402E-02  0.24056627356E-01  0.00000000000E+00 0. -1.
     999901    1    3    3    0    0  0.82184699761E-01  0.98374169357E-01  0.34651292638E-01  0.88996208580E+00  0.88000000000E+00 0. -1.
        -11    1    4    4    0    0 -0.60175441786E-01 -0.38867371837E-01 -0.18689071700E-01  0.74035794787E-01  0.51100000000E-03 0.  1.
         11    1    4    4    0    0 -0.33572287566E-01 -0.39149691262E-01 -0.21494480078E-01  0.55875492062E-01  0.51100000000E-03 0. -1.
</event>
<event>
 8    1  0.1143506E+005  0.1043930E+01  0.7957747E-01            NaN
         13   -1    0    0    0    0  0.00000000000E+00  0.00000000000E+00  0.74505805969E-08  0.10566000000E+00  0.10566000000E+00 0. -1.
     999900   -1    0    0    0    0 -0.00000000000E+00 -0.00000000000E+00 -0.74505805969E-08  0.93827000000E+00  0.93827000000E+00 0. -1.
     999902    2    1    2    0    0 -0.75599829655E-02  0.12842154755E-01 -0.17802096419E-01  0.10207138651E+01  0.10204498055E+01 0.  0.
     999903    2    3    3    0    0 -0.34812068651E-01 -0.58108706746E-01  0.10748650041E+00  0.12859619721E+00  0.19877933582E-01 0.  0.
         14    1    1    2    0    0  0.75599829655E-02 -0.12842154755E-01  0.17802096419E-01  0.23216134866E-01  0.00000000000E+00 0. -1.
     999901    1    3    3    0    0  0.27252085686E-01  0.70950861501E-01 -0.12528859683E+00  0.89211766792E+00  0.88000000000E+00 0. -1.
        -11    1    4    4    0    0 -0.24994693630E-01 -0.24368839341E-01  0.61507522611E-01  0.70724900136E-01  0.51100000000E-03 0.  1.
         11    1    4    4    0    0 -0.98173750216E-02 -0.33739867405E-01  0.45978977800E-01  0.57871297077E-01  0.51100000000E-03 0. -1.
</event>
<event>
 8    1  0.1143506E+005  0.1043930E+01  0.7957747E-01            NaN
         13   -1    0    0    0    0  0.00000000000E+00  0.00000000000E+00  0.74505805969E-08  0.10566000000E+00  0.10566000000E+00 0. -1.
     999900   -1    0    0    0    0 -0.00000000000E+00 -0.00000000000E+00 -0.74505805969E-08  0.93827000000E+00  0.93827000000E+00 0. -1.
     999902    2    1    2    0    0  0.17121894305E-01  0.15351612574E-01  0.72746819569E-03  0.10209221647E+01  0.10206628758E+01 0.  0.
     999903    2    3    3    0    0  0.30652236179E-01 -0.10279641670E+00 -0.70822844472E-01  0.13004536394E+00  0.19729635390E-01 0.  0.
         14    1    1    2    0    0 -0.17121894305E-01 -0.15351612574E-01 -0.72746819569E-03  0.23007835256E-01  0.00000000000E+00 0.  1.
     999901    1    3    3    0    0 -0.13530341875E-01  0.11814802928E+00  0.71550312668E-01  0.89087680081E+00  0.88000000000E+00 0.  1.
        -11    1    4    4    0    0  0.22270706785E-01 -0.42556392971E-01 -0.35288750525E-01  0.59603590479E-01  0.51100000000E-03 0. -1.
         11    1    4    4    0    0  0.83815293944E-02 -0.60240023732E-01 -0.35534093947E-01  0.70441773458E-01  0.51100000000E-03 0.  1.
</event>
<event>
 8    1  0.1143506E+005  0.1043930E+01  0.7957747E-01            NaN
         13   -1    0    0    0    0  0.00000000000E+00  0.00000000000E+00  0.74505805969E-08  0.10566000000E+00  0.10566000000E+00 0. -1.
     999900   -1    0    0    0    0 -0.00000000000E+00 -0.00000000000E+00 -0.74505805969E-08  0.93827000000E+00  0.93827000000E+00 0. -1.
     999902    2    1    2    0    0  0.18938884692E-01  0.39125507110E-02  0.81187206028E-02  0.10229561346E+01  0.10227410964E+01 0.  0.
     999903    2    3    3    0    0 -0.83749940642E-01  0.24986398345E-01 -0.95270957527E-01  0.13072380640E+00  0.19333534394E-01 0.  0.
         14    1    1    2    0    0 -0.18938884692E-01 -0.39125507110E-02 -0.81187206028E-02  0.20973865420E-01  0.00000000000E+00 0. -1.
     999901    1    3    3    0    0  0.10268882533E+00 -0.21073847634E-01  0.10338967813E+00  0.89223232818E+00  0.88000000000E+00 0. -1.
        -11    1    4    4    0    0 -0.29822171783E-01  0.25740523868E-02 -0.42678097209E-01  0.52131264880E-01  0.51100000000E-03 0. -1.
         11    1    4    4    0    0 -0.53927768859E-01  0.22412345958E-01 -0.52592860318E-01  0.78592541522E-01  0.51100000000E-03 0.  1.
</event>
<event>
 8    1  0.1143506E+005  0.1043930E+01  0.7957747E-01            NaN
         13   -1    0    0    0    0  0.00000000000E+00  0.00000000000E+00  0.74505805969E-08  0.10566000000E+00  0.10566000000E+00 0. -1.
     999900   -1    0    0    0    0 -0.00000000000E+00 -0.00000000000E+00 -0.74505805969E-08  0.93827000000E+00  0.93827000000E+00 0.  1.
     999902    2    1    2    0    0  0.19488561275E-01  0.12743232513E-01  0.12736958914E-02  0.10206101309E+01  0.10203436788E+01 0.  0.
     999903    2    3    3    0    0 -0.10147380280E+00  0.61016711898E-02  0.76802217582E-01  0.12910546938E+00  0.20868122867E-01 0.  0.
         14    1    1    2    0    0 -0.19488561275E-01 -0.12743232513E-01 -0.12736958914E-02  0.23319869139E-01  0.00000000000E+00 0. -1.
     999901    1    3    3    0    0  0.12096236407E+00  0.66415613233E-02 -0.75528521691E-01  0.89150466148E+00  0.88000000000E+00 0.  1.
        -11    1    4    4    0    0 -0.59213858477E-01  0.11956347115E-01  0.37552354287E-01  0.71131397467E-01  0.51100000000E-03 0. -1.
         11    1    4    4    0    0 -0.42259944320E-01 -0.58546759250E-02  0.39249863295E-01  0.57974071910E-01  0.51100000000E-03 0.  1.
</event>
<event>
 8    1  0.1143506E+005  0.1043930E+01  0.7957747E-01            NaN
         13   -1    0    0    0    0  0.00000000000E+00  0.00000000000E+00  0.74505805969E-08  0.10566000000E+00  0.10566000000E+00 0. -1.
     999900   -1    0    0    0    0 -0.00000000000E+00 -0.00000000000E+00 -0.74505805969E-08  0.93827000000E+00  0.93827000000E+00 0.  1.
     999902    2    1    2    0    0 -0.87730008610E-02 -0.22788284317E-01 -0.98161299088E-02  0.10176121761E+01  0.10172717991E+01 0.  0.
     999903    2    3    3    0    0  0.48428924411E-01 -0.29498649876E-01  0.11210158024E+00  0.12734198271E+00  0.20825109942E-01 0.  0.
         14    1    1    2    0    0  0.87730008610E-02  0.22788284317E-01  0.98161299088E-02  0.26317823858E-01  0.00000000000E+00 0. -1.
     999901    1    3    3    0    0 -0.57201925272E-01  0.67103655593E-02 -0.12191771015E+00  0.89027019343E+00  0.88000000000E+00 0.  1.
        -11    1    4    4    0    0  0.18497450702E-01 -0.23158753113E-01  0.50459538627E-01  0.58522727959E-01  0.51100000000E-03 0. -1.
         11    1    4    4    0    0  0.29931473709E-01 -0.63398967629E-02  0.61642041616E-01  0.68819254754E-01  0.51100000000E-03 0.  1.
</event>
<event>
 8    1  0.1143506E+005  0.1043930E+01  0.7957747E-01            NaN
         13   -1    0    0    0    0  0.00000000000E+00  0.00000000000E+00  0.74505805969E-08  0.10566000000E+00  0.10566000000E+00 0. -1.
     999900   -1    0    0    0    0 -0.00000000000E+00 -0.00000000000E+00 -0.74505805969E-08  0.93827000000E+00  0.93827000000E+00 0. -1.
     999902    2    1    2    0    0 -0.12740976870E-01 -0.11856897769E-01  0.15882847187E-01  0.10203676709E+01  0.10200955840E+01 0.  0.
     999903    2    3    3    0    0  0.44748535244E-02 -0.11456049894E+00  0.64192226451E-01  0.13291163786E+00  0.20018224482E-01 0.  0.
         14    1    1    2    0    0  0.12740976870E-01  0.11856897769E-01 -0.15882847187E-01  0.23562329067E-01  0.00000000000E+00 0.  1.
     999901    1    3    3    0    0 -0.17215830394E-01  0.10270360117E+00 -0.48309379264E-01  0.88745603307E+00  0.88000000000E+00 0. -1.
        -11    1    4    4    0    0  0.96695284239E-02 -0.41776941783E-01  0.29941698198E-01  0.52302763375E-01  0.51100000000E-03 0. -1.
         11    1    4    4    0    0 -0.51946748996E-02 -0.72783557154E-01  0.34250528254E-01  0.80608874487E-01  0.51100000000E-03 0.  1.
</event>
<event>
 8    1  0.1143506E+005  0.1043930E+01  0.7957747E-01            NaN
         13   -1    0    0    0    0  0.00000000000E+00  0.00000000000E+00  0.74505805969E-08  0.10566000000E+00  0.10566000000E+00 0. -1.
     999900   -1    0    0    0    0 -0.00000000000E+00 -0.00000000000E+00 -0.74505805969E-08  0.93827000000E+00  0.93827000000E+00 0. -1.
     999902    2    1    2    0    0 -0.10219093242E-03  0.21093091716E-01  0.10283690844E-01  0.10204633586E+01  0.10201935027E+01 0.  0.
     999903    2    3    3    0    0 -0.62972738231E-01  0.40800999992E-01  0.10758550378E+00  0.13265214547E+00  0.19790495529E-01 0.  0.
         14    1    1    2    0    0  0.10219093242E-03 -0.21093091716E-01 -0.10283690844E-01  0.23466641398E-01  0.00000000000E+00 0. -1.
     999901    1    3    3    0    0  0.62870547299E-01 -0.19707908276E-01 -0.97301812934E-01  0.88781121313E+00  0.88000000000E+00 0. -1.
        -11    1    4    4    0    0 -0.49706710731E-01  0.40249431302E-01  0.93543846226E-01  0.11332028106E+00  0.51100000000E-03 0.  1.
         11    1    4    4    0    0 -0.13266027500E-01  0.55156869001E-03  0.14041657553E-01  0.19331864408E-01  0.51100000000E-03 0. -1.
</event>
<event>
 8    1  0.1143506E+005  0.1043930E+01  0.7957747E-01            NaN
         13   -1    0    0    0    0  0.00000000000E+00  0.00000000000E+00  0.74505805969E-08  0.10566000000E+00  0.10566000000E+00 0.  1.
     999900   -1    0    0    0    0 -0.00000000000E+00 -0.00000000000E+00 -0.74505805969E-08  0.93827000000E+00  0.93827000000E+00 0.  1.
     999902    2    1    2    0    0 -0.19488657463E-01  0.13997507117E-02 -0.14239698997E-01  0.10197528186E+01  0.10194661716E+01 0.  0.
     999903    2    3    3    0    0 -0.15358351762E-01 -0.10520277795E+00  0.70768936446E-01  0.12924306200E+00  0.19799577061E-01 0.  0.
         14    1    1    2    0    0  0.19488657463E-01 -0.13997507117E-02  0.14239698997E-01  0.24177181376E-01  0.00000000000E+00 0.  1.
     999901    1    3    3    0    0 -0.41303057015E-02  0.10660252866E+00 -0.85008635443E-01  0.89050975662E+00  0.88000000000E+00 0.  1.
        -11    1    4    4    0    0 -0.80756100594E-02 -0.24360716931E-01  0.88527082975E-02  0.27153113494E-01  0.51100000000E-03 0.  1.
         11    1    4    4    0    0 -0.72827417025E-02 -0.80842061021E-01  0.61916228149E-01  0.10208994851E+00  0.51100000000E-03 0. -1.
</event>
<event>
 8    1  0.1143506E+005  0.1043930E+01  0.7957747E-01            NaN
         13   -1    0    0    0    0  0.00000000000E+00  0.00000000000E+00  0.74505805969E-08  0.10566000000E+00  0.10566000000E+00 0.  1.
     999900   -1    0    0    0    0 -0.00000000000E+00 -0.00000000000E+00 -0.74505805969E-08  0.93827000000E+00  0.93827000000E+00 0. -1.
     999902    2    1    2    0    0 -0.23265416393E-01 -0.63001451495E-02  0.48680546421E-03  0.10198217357E+01  0.10195367400E+01 0.  0.
     999903    2    3    3    0    0 -0.67604379179E-01 -0.97789462116E-01  0.54376040777E-01  0.13233072817E+00  0.20531361891E-01 0.  0.
         14    1    1    2    0    0  0.23265416393E-01  0.63001451495E-02 -0.48680546421E-03  0.24108264318E-01  0.00000000000E+00 0. -1.
     999901    1    3    3    0    0  0.44338962785E-01  0.91489316967E-01 -0.53889235313E-01  0.88749100752E+00  0.88000000000E+00 0. -1.
        -11    1    4    4    0    0 -0.33972455332E-01 -0.64866039950E-01  0.37981987532E-01  0.82490140974E-01  0.51100000000E-03 0. -1.
         11    1    4    4    0    0 -0.33631923846E-01 -0.32923422166E-01  0.16394053245E-01  0.49840587191E-01  0.51100000000E-03 0.  1.
</event>
<event>
 8    1  0.1143506E+005  0.1043930E+01  0.7957747E-01            NaN
         13   -1    0    0    0    0  0.00000000000E+00  0.00000000000E+00  0.74505805969E-08  0.10566000000E+00  0.10566000000E+00 0.  1.
     999900   -1    0    0    0    0 -0.00000000000E+00 -0.00000000000E+00 -0.74505805969E-08  0.93827000000E+00  0.93827000000E+00 0.  1.
     999902    2    1    2    0    0 -0.15413268443E-01 -0.14172526792E-01 -0.96636151638E-02  0.10208688895E+01  0.10206083846E+01 0.  0.
     999903    2    3    3    0    0 -0.26163931468E-01 -0.34653408417E-01 -0.12426044493E+00  0.13313724273E+00  0.19986425455E-01 0.  0.
         14    1    1    2    0    0  0.15413268443E-01  0.14172526792E-01  0.96636151638E-02  0.23061110507E-01  0.00000000000E+00 0. -1.
     999901    1    3    3    0    0  0.10750663024E-01  0.20480881626E-01  0.11459682977E+00  0.88773164676E+00  0.88000000000E+00 0. -1.
        -11    1    4    4    0    0 -0.29301678675E-01 -0.28950958549E-01 -0.10451938892E+00  0.11234460448E+00  0.51100000000E-03 0. -1.
         11    1    4    4    0    0  0.31377472078E-02 -0.57024498687E-02 -0.19741056013E-01  0.20792638253E-01  0.51100000000E-03 0.  1.
</event>
<event>
 8    1  0.1143506E+005  0.1043930E+01  0.7957747E-01            NaN
         13   -1    0    0    0    0  0.00000000000E+00  0.00000000000E+00  0.74505805969E-08  0.10566000000E+00  0.10566000000E+00 0. -1.
     999900   -1    0    0    0    0 -0.00000000000E+00 -0.00000000000E+00 -0.74505805969E-08  0.93827000000E+00  0.93827000000E+00 0.  1.
     999902    2    1    2    0    0  0.54362542894E-02 -0.17852632204E-01 -0.15151977269E-01  0.10198914528E+01  0.10196081226E+01 0.  0.
     999903    2    3    3    0    0 -0.79543443169E-01  0.39478834873E-01  0.89525591009E-01  0.12777832128E+00  0.20657448754E-01 0.  0.
         14    1    1    2    0    0 -0.54362542894E-02  0.17852632204E-01  0.15151977269E-01  0.24038547220E-01  0.00000000000E+00 0. -1.
     999901    1    3    3    0    0  0.84979697458E-01 -0.57331467077E-01 -0.10467756828E+00  0.89211313150E+00  0.88000000000E+00 0.  1.
        -11    1    4    4    0    0 -0.44460164153E-01  0.22915033579E-01  0.35821437394E-01  0.61524315993E-01  0.51100000000E-03 0. -1.
         11    1    4    4    0    0 -0.35083279016E-01  0.16563801294E-01  0.53704153615E-01  0.66254005285E-01  0.51100000000E-03 0.  1.
</event>
<event>
 8    1  0.1143506E+005  0.1043930E+01  0.7957747E-01            NaN
         13   -1    0    0    0    0  0.00000000000E+00  0.00000000000E+00  0.74505805969E-08  0.10566000000E+00  0.10566000000E+00 0.  1.
     999900   -1    0    0    0    0 -0.00000000000E+00 -0.00000000000E+00 -0.74505805969E-08  0.93827000000E+00  0.93827000000E+00 0. -1.
     999902    2    1    2    0    0 -0.22639497848E-01  0.53948285397E-02  0.16330562155E-02  0.10205993783E+01  0.10203326776E+01 0.  0.
     999903    2    3    3    0    0  0.59854024199E-02  0.12900509230E+00  0.13963661459E-01  0.13141383742E+00  0.19911653484E-01 0.  0.
         14    1    1    2    0    0  0.22639497848E-01 -0.53948285397E-02 -0.16330562155E-02  0.23330621732E-01  0.00000000000E+00 0. -1.
     999901    1    3    3    0    0 -0.28624900268E-01 -0.12361026376E+00 -0.12330605244E-01  0.88918554084E+00  0.88000000000E+00 0. -1.
        -11    1    4    4    0    0  0.21423004086E-02  0.11886713935E-01  0.71238004984E-02  0.14031859240E-01  0.51100000000E-03 0. -1.
         11    1    4    4    0    0  0.38431020113E-02  0.11711837836E+00  0.68398609611E-02  0.11738197818E+00  0.51100000000E-03 0.  1.
</event>
<event>
 8    1  0.1143506E+005  0.1043930E+01  0.7957747E-01            NaN
         13   -1    0    0    0    0  0.00000000000E+00  0.00000000000E+00  0.74505805969E-08  0.10566000000E+00  0.10566000000E+00 0. -1.
     999900   -1    0    0    0    0 -0.00000000000E+00 -0.00000000000E+00 -0.74505805969E-08  0.93827000000E+00  0.93827000000E+00 0. -1.
     999902    2    1    2    0    0  0.97489539342E-02 -0.13942671517E-01  0.15446634902E-01  0.10209509069E+01  0.10206922727E+01 0.  0.
     999903    2    3    3    0    0  0.80412624547E-01  0.10084634139E+00  0.79452847188E-02  0.13065537049E+00  0.19274945640E-01 0.  0.
         14    1    1    2    0    0 -0.97489539342E-02  0.13942671517E-01 -0.15446634902E-01  0.22979093142E-01  0.00000000000E+00 0.  1.
     999901    1    3    3    0    0 -0.70663670613E-01 -0.11478901291E+00  0.75013501834E-02  0.89029553637E+00  0.88000000000E+00 0.  1.
        -11    1    4    4    0    0  0.48744505855E-01  0.74989058570E-01  0.76526038701E-02  0.89767528780E-01  0.51100000000E-03 0.  1.
         11    1    4    4    0    0  0.31668118692E-01  0.25857282819E-01  0.29268084861E-03  0.40887841706E-01  0.51100000000E-03 0. -1.
</event>
<event>
 8    1  0.1143506E+005  0.1043930E+01  0.7957747E-01            NaN
         13   -1    0    0    0    0  0.00000000000E+00  0.00000000000E+00  0.74505805969E-08  0.10566000000E+00  0.10566000000E+00 0.  1.
     999900   -1    0    0    0    0 -0.00000000000E+00 -0.00000000000E+00 -0.74505805969E-08  0.93827000000E+00  0.93827000000E+00 0.  1.
     999902    2    1    2    0    0 -0.13307271256E-01  0.83234213521E-02 -0.21866838870E-01  0.10170130638E+01  0.10166568008E+01 0.  0.
     999903    2    3    3    0    0  0.86614354167E-01  0.17071313835E-01 -0.90236623940E-01  0.12868019582E+00  0.24949316482E-01 0.  0.
         14    1    1    2    0    0  0.13307271256E-01 -0.83234213521E-02  0.21866838870E-01  0.26916936183E-01  0.00000000000E+00 0.  1.
     999901    1    3    3    0    0 -0.99921625423E-01 -0.87478924830E-02  0.68369785070E-01  0.88833286800E+00  0.88000000000E+00 0.  1.
        -11    1    4    4    0    0  0.59416860791E-01  0.43233596791E-02 -0.46285034663E-01  0.75442828286E-01  0.51100000000E-03 0. -1.
         11    1    4    4    0    0  0.27197493376E-01  0.12747954156E-01 -0.43951589278E-01  0.53237367536E-01  0.51100000000E-03 0.  1.
</event>
<event>
 8    1  0.1143506E+005  0.1043930E+01  0.7957747E-01            NaN
         13   -1    0    0    0    0  0.00000000000E+00  0.00000000000E+00  0.74505805969E-08  0.10566000000E+00  0.10566000000E+00 0. -1.
     999900   -1    0    0    0    0 -0.00000000000E+00 -0.00000000000E+00 -0.74505805969E-08  0.93827000000E+00  0.93827000000E+00 0. -1.
     999902    2    1    2    0    0 -0.14724807593E-01  0.36854734085E-02 -0.17958235702E-01  0.10204161551E+01  0.10201451998E+01 0.  0.
     999903    2    3    3    0    0 -0.82150434323E-01  0.78075403102E-01  0.62269929776E-01  0.13108121520E+00  0.21454099705E-01 0.  0.
         14    1    1    2    0    0  0.14724807593E-01 -0.36854734085E-02  0.17958235702E-01  0.23513844910E-01  0.00000000000E+00 0. -1.
     999901    1    3    3    0    0  0.67425626730E-01 -0.74389929693E-01 -0.80228165478E-01  0.88933493989E+00  0.88000000000E+00 0. -1.
        -11    1    4    4    0    0 -0.64250919355E-01  0.70922380766E-01  0.47800274785E-01  0.10697332435E+00  0.51100000000E-03 0.  1.
         11    1    4    4    0    0 -0.17899514968E-01  0.71530223356E-02  0.14469654990E-01  0.24107890848E-01  0.51100000000E-03 0. -1.
</event>
<event>
 8    1  0.1143506E+005  0.1043930E+01  0.7957747E-01            NaN
         13   -1    0    0    0    0  0.00000000000E+00  0.00000000000E+00  0.74505805969E-08  0.10566000000E+00  0.10566000000E+00 0. -1.
     999900   -1    0    0    0    0 -0.00000000000E+00 -0.00000000000E+00 -0.74505805969E-08  0.93827000000E+00  0.93827000000E+00 0.  1.
     999902    2    1    2    0    0  0.18994094946E-01 -0.30411022050E-02  0.13466007302E-01  0.10204490013E+01  0.10201788113E+01 0.  0.
     999903    2    3    3    0    0 -0.46344886236E-01 -0.11996910720E+00 -0.38356738656E-02  0.13014529530E+00  0.19561450142E-01 0.  0.
         14    1    1    2    0    0 -0.18994094946E-01  0.30411022050E-02 -0.13466007302E-01  0.23480998660E-01  0.00000000000E+00 0.  1.
     999901    1    3    3    0    0  0.65338981182E-01  0.11692800500E+00  0.17301681168E-01  0.89030370604E+00  0.88000000000E+00 0. -1.
        -11    1    4    4    0    0 -0.27359314361E-01 -0.86547802861E-01  0.42229879994E-02  0.90868856111E-01  0.51100000000E-03 0.  1.
         11    1    4    4    0    0 -0.18985571876E-01 -0.33421304343E-01 -0.80586618650E-02  0.39276439190E-01  0.51100000000E-03 0. -1.
</event>
<event>
 8    1  0.1143506E+005  0.1043930E+01  0.7957747E-01            NaN
         13   -1    0    0    0    0  0.00000000000E+00  0.00000000000E+00  0.74505805969E-08  0.10566000000E+00  0.10566000000E+00 0. -1.
     999900   -1    0    0    0    0 -0.00000000000E+00 -0.00000000000E+00 -0.74505805969E-08  0.93827000000E+00  0.93827000000E+00 0. -1.
     999902    2    1    2    0    0 -0.16613928709E-02  0.53092629059E-02  0.17637499479E-01  0.10254359500E+01  0.10252691635E+01 0.  0.
     999903    2    3    3    0    0 -0.70982463105E-01 -0.10401702657E+00 -0.41222719231E-01  0.13402012461E+00  0.20100480924E-01 0.  0.
         14    1    1    2    0    0  0.16613928709E-02 -0.53092629059E-02 -0.17637499479E-01  0.18494050036E-01  0.00000000000E+00 0.  1.
     999901    1    3    3    0    0  0.69321070234E-01  0.10932628948E+00  0.58860218710E-01  0.89141582536E+00  0.88000000000E+00 0.  1.
        -11    1    4    4    0    0 -0.63918972917E-01 -0.91718482587E-01 -0.29523952056E-01  0.11562802434E+00  0.51100000000E-03 0.  1.
         11    1    4    4    0    0 -0.70634901880E-02 -0.12298543985E-01 -0.11698767175E-01  0.18392100266E-01  0.51100000000E-03 0. -1.
</event>
<event>
 8    1  0.1143506E+005  0.1043930E+01  0.7957747E-01            NaN
         13   -1    0    0    0    0  0.00000000000E+00  0.00000000000E+00  0.74505805969E-08  0.10566000000E+00  0.10566000000E+00 0. -1.
     999900   -1    0    0    0    0 -0.00000000000E+00 -0.00000000000E+00 -0.74505805969E-08  0.93827000000E+00  0.93827000000E+00 0. -1.
     999902    2    1    2    0    0  0.74272484253E-03 -0.63204864722E-02 -0.20418844323E-01  0.10225424010E+01  0.10223187039E+01 0.  0.
     999903    2    3    3    0    0  0.11081910804E+00  0.68253146753E-01 -0.14607307592E-01  0.13253576566E+00  0.20322130694E-01 0.  0.
         14    1    1    2    0    0 -0.74272484253E-03  0.63204864722E-02  0.20418844323E-01  0.21387599045E-01  0.00000000000E+00 0. -1.
     999901    1    3    3    0    0 -0.11007638320E+00 -0.74573633225E-01 -0.58115367310E-02  0.89000663529E+00  0.88000000000E+00 0.  1.
        -11    1    4    4    0    0  0.62853833243E-01  0.40511297347E-01  0.16157457792E-02  0.74797334989E-01  0.51100000000E-03 0. -1.
         11    1    4    4    0    0  0.47965274795E-01  0.27741849406E-01 -0.16223053371E-01  0.57738430671E-01  0.51100000000E-03 0.  1.
</event>
<event>
 8    1  0.1143506E+005  0.1043930E+01  0.7957747E-01            NaN
         13   -1    0    0    0    0  0.00000000000E+00  0.00000000000E+00  0.74505805969E-08  0.10566000000E+00  0.10566000000E+00 0.  1.
     999900   -1    0    0    0    0 -0.00000000000E+00 -0.00000000000E+00 -0.74505805969E-08  0.93827000000E+00  0.93827000000E+00 0.  1.
     999902    2    1    2    0    0  0.20703274557E-01  0.77205017508E-02  0.41713155873E-02  0.10214437465E+01  0.10211962082E+01 0.  0.
     999903    2    3    3    0    0  0.84474021875E-02 -0.12888680968E+00 -0.65527777839E-02  0.13075481640E+00  0.19253955525E-01 0.  0.
         14    1    1    2    0    0 -0.20703274557E-01 -0.77205017508E-02 -0.41713155873E-02  0.22486253543E-01  0.00000000000E+00 0. -1.
     999901    1    3    3    0    0  0.12255872369E-01  0.13660731143E+00  0.10724093371E-01  0.89068893005E+00  0.88000000000E+00 0.  1.
        -11    1    4    4    0    0  0.13026383357E-01 -0.11587664355E+00 -0.79737230878E-02  0.11687995793E+00  0.51100000000E-03 0.  1.
         11    1    4    4    0    0 -0.45789811694E-02 -0.13010166125E-01  0.14209453039E-02  0.13874858475E-01  0.51100000000E-03 0. -1.
</event>
<event>
 8    1  0.1143506E+005  0.1043930E+01  0.7957747E-01            NaN
         13   -1    0    0    0    0  0.00000000000E+00  0.00000000000E+00  0.74505805969E-08  0.10566000000E+00  0.10566000000E+00 0. -1.
     999900   -1    0    0    0    0 -0.00000000000E+00 -0.00000000000E+00 -0.74505805969E-08  0.93827000000E+00  0.93827000000E+00 0. -1.
     999902    2    1    2    0    0  0.65402621727E-02  0.23616868165E-01 -0.41479079878E-02  0.10190756919E+01  0.10187725601E+01 0.  0.
     999903    2    3    3    0    0  0.11006910152E+00  0.10903542462E-01  0.64914227537E-01  0.13022844528E+00  0.22616292290E-01 0.  0.
         14    1    1    2    0    0 -0.65402621727E-02 -0.23616868165E-01  0.41479079878E-02  0.24854308115E-01  0.00000000000E+00 0.  1.
     999901    1    3    3    0    0 -0.10352883935E+00  0.12713325703E-01 -0.69062135525E-01  0.88884724660E+00  0.88000000000E+00 0. -1.
        -11    1    4    4    0    0  0.57321391197E-01 -0.20723942396E-02  0.23807043007E-01  0.62105338936E-01  0.51100000000E-03 0. -1.
         11    1    4    4    0    0  0.52747710323E-01  0.12975936701E-01  0.41107184530E-01  0.68123106348E-01  0.51100000000E-03 0.  1.
</event>
<event>
 8    1  0.1143506E+005  0.1043930E+01  0.7957747E-01            NaN
         13   -1    0    0    0    0  0.00000000000E+00  0.00000000000E+00  0.74505805969E-08  0.10566000000E+00  0.10566000000E+00 0. -1.
     999900   -1    0    0    0    0 -0.00000000000E+00 -0.00000000000E+00 -0.74505805969E-08  0.93827000000E+00  0.93827000000E+00 0. -1.
     999902    2    1    2    0    0 -0.13940350149E-01 -0.18689084269E-01 -0.45723629525E-03  0.10206099593E+01  0.10203435033E+01 0.  0.
     999903    2    3    3    0    0 -0.11244363660E+00  0.50243418130E-01  0.41366505138E-01  0.13145091128E+00  0.20004545816E-01 0.  0.
         14    1    1    2    0    0  0.13940350149E-01  0.18689084269E-01  0.45723629525E-03  0.23320040697E-01  0.00000000000E+00 0.  1.
     999901    1    3    3    0    0  0.98503286447E-01 -0.68932502399E-01 -0.41823741433E-01  0.88915904802E+00  0.88000000000E+00 0. -1.
        -11    1    4    4    0    0 -0.60274994327E-01  0.20268703439E-01  0.12904906032E-01  0.64889852834E-01  0.51100000000E-03 0.  1.
         11    1    4    4    0    0 -0.52168642270E-01  0.29974714691E-01  0.28461599106E-01  0.66561058448E-01  0.51100000000E-03 0. -1.
</event>
<event>
 8    1  0.1143506E+005  0.1043930E+01  0.7957747E-01            NaN
         13   -1    0    0    0    0  0.00000000000E+00  0.00000000000E+00  0.74505805969E-08  0.10566000000E+00  0.10566000000E+00 0. -1.
     999900   -1    0    0    0    0 -0.00000000000E+00 -0.00000000000E+00 -0.74505805969E-08  0.93827000000E+00  0.93827000000E+00 0. -1.
     999902    2    1    2    0    0  0.16426996096E-01  0.63246321783E-02  0.16814054132E-01  0.10195874531E+01  0.10192968238E+01 0.  0.
     999903    2    3    3    0    0  0.11510545540E+00  0.25294844070E-01  0.59203905956E-01  0.13285513340E+00  0.16009028446E-01 0.  0.
         14    1    1    2    0    0 -0.16426996096E-01 -0.63246321783E-02 -0.16814054132E-01  0.24342546894E-01  0.00000000000E+00 0.  1.
     999901    1    3    3    0    0 -0.98678459303E-01 -0.18970211892E-01 -0.42389851824E-01  0.88673231970E+00  0.88000000000E+00 0. -1.
        -11    1    4    4    0    0  0.22227980912E-01  0.74639975322E-02  0.18594777843E-01  0.29930273614E-01  0.51100000000E-03 0. -1.
         11    1    4    4    0    0  0.92877474487E-01  0.17830846538E-01  0.40609128113E-01  0.10292485979E+00  0.51100000000E-03 0.  1.
</event>
<event>
 8    1  0.1143506E+005  0.1043930E+01  0.7957747E-01            NaN
         13   -1    0    0    0    0  0.00000000000E+00  0.00000000000E+00  0.74505805969E-08  0.10566000000E+00  0.10566000000E+00 0.  1.
     999900   -1    0    0    0    0 -0.00000000000E+00 -0.00000000000E+00 -0.74505805969E-08  0.93827000000E+00  0.93827000000E+00 0.  1.
     999902    2    1    2    0    0 -0.19411662315E-01  0.27463722102E-02  0.12652803994E-01  0.10205965767E+01  0.10203298112E+01 0.  0.
     999903    2    3    3    0    0  0.74043141600E-01  0.10374077887E+00 -0.11135608742E-01  0.12958616198E+00  0.20592124136E-01 0.  0.
         14    1    1    2    0    0  0.19411662315E-01 -0.27463722102E-02 -0.12652803994E-01  0.23333423304E-01  0.00000000000E+00 0. -1.
     999901    1    3    3    0    0 -0.93454803915E-01 -0.10099440666E+00  0.23788412736E-01  0.89101041472E+00  0.88000000000E+00 0.  1.
        -11    1    4    4    0    0  0.49341178187E-01  0.54639427688E-01 -0.63671477166E-03  0.73625304412E-01  0.51100000000E-03 0. -1.
         11    1    4    4    0    0  0.24701963412E-01  0.49101351181E-01 -0.10498893970E-01  0.55960857569E-01  0.51100000000E-03 0.  1.
</event>
<event>
 8    1  0.1143506E+005  0.1043930E+01  0.7957747E-01            NaN
         13   -1    0    0    0    0  0.00000000000E+00  0.00000000000E+00  0.74505805969E-08  0.10566000000E+00  0.10566000000E+00 0. -1.
     999900   -1    0    0    0    0 -0.00000000000E+00 -0.00000000000E+00 -0.74505805969E-08  0.93827000000E+00  0.93827000000E+00 0. -1.
     999902    2    1    2    0    0 -0.97628551613E-02 -0.22578241030E-01 -0.52914323641E-03  0.10193257260E+01  0.10190287362E+01 0.  0.
     999903    2    3    3    0    0 -0.19053807374E-01  0.10466904640E+00 -0.67530696738E-01  0.12760413144E+00  0.20093842529E-01 0.  0.
         14    1    1    2    0    0  0.97628551613E-02  0.22578241030E-01  0.52914323641E-03  0.24604274049E-01  0.00000000000E+00 0.  1.
     999901    1    3    3    0    0  0.92909522126E-02 -0.12724728743E+00  0.67001553501E-01  0.89172159451E+00  0.88000000000E+00 0.  1.
        -11    1    4    4    0    0 -0.73669337627E-02  0.43703261449E-01 -0.16678634642E-01  0.47356992608E-01  0.51100000000E-03 0.  1.
         11    1    4    4    0    0 -0.11686873611E-01  0.60965784953E-01 -0.50852062096E-01  0.80247138828E-01  0.51100000000E-03 0. -1.
</event>
<event>
 8    1  0.1143506E+005  0.1043930E+01  0.7957747E-01            NaN
         13   -1    0    0    0    0  0.00000000000E+00  0.00000000000E+00  0.74505805969E-08  0.10566000000E+00  0.10566000000E+00 0. -1.
     999900   -1    0    0    0    0 -0.00000000000E+00 -0.00000000000E+00 -0.74505805969E-08  0.93827000000E+00  0.93827000000E+00 0.  1.
     999902    2    1    2    0    0 -0.12418275770E-01  0.22448917720E-01 -0.75413266162E-02  0.10171897852E+01  0.10168382467E+01 0.  0.
     999903    2    3    3    0    0 -0.30431857690E-01 -0.91834102803E-01 -0.79887230906E-01  0.12667362714E+00  0.17453874962E-01 0.  0.
         14    1    1    2    0    0  0.12418275770E-01 -0.22448917720E-01  0.75413266162E-02  0.26740214790E-01  0.00000000000E+00 0.  1.
     999901    1    3    3    0    0  0.18013581920E-01  0.11428302052E+00  0.72345904290E-01  0.89051615807E+00  0.88000000000E+00 0. -1.
        -11    1    4    4    0    0 -0.22498077652E-02 -0.13552940550E-01 -0.19537743153E-01  0.23889921746E-01  0.51100000000E-03 0. -1.
         11    1    4    4    0    0 -0.28182049925E-01 -0.78281162253E-01 -0.60349487753E-01  0.10278370540E+00  0.51100000000E-03 0.  1.
</event>
<event>
 8    1  0.1143506E+005  0.1043930E+01  0.7957747E-01            NaN
         13   -1    0    0    0    0  0.00000000000E+00  0.00000000000E+00  0.74505805969E-08  0.10566000000E+00  0.10566000000E+00 0.  1.
     999900   -1    0    0    0    0 -0.00000000000E+00 -0.00000000000E+00 -0.74505805969E-08  0.93827000000E+00  0.93827000000E+00 0.  1.
     999902    2    1    2    0    0 -0.88059107463E-02 -0.43390648921E-02 -0.23465438277E-01  0.10184938379E+01  0.10181761633E+01 0.  0.
     999903    2    3    3    0    0  0.13368107412E-01 -0.24642797939E-01  0.12138224022E+00  0.12614593568E+00  0.19828642478E-01 0.  0.
         14    1    1    2    0    0  0.88059107463E-02  0.43390648921E-02  0.23465438277E-01  0.25436162087E-01  0.00000000000E+00 0.  1.
     999901    1    3    3    0    0 -0.22174018159E-01  0.20303733046E-01 -0.14484767849E+00  0.89234790223E+00  0.88000000000E+00 0.  1.
        -11    1    4    4    0    0 -0.29646383125E-02 -0.14283664257E-01  0.61827446606E-01  0.63527210073E-01  0.51100000000E-03 0.  1.
         11    1    4    4    0    0  0.16332745725E-01 -0.10359133682E-01  0.59554793610E-01  0.62618725606E-01  0.51100000000E-03 0. -1.
</event>
<event>
 8    1  0.1143506E+005  0.1043930E+01  0.7957747E-01            NaN
         13   -1    0    0    0    0  0.00000000000E+00  0.00000000000E+00  0.74505805969E-08  0.10566000000E+00  0.10566000000E+00 0.  1.
     999900   -1    0    0    0    0 -0.00000000000E+00 -0.00000000000E+00 -0.74505805969E-08  0.93827000000E+00  0.93827000000E+00 0. -1.
     999902    2    1    2    0    0  0.18411490936E-01  0.10115479953E-01 -0.16838803290E-01  0.10170069387E+01  0.10166505113E+01 0.  0.
     999903    2    3    3    0    0  0.37509399233E-01 -0.11151204044E+00 -0.45927869228E-01  0.12796016965E+00  0.20555915188E-01 0.  0.
         14    1    1    2    0    0 -0.18411490936E-01 -0.10115479953E-01  0.16838803290E-01  0.26923061293E-01  0.00000000000E+00 0.  1.
     999901    1    3    3    0    0 -0.19097908297E-01  0.12162752040E+00  0.29089065938E-01  0.88904676906E+00  0.88000000000E+00 0. -1.
        -11    1    4    4    0    0  0.15197583380E-01 -0.63036390359E-01 -0.16058215821E-01  0.66803296823E-01  0.51100000000E-03 0. -1.
         11    1    4    4    0    0  0.22311815853E-01 -0.48475650085E-01 -0.29869653407E-01  0.61156872823E-01  0.51100000000E-03 0.  1.
</event>
<event>
 8    1  0.1143506E+005  0.1043930E+01  0.7957747E-01            NaN
         13   -1    0    0    0    0  0.00000000000E+00  0.00000000000E+00  0.74505805969E-08  0.10566000000E+00  0.10566000000E+00 0. -1.
     999900   -1    0    0    0    0 -0.00000000000E+00 -0.00000000000E+00 -0.74505805969E-08  0.93827000000E+00  0.93827000000E+00 0.  1.
     999902    2    1    2    0    0 -0.16047737513E-01  0.14628583816E-01 -0.10617568816E-01  0.10197585683E+01  0.10194720592E+01 0.  0.
     999903    2    3    3    0    0  0.65359934897E-01  0.93196420690E-01  0.59348890287E-01  0.12976114159E+00  0.18925357841E-01 0.  0.
         14    1    1    2    0    0  0.16047737513E-01 -0.14628583816E-01  0.10617568816E-01  0.24171431718E-01  0.00000000000E+00 0. -1.
     999901    1    3    3    0    0 -0.81407672410E-01 -0.78567836874E-01 -0.69966459103E-01  0.88999742669E+00  0.88000000000E+00 0. -1.
        -11    1    4    4    0    0  0.10462810150E-01  0.19475646153E-01  0.40199747082E-02  0.22476487870E-01  0.51100000000E-03 0.  1.
         11    1    4    4    0    0  0.54897124746E-01  0.73720774537E-01  0.55328915579E-01  0.10728465372E+00  0.51100000000E-03 0. -1.
</event>
<event>
 8    1  0.1143506E+005  0.1043930E+01  0.7957747E-01            NaN
         13   -1    0    0    0    0  0.00000000000E+00  0.00000000000E+00  0.74505805969E-08  0.10566000000E+00  0.10566000000E+00 0. -1.
     999900   -1    0    0    0    0 -0.00000000000E+00 -0.00000000000E+00 -0.74505805969E-08  0.93827000000E+00  0.93827000000E+00 0. -1.
     999902    2    1    2    0    0  0.58503672848E-02 -0.20954234027E-01 -0.11137356501E-01  0.10194893079E+01  0.10191963017E+01 0.  0.
     999903    2    3    3    0    0  0.46906784772E-01  0.44226983158E-01  0.10879665103E+00  0.12801951779E+00  0.19900079511E-01 0.  0.
         14    1    1    2    0    0 -0.58503672848E-02  0.20954234027E-01  0.11137356501E-01  0.24440692111E-01  0.00000000000E+00 0.  1.
     999901    1    3    3    0    0 -0.41056417487E-01 -0.65181217185E-01 -0.11993400753E+00  0.89146979010E+00  0.88000000000E+00 0.  1.
        -11    1    4    4    0    0  0.32194074273E-01  0.33562373953E-01  0.59787595630E-01  0.75747667132E-01  0.51100000000E-03 0.  1.
         11    1    4    4    0    0  0.14712710499E-01  0.10664609205E-01  0.49009055397E-01  0.52271850662E-01  0.51100000000E-03 0. -1.
</event>
<event>
 8    1  0.1143506E+005  0.1043930E+01  0.7957747E-01            NaN
         13   -1    0    0    0    0  0.00000000000E+00  0.00000000000E+00  0.74505805969E-08  0.10566000000E+00  0.10566000000E+00 0. -1.
     999900   -1    0    0    0    0 -0.00000000000E+00 -0.00000000000E+00 -0.74505805969E-08  0.93827000000E+00  0.93827000000E+00 0. -1.
     999902    2    1    2    0    0  0.64163730991E-02 -0.12966466821E-01  0.16005938796E-01  0.10223548017E+01  0.10221271209E+01 0.  0.
     999903    2    3    3    0    0  0.74653684722E-01  0.99826655508E-01  0.39273704454E-01  0.13223121023E+00  0.20103116810E-01 0.  0.
         14    1    1    2    0    0 -0.64163730991E-02  0.12966466821E-01 -0.16005938796E-01  0.21575198315E-01  0.00000000000E+00 0.  1.
     999901    1    3    3    0    0 -0.68237311623E-01 -0.11279312233E+00 -0.23267765658E-01  0.89012359145E+00  0.88000000000E+00 0. -1.
        -11    1    4    4    0    0  0.57667917624E-01  0.70861415844E-01  0.37004595006E-01  0.98572461423E-01  0.51100000000E-03 0.  1.
         11    1    4    4    0    0  0.16985767098E-01  0.28965239664E-01  0.22691094484E-02  0.33658748809E-01  0.51100000000E-03 0. -1.
</event>
<event>
 8    1  0.1143506E+005  0.1043930E+01  0.7957747E-01            NaN
         13   -1    0    0    0    0  0.00000000000E+00  0.00000000000E+00  0.74505805969E-08  0.10566000000E+00  0.10566000000E+00 0.  1.
     999900   -1    0    0    0    0 -0.00000000000E+00 -0.00000000000E+00 -0.74505805969E-08  0.93827000000E+00  0.93827000000E+00 0. -1.
     999902    2    1    2    0    0 -0.53720053022E-02 -0.77301598402E-02 -0.21963897686E-01  0.10200338368E+01  0.10197538927E+01 0.  0.
     999903    2    3    3    0    0  0.39944280339E-01  0.53229841884E-01  0.10682869202E+00  0.12742125643E+00  0.19870720974E-01 0.  0.
         14    1    1    2    0    0  0.53720053022E-02  0.77301598402E-02  0.21963897686E-01  0.23896163158E-01  0.00000000000E+00 0.  1.
     999901    1    3    3    0    0 -0.45316285641E-01 -0.60960001724E-01 -0.12879258970E+00  0.89261258042E+00  0.88000000000E+00 0. -1.
        -11    1    4    4    0    0  0.19537512640E-01  0.11276921385E-01  0.39847845833E-01  0.45792961190E-01  0.51100000000E-03 0. -1.
         11    1    4    4    0    0  0.20406767699E-01  0.41952920499E-01  0.66980846186E-01  0.81628295236E-01  0.51100000000E-03 0.  1.
</event>
<event>
 8    1  0.1143506E+005  0.1043930E+01  0.7957747E-01            NaN
         13   -1    0    0    0    0  0.00000000000E+00  0.00000000000E+00  0.74505805969E-08  0.10566000000E+00  0.10566000000E+00 0.  1.
     999900   -1    0    0    0    0 -0.00000000000E+00 -0.00000000000E+00 -0.74505805969E-08  0.93827000000E+00  0.93827000000E+00 0.  1.
     999902    2    1    2    0    0  0.19401637840E-01  0.34469782788E-02  0.13436325876E-01  0.10200796318E+01  0.10198007723E+01 0.  0.
     999903    2    3    3    0    0  0.92069902562E-01  0.14330309455E-01  0.93384109496E-01  0.13340563777E+00  0.19855668069E-01 0.  0.
         14    1    1    2    0    0 -0.19401637840E-01 -0.34469782788E-02 -0.13436325876E-01  0.23850368198E-01  0.00000000000E+00 0. -1.
     999901    1    3    3    0    0 -0.72668264723E-01 -0.10883331176E-01 -0.79947783620E-01  0.88667399404E+00  0.88000000000E+00 0.  1.
        -11    1    4    4    0    0  0.29222042386E-01  0.59797010378E-02  0.17753459404E-01  0.34714997156E-01  0.51100000000E-03 0. -1.
         11    1    4    4    0    0  0.62847860176E-01  0.83506084174E-02  0.75630650092E-01  0.98690640610E-01  0.51100000000E-03 0.  1.
</event>
<event>
 8    1  0.1143506E+005  0.1043930E+01  0.7957747E-01            NaN
         13   -1    0    0    0    0  0.00000000000E+00  0.00000000000E+00  0.74505805969E-08  0.10566000000E+00  0.10566000000E+00 0. -1.
     999900   -1    0    0    0    0 -0.00000000000E+00 -0.00000000000E+00 -0.74505805969E-08  0.93827000000E+00  0.93827000000E+00 0.  1.
     999902    2    1    2    0    0 -0.27749829711E-02  0.83250472345E-02  0.22107157333E-01  0.10201448503E+01  0.10198675317E+01 0.  0.
     999903    2    3    3    0    0  0.13788925035E-01 -0.12516768630E+00  0.21535078393E-01  0.12992296770E+00  0.23646009960E-01 0.  0.
         14    1    1    2    0    0  0.27749829711E-02 -0.83250472345E-02 -0.22107157333E-01  0.23785149722E-01  0.00000000000E+00 0.  1.
     999901    1    3    3    0    0 -0.16563908006E-01  0.13349273353E+00  0.57207894056E-03  0.89022188258E+00  0.88000000000E+00 0.  1.
        -11    1    4    4    0    0  0.19885808544E-01 -0.76983149880E-01  0.11740216887E-01  0.80373780305E-01  0.51100000000E-03 0. -1.
         11    1    4    4    0    0 -0.60968835092E-02 -0.48184536416E-01  0.97948615062E-02  0.49549187390E-01  0.51100000000E-03 0.  1.
</event>
<event>
 8    1  0.1143506E+005  0.1043930E+01  0.7957747E-01            NaN
         13   -1    0    0    0    0  0.00000000000E+00  0.00000000000E+00  0.74505805969E-08  0.10566000000E+00  0.10566000000E+00 0. -1.
     999900   -1    0    0    0    0 -0.00000000000E+00 -0.00000000000E+00 -0.74505805969E-08  0.93827000000E+00  0.93827000000E+00 0. -1.
     999902    2    1    2    0    0  0.50602766513E-02 -0.11048639674E-01 -0.19163807479E-01  0.10212379231E+01  0.10209857811E+01 0.  0.
     999903    2    3    3    0    0 -0.38115630938E-01 -0.11417313535E+00 -0.54003721255E-01  0.13348083906E+00  0.20308282343E-01 0.  0.
         14    1    1    2    0    0 -0.50602766513E-02  0.11048639674E-01  0.19163807479E-01  0.22692076933E-01  0.00000000000E+00 0. -1.
     999901    1    3    3    0    0  0.43175907589E-01  0.10312449567E+00  0.34839913776E-01  0.88775708400E+00  0.88000000000E+00 0.  1.
        -11    1    4    4    0    0 -0.93385595325E-03 -0.29870117210E-01 -0.14699784334E-01  0.33308268787E-01  0.51100000000E-03 0. -1.
         11    1    4    4    0    0 -0.37181774984E-01 -0.84303018135E-01 -0.39303936922E-01  0.10017257028E+00  0.51100000000E-03 0.  1.
</event>
<event>
 8    1  0.1143506E+005  0.1043930E+01  0.7957747E-01            NaN
         13   -1    0    0    0    0  0.00000000000E+00  0.00000000000E+00  0.74505805969E-08  0.10566000000E+00  0.10566000000E+00 0.  1.
     999900   -1    0    0    0    0 -0.00000000000E+00 -0.00000000000E+00 -0.74505805969E-08  0.93827000000E+00  0.93827000000E+00 0.  1.
     999902    2    1    2    0    0  0.10735920440E-02 -0.23538189335E-01 -0.80741265540E-02  0.10190223611E+01  0.10187179109E+01 0.  0.
     999903    2    3    3    0    0 -0.13754992045E-01  0.11295399224E+00  0.51540700444E-01  0.12638361548E+00  0.19198184567E-01 0.  0.
         14    1    1    2    0    0 -0.10735920440E-02  0.23538189335E-01  0.80741265540E-02  0.24907638922E-01  0.00000000000E+00 0.  1.
     999901    1    3    3    0    0  0.14828584089E-01 -0.13649218158E+00 -0.59614826998E-01  0.89263874559E+00  0.88000000000E+00 0.  1.
        -11    1    4    4    0    0 -0.24645681631E-02  0.37552124897E-01  0.26882809807E-01  0.46251300140E-01  0.51100000000E-03 0.  1.
         11    1    4    4    0    0 -0.11290423882E-01  0.75401867346E-01  0.24657890637E-01  0.80132315344E-01  0.51100000000E-03 0. -1.
</event>
<event>
 8    1  0.1143506E+005  0.1043930E+01  0.7957747E-01            NaN
         13   -1    0    0    0    0  0.00000000000E+00  0.00000000000E+00  0.74505805969E-08  0.10566000000E+00  0.10566000000E+00 0. -1.
     999900   -1    0    0    0    0 -0.00000000000E+00 -0.00000000000E+00 -0.74505805969E-08  0.93827000000E+00  0.93827000000E+00 0. -1.
     999902    2    1    2    0    0 -0.96965110114E-02 -0.14545139796E-01 -0.16138470565E-01  0.10201385383E+01  0.10198610708E+01 0.  0.
     999903    2    3    3    0    0 -0.10548200861E+00  0.12182232884E-01  0.72738206359E-01  0.13008894547E+00  0.18905716893E-01 0.  0.
         14    1    1    2    0    0  0.96965110114E-02  0.14545139796E-01  0.16138470565E-01  0.23791461697E-01  0.00000000000E+00 0. -1.
     999901    1    3    3    0    0  0.95785497597E-01 -0.26727372680E-01 -0.88876676924E-01  0.89004959283E+00  0.88000000000E+00 0. -1.
        -11    1    4    4    0    0 -0.37891983811E-01  0.24972145003E-02  0.15611188970E-01  0.41061038217E-01  0.51100000000E-03 0. -1.
         11    1    4    4    0    0 -0.67590024798E-01  0.96850183833E-02  0.57127017389E-01  0.89027907254E-01  0.51100000000E-03 0.  1.
</event>
<event>
 8    1  0.1143506E+005  0.1043930E+01  0.7957747E-01            NaN
         13   -1    0    0    0    0  0.00000000000E+00  0.00000000000E+00  0.74505805969E-08  0.10566000000E+00  0.10566000000E+00 0. -1.
     999900   -1    0    0    0    0 -0.00000000000E+00 -0.00000000000E+00 -0.74505805969E-08  0.93827000000E+00  0.93827000000E+00 0. -1.
     999902    2    1    2    0    0  0.18161759579E-01  0.13368843797E-01 -0.80309894998E-02  0.10199910717E+01  0.10197101128E+01 0.  0.
     999903    2    3    3    0    0  0.76388583197E-01  0.25472639290E-01  0.10161165413E+00  0.13119504665E+00  0.20078371833E-01 0.  0.
         14    1    1    2    0    0 -0.18161759579E-01 -0.13368843797E-01  0.80309894998E-02  0.23938928293E-01  0.00000000000E+00 0. -1.
     999901    1    3    3    0    0 -0.58226823618E-01 -0.12103795493E-01 -0.10964264363E+00  0.88879602506E+00  0.88000000000E+00 0. -1.
        -11    1    4    4    0    0  0.75274886345E-01  0.27611398219E-01  0.10027791551E+00  0.12839244248E+00  0.51100000000E-03 0. -1.
         11    1    4    4    0    0  0.11136968516E-02 -0.21387589287E-02  0.13337386198E-02  0.28026041708E-02  0.51100000000E-03 0.  1.
</event>
<event>
 8    1  0.1143506E+005  0.1043930E+01  0.7957747E-01            NaN
         13   -1    0    0    0    0  0.00000000000E+00  0.00000000000E+00  0.74505805969E-08  0.10566000000E+00  0.10566000000E+00 0. -1.
     999900   -1    0    0    0    0 -0.00000000000E+00 -0.00000000000E+00 -0.74505805969E-08  0.93827000000E+00  0.93827000000E+00 0. -1.
     999902    2    1    2    0    0  0.11045436834E-01 -0.85542538309E-02  0.22185013220E-01  0.10177126061E+01  0.10173748556E+01 0.  0.
     999903    2    3    3    0    0 -0.44410096878E-01  0.58585935466E-01  0.10473417882E+00  0.12956988894E+00  0.20360239821E-01 0.  0.
         14    1    1    2    0    0 -0.11045436834E-01  0.85542538309E-02 -0.22185013220E-01  0.26217393941E-01  0.00000000000E+00 0.  1.
     999901    1    3    3    0    0  0.55455533712E-01 -0.67140189297E-01 -0.82549165604E-01  0.88814271712E+00  0.88000000000E+00 0. -1.
        -11    1    4    4    0    0 -0.80575139457E-03  0.13051133716E-01  0.15074170357E-01  0.19961789988E-01  0.51100000000E-03 0. -1.
         11    1    4    4    0    0 -0.43604345484E-01  0.45534801750E-01  0.89660008467E-01  0.10960809895E+00  0.51100000000E-03 0.  1.
</event>
<event>
 8    1  0.1143506E+005  0.1043930E+01  0.7957747E-01            NaN
         13   -1    0    0    0    0  0.00000000000E+00  0.00000000000E+00  0.74505805969E-08  0.10566000000E+00  0.10566000000E+00 0.  1.
     999900   -1    0    0    0    0 -0.00000000000E+00 -0.00000000000E+00 -0.74505805969E-08  0.93827000000E+00  0.93827000000E+00 0.  1.
     999902    2    1    2    0    0 -0.19172330459E-01  0.35825674210E-03 -0.71509939073E-02  0.10234643381E+01  0.10232596973E+01 0.  0.
     999903    2    3    3    0    0 -0.13319608386E+00  0.17364377183E-01 -0.27275240332E-02  0.13593394901E+00  0.20685278755E-01 0.  0.
         14    1    1    2    0    0  0.19172330459E-01 -0.35825674210E-03  0.71509939073E-02  0.20465661900E-01  0.00000000000E+00 0.  1.
     999901    1    3    3    0    0  0.11402375340E+00 -0.17006120441E-01 -0.44234698741E-02  0.88753038909E+00  0.88000000000E+00 0.  1.
        -11    1    4    4    0    0 -0.32131401846E-01  0.87333217868E-02 -0.83916223633E-02  0.34342078285E-01  0.51100000000E-03 0.  1.
         11    1    4    4    0    0 -0.10106468201E+00  0.86310553961E-02  0.56640983301E-02  0.10159187073E+00  0.51100000000E-03 0. -1.
</event>
<event>
 8    1  0.1143506E+005  0.1043930E+01  0.7957747E-01            NaN
         13   -1    0    0    0    0  0.00000000000E+00  0.00000000000E+00  0.74505805969E-08  0.10566000000E+00  0.10566000000E+00 0. -1.
     999900   -1    0    0    0    0 -0.00000000000E+00 -0.00000000000E+00 -0.74505805969E-08  0.93827000000E+00  0.93827000000E+00 0. -1.
     999902    2    1    2    0    0 -0.36068724850E-02 -0.45627727993E-02 -0.23609276828E-01  0.10196148529E+01  0.10193248854E+01 0.  0.
     999903    2    3    3    0    0 -0.41658472705E-01 -0.97646607788E-01 -0.77223692494E-01  0.13226653903E+00  0.16144667960E-01 0.  0.
         14    1    1    2    0    0  0.36068724850E-02  0.45627727993E-02  0.23609276828E-01  0.24315147071E-01  0.00000000000E+00 0. -1.
     999901    1    3    3    0    0  0.38051600220E-01  0.93083834988E-01  0.53614415666E-01  0.88734831390E+00  0.88000000000E+00 0.  1.
        -11    1    4    4    0    0 -0.73525721301E-02 -0.14703066011E-01 -0.19670011438E-01  0.25640026093E-01  0.51100000000E-03 0.  1.
         11    1    4    4    0    0 -0.34305900575E-01 -0.82943541777E-01 -0.57553681056E-01  0.10662651294E+00  0.51100000000E-03 0. -1.
</event>
<event>
 8    1  0.1143506E+005  0.1043930E+01  0.7957747E-01            NaN
         13   -1    0    0    0    0  0.00000000000E+00  0.00000000000E+00  0.74505805969E-08  0.10566000000E+00  0.10566000000E+00 0. -1.
     999900   -1    0    0    0    0 -0.00000000000E+00 -0.00000000000E+00 -0.74505805969E-08  0.93827000000E+00  0.93827000000E+00 0. -1.
     999902    2    1    2    0    0 -0.17619138919E-01  0.54616507617E-02 -0.14861520402E-01  0.10202418495E+01  0.10199668147E+01 0.  0.
     999903    2    3    3    0    0 -0.13010481675E+00 -0.16808932212E-01  0.15729332020E-02  0.13265010898E+00  0.19590144192E-01 0.  0.
         14    1    1    2    0    0  0.17619138919E-01 -0.54616507617E-02  0.14861520402E-01  0.23688150497E-01  0.00000000000E+00 0. -1.
     999901    1    3    3    0    0  0.11248567783E+00  0.22270582974E-01 -0.16434453604E-01  0.88759174053E+00  0.88000000000E+00 0. -1.
        -11    1    4    4    0    0 -0.64333033059E-01  0.15255566262E-02  0.11754352888E-03  0.64353254798E-01  0.51100000000E-03 0. -1.
         11    1    4    4    0    0 -0.65771783691E-01 -0.18334488839E-01  0.14553896732E-02  0.68296854180E-01  0.51100000000E-03 0.  1.
</event>
<event>
 8    1  0.1143506E+005  0.1043930E+01  0.7957747E-01            NaN
         13   -1    0    0    0    0  0.00000000000E+00  0.00000000000E+00  0.74505805969E-08  0.10566000000E+00  0.10566000000E+00 0.  1.
     999900   -1    0    0    0    0 -0.00000000000E+00 -0.00000000000E+00 -0.74505805969E-08  0.93827000000E+00  0.93827000000E+00 0. -1.
     999902    2    1    2    0    0  0.89536549861E-02 -0.20017189681E-01  0.98222140587E-02  0.10199022721E+01  0.10196191999E+01 0.  0.
     999903    2    3    3    0    0  0.65949744624E-01 -0.10139549087E+00 -0.49523826083E-01  0.13232526999E+00  0.20662849380E-01 0.  0.
         14    1    1    2    0    0 -0.89536549861E-02  0.20017189681E-01 -0.98222140587E-02  0.24027727927E-01  0.00000000000E+00 0.  1.
     999901    1    3    3    0    0 -0.56996089638E-01  0.81378301189E-01  0.59346040142E-01  0.88757700208E+00  0.88000000000E+00 0.  1.
        -11    1    4    4    0    0  0.55262322807E-01 -0.71014180808E-01 -0.31036241610E-01  0.95186383544E-01  0.51100000000E-03 0. -1.
         11    1    4    4    0    0  0.10687421817E-01 -0.30381310061E-01 -0.18487584473E-01  0.37138886450E-01  0.51100000000E-03 0.  1.
</event>
<event>
 8    1  0.1143506E+005  0.1043930E+01  0.7957747E-01            NaN
         13   -1    0    0    0    0  0.00000000000E+00  0.00000000000E+00  0.74505805969E-08  0.10566000000E+00  0.10566000000E+00 0.  1.
     999900   -1    0    0    0    0 -0.00000000000E+00 -0.00000000000E+00 -0.74505805969E-08  0.93827000000E+00  0.93827000000E+00 0.  1.
     999902    2    1    2    0    0  0.16997193995E-01  0.15186901468E-01 -0.74127008867E-02  0.10199613806E+01  0.10196797160E+01 0.  0.
     999903    2    3    3    0    0  0.10095512853E+00  0.41833708294E-01  0.71319901911E-01  0.13206622363E+00  0.20321463773E-01 0.  0.
         14    1    1    2    0    0 -0.16997193995E-01 -0.15186901468E-01  0.74127008867E-02  0.23968619367E-01  0.00000000000E+00 0.  1.
     999901    1    3    3    0    0 -0.83957934533E-01 -0.26646806825E-01 -0.78732602798E-01  0.88789515700E+00  0.88000000000E+00 0.  1.
        -11    1    4    4    0    0  0.26794982532E-01  0.13556357272E-01  0.30537868545E-01  0.42831862529E-01  0.51100000000E-03 0. -1.
         11    1    4    4    0    0  0.74160145995E-01  0.28277351021E-01  0.40782033366E-01  0.89234361102E-01  0.51100000000E-03 0.  1.
</event>
<event>
 8    1  0.1143506E+005  0.1043930E+01  0.7957747E-01            NaN
         13   -1    0    0    0    0  0.00000000000E+00  0.00000000000E+00  0.74505805969E-08  0.10566000000E+00  0.10566000000E+00 0. -1.
     999900   -1    0    0    0    0 -0.00000000000E+00 -0.00000000000E+00 -0.74505805969E-08  0.93827000000E+00  0.93827000000E+00 0.  1.
     999902    2    1    2    0    0  0.10064691962E-02 -0.20802959391E-01 -0.11353009090E-01  0.10202093989E+01  0.10199336011E+01 0.  0.
     999903    2    3    3    0    0  0.12181597858E+00 -0.40023260063E-01 -0.26645471041E-01  0.13161600659E+00  0.13107176743E-01 0.  0.
         14    1    1    2    0    0 -0.10064691962E-02  0.20802959391E-01  0.11353009090E-01  0.23720601069E-01  0.00000000000E+00 0. -1.
     999901    1    3    3    0    0 -0.12080950938E+00  0.19220300671E-01  0.15292461951E-01  0.88859339234E+00  0.88000000000E+00 0.  1.
        -11    1    4    4    0    0  0.62506775003E-01 -0.17964124978E-01 -0.19690331932E-01  0.67954227242E-01  0.51100000000E-03 0. -1.
         11    1    4    4    0    0  0.59309203573E-01 -0.22059135085E-01 -0.69551391086E-02  0.63661779351E-01  0.51100000000E-03 0.  1.
</event>
<event>
 8    1  0.1143506E+005  0.1043930E+01  0.7957747E-01            NaN
         13   -1    0    0    0    0  0.00000000000E+00  0.00000000000E+00  0.74505805969E-08  0.10566000000E+00  0.10566000000E+00 0.  1.
     999900   -1    0    0    0    0 -0.00000000000E+00 -0.00000000000E+00 -0.74505805969E-08  0.93827000000E+00  0.93827000000E+00 0.  1.
     999902    2    1    2    0    0 -0.22668221606E-01 -0.27621930366E-02 -0.20245858328E-02  0.10210045354E+01  0.10207471206E+01 0.  0.
     999903    2    3    3    0    0  0.49227877638E-01  0.30145967051E-01 -0.11500929833E+00  0.13026465114E+00  0.20238017884E-01 0.  0.
         14    1    1    2    0    0  0.22668221606E-01  0.27621930366E-02  0.20245858328E-02  0.22925464640E-01  0.00000000000E+00 0.  1.
     999901    1    3    3    0    0 -0.71896099245E-01 -0.32908160087E-01  0.11298471250E+00  0.89073988422E+00  0.88000000000E+00 0. -1.
        -11    1    4    4    0    0  0.33831927172E-01  0.18998109867E-01 -0.54973278760E-01  0.67289300586E-01  0.51100000000E-03 0. -1.
         11    1    4    4    0    0  0.15395950466E-01  0.11147857184E-01 -0.60036019568E-01  0.62975350552E-01  0.51100000000E-03 0.  1.
</event>
<event>
 8    1  0.1143506E+005  0.1043930E+01  0.7957747E-01            NaN
         13   -1    0    0    0    0  0.00000000000E+00  0.00000000000E+00  0.74505805969E-08  0.10566000000E+00  0.10566000000E+00 0. -1.
     999900   -1    0    0    0    0 -0.00000000000E+00 -0.00000000000E+00 -0.74505805969E-08  0.93827000000E+00  0.93827000000E+00 0.  1.
     999902    2    1    2    0    0 -0.12148303922E-01  0.97202734471E-02  0.15721241941E-01  0.10218116264E+01  0.10215722086E+01 0.  0.
     999903    2    3    3    0    0 -0.42544275715E-01  0.15677488282E-01 -0.12107515657E+00  0.13070408058E+00  0.19198023539E-01 0.  0.
         14    1    1    2    0    0  0.12148303922E-01 -0.97202734471E-02 -0.15721241941E-01  0.22118373635E-01  0.00000000000E+00 0.  1.
     999901    1    3    3    0    0  0.30395971793E-01 -0.59572148352E-02  0.13679639851E+00  0.89110754578E+00  0.88000000000E+00 0. -1.
        -11    1    4    4    0    0 -0.23876924622E-01  0.90833974976E-02 -0.41786082126E-01  0.48979112077E-01  0.51100000000E-03 0.  1.
         11    1    4    4    0    0 -0.18667351094E-01  0.65940907847E-02 -0.79289074441E-01  0.81724968503E-01  0.51100000000E-03 0. -1.
</event>
<event>
 8    1  0.1143506E+005  0.1043930E+01  0.7957747E-01            NaN
         13   -1    0    0    0    0  0.00000000000E+00  0.00000000000E+00  0.74505805969E-08  0.10566000000E+00  0.10566000000E+00 0. -1.
     999900   -1    0    0    0    0 -0.00000000000E+00 -0.00000000000E+00 -0.74505805969E-08  0.93827000000E+00  0.93827000000E+00 0. -1.
     999902    2    1    2    0    0 -0.60114750199E-02  0.70318633006E-02 -0.21080497055E-01  0.10209088730E+01  0.10206492809E+01 0.  0.
     999903    2    3    3    0    0  0.10684507159E+00  0.43559827333E-01 -0.60928391261E-01  0.13205638412E+00  0.20329580520E-01 0.  0.
         14    1    1    2    0    0  0.60114750199E-02 -0.70318633006E-02  0.21080497055E-01  0.23021127024E-01  0.00000000000E+00 0. -1.
     999901    1    3    3    0    0 -0.11285654661E+00 -0.36527964032E-01  0.39847894206E-01  0.88885248885E+00  0.88000000000E+00 0.  1.
        -11    1    4    4    0    0  0.62083744849E-01  0.23601114967E-01 -0.23750362899E-01  0.70538959880E-01  0.51100000000E-03 0. -1.
         11    1    4    4    0    0  0.44761326746E-01  0.19958712366E-01 -0.37178028362E-01  0.61517424241E-01  0.51100000000E-03 0.  1.
</event>
<event>
 8    1  0.1143506E+005  0.1043930E+01  0.7957747E-01            NaN
         13   -1    0    0    0    0  0.00000000000E+00  0.00000000000E+00  0.74505805969E-08  0.10566000000E+00  0.10566000000E+00 0. -1.
     999900   -1    0    0    0    0 -0.00000000000E+00 -0.00000000000E+00 -0.74505805969E-08  0.93827000000E+00  0.93827000000E+00 0. -1.
     999902    2    1    2    0    0 -0.53243166396E-02 -0.22577385120E-01 -0.97707963547E-03  0.10207127359E+01  0.10204486503E+01 0.  0.
     999903    2    3    3    0    0  0.11158899292E+00  0.41614372425E-01  0.46621732347E-01  0.12939071185E+00  0.19608953397E-01 0.  0.
         14    1    1    2    0    0  0.53243166396E-02  0.22577385120E-01  0.97707963547E-03  0.23217264076E-01  0.00000000000E+00 0. -1.
     999901    1    3    3    0    0 -0.11691330956E+00 -0.64191757545E-01 -0.47598811982E-01  0.89132202407E+00  0.88000000000E+00 0.  1.
        -11    1    4    4    0    0  0.69902592772E-01  0.22932672102E-01  0.38344754902E-01  0.82963011490E-01  0.51100000000E-03 0. -1.
         11    1    4    4    0    0  0.41686400152E-01  0.18681700323E-01  0.82769774442E-02  0.46427700365E-01  0.51100000000E-03 0.  1.
</event>
<event>
 8    1  0.1143506E+005  0.1043930E+01  0.7957747E-01            NaN
         13   -1    0    0    0    0  0.00000000000E+00  0.00000000000E+00  0.74505805969E-08  0.10566000000E+00  0.10566000000E+00 0.  1.
     999900   -1    0    0    0    0 -0.00000000000E+00 -0.00000000000E+00 -0.74505805969E-08  0.93827000000E+00  0.93827000000E+00 0.  1.
     999902    2    1    2    0    0 -0.58888136841E-02 -0.21356737947E-01 -0.12033815621E-01  0.10187188695E+01  0.10184068607E+01 0.  0.
     999903    2    3    3    0    0  0.59320940403E-01  0.10791803352E+00  0.18905800207E-01  0.12635037029E+00  0.21016918494E-01 0.  0.
         14    1    1    2    0    0  0.58888136841E-02  0.21356737947E-01  0.12033815621E-01  0.25211130493E-01  0.00000000000E+00 0. -1.
     999901    1    3    3    0    0 -0.65209754087E-01 -0.12927477146E+00 -0.30939615828E-01  0.89236849922E+00  0.88000000000E+00 0. -1.
        -11    1    4    4    0    0  0.38243080645E-01  0.62896884757E-01  0.21135835617E-01  0.76586787356E-01  0.51100000000E-03 0.  1.
         11    1    4    4    0    0  0.21077859758E-01  0.45021148760E-01 -0.22300354100E-02  0.49763582935E-01  0.51100000000E-03 0. -1.
</event>
<event>
 8    1  0.1143506E+005  0.1043930E+01  0.7957747E-01            NaN
         13   -1    0    0    0    0  0.00000000000E+00  0.00000000000E+00  0.74505805969E-08  0.10566000000E+00  0.10566000000E+00 0. -1.
     999900   -1    0    0    0    0 -0.00000000000E+00 -0.00000000000E+00 -0.74505805969E-08  0.93827000000E+00  0.93827000000E+00 0. -1.
     999902    2    1    2    0    0 -0.13780960726E-01 -0.26147632300E-02  0.19338481131E-01  0.10200400708E+01  0.10197602744E+01 0.  0.
     999903    2    3    3    0    0 -0.12129555187E+00  0.15397471969E-01  0.47793788530E-01  0.13285715141E+00  0.20422620099E-01 0.  0.
         14    1    1    2    0    0  0.13780960726E-01  0.26147632300E-02 -0.19338481131E-01  0.23889929211E-01  0.00000000000E+00 0.  1.
     999901    1    3    3    0    0  0.10751459114E+00 -0.18012235199E-01 -0.28455307399E-01  0.88718291938E+00  0.88000000000E+00 0. -1.
        -11    1    4    4    0    0 -0.41754791977E-01  0.68487213521E-02  0.27008984731E-01  0.50200737190E-01  0.51100000000E-03 0. -1.
         11    1    4    4    0    0 -0.79540759891E-01  0.85487506166E-02  0.20784803799E-01  0.82656414217E-01  0.51100000000E-03 0.  1.
</event>
<event>
 8    1  0.1143506E+005  0.1043930E+01  0.7957747E-01            NaN
         13   -1    0    0    0    0  0.00000000000E+00  0.00000000000E+00  0.74505805969E-08  0.10566000000E+00  0.10566000000E+00 0.  1.
     999900   -1    0    0    0    0 -0.00000000000E+00 -0.00000000000E+00 -0.74505805969E-08  0.93827000000E+00  0.93827000000E+00 0. -1.
     999902    2    1    2    0    0 -0.21050621006E-01 -0.67414648423E-02 -0.10670788224E-01  0.10193853119E+01  0.10190897764E+01 0.  0.
     999903    2    3    3    0    0  0.34701305718E-01 -0.12137775170E+00  0.20591836601E-01  0.12965102161E+00  0.21180756424E-01 0.  0.
         14    1    1    2    0    0  0.21050621006E-01  0.67414648423E-02  0.10670788224E-01  0.24544688107E-01  0.00000000000E+00 0.  1.
     999901    1    3    3    0    0 -0.55751926724E-01  0.11463628686E+00 -0.31262624825E-01  0.88973429029E+00  0.88000000000E+00 0. -1.
        -11    1    4    4    0    0  0.32371614708E-01 -0.95861882451E-01  0.91772657955E-02  0.10159677787E+00  0.51100000000E-03 0.  1.
         11    1    4    4    0    0  0.23296910097E-02 -0.25515869250E-01  0.11414570806E-01  0.28054243734E-01  0.51100000000E-03 0. -1.
</event>
<event>
 8    1  0.1143506E+005  0.1043930E+01  0.7957747E-01            NaN
         13   -1    0    0    0    0  0.00000000000E+00  0.00000000000E+00  0.74505805969E-08  0.10566000000E+00  0.10566000000E+00 0.  1.
     999900   -1    0    0    0    0 -0.00000000000E+00 -0.00000000000E+00 -0.74505805969E-08  0.93827000000E+00  0.93827000000E+00 0. -1.
     999902    2    1    2    0    0 -0.19876020121E-01  0.79460634256E-02  0.10483471672E-01  0.10200951667E+01  0.10198166746E+01 0.  0.
     999903    2    3    3    0    0 -0.21041992383E-01  0.58465454928E-01  0.11536816429E+00  0.13242722927E+00  0.19135904940E-01 0.  0.
         14    1    1    2    0    0  0.19876020121E-01 -0.79460634256E-02 -0.10483471672E-01  0.23834833293E-01  0.00000000000E+00 0. -1.
     999901    1    3    3    0    0  0.11659722618E-02 -0.50519391502E-01 -0.10488469261E+00  0.88766793744E+00  0.88000000000E+00 0. -1.
        -11    1    4    4    0    0 -0.21374482031E-01  0.34587203271E-01  0.80126645572E-01  0.89853678633E-01  0.51100000000E-03 0.  1.
         11    1    4    4    0    0  0.33248964831E-03  0.23878251656E-01  0.35241518714E-01  0.42573550636E-01  0.51100000000E-03 0. -1.
</event>
<event>
 8    1  0.1143506E+005  0.1043930E+01  0.7957747E-01            NaN
         13   -1    0    0    0    0  0.00000000000E+00  0.00000000000E+00  0.74505805969E-08  0.10566000000E+00  0.10566000000E+00 0. -1.
     999900   -1    0    0    0    0 -0.00000000000E+00 -0.00000000000E+00 -0.74505805969E-08  0.93827000000E+00  0.93827000000E+00 0. -1.
     999902    2    1    2    0    0  0.15749278513E-01 -0.14373255931E-01 -0.19366716297E-02  0.10225201668E+01  0.10222959995E+01 0.  0.
     999903    2    3    3    0    0 -0.63469237055E-01 -0.67688287331E-01  0.92089909046E-01  0.13237463734E+00  0.20795311213E-01 0.  0.
         14    1    1    2    0    0 -0.15749278513E-01  0.14373255931E-01  0.19366716297E-02  0.21409833179E-01  0.00000000000E+00 0. -1.
     999901    1    3    3    0    0  0.79218515568E-01  0.53315031399E-01 -0.94026580676E-01  0.89014552948E+00  0.88000000000E+00 0.  1.
        -11    1    4    4    0    0 -0.30269325386E-01 -0.44395092702E-01  0.60844664458E-01  0.81175677573E-01  0.51100000000E-03 0. -1.
         11    1    4    4    0    0 -0.33199911669E-01 -0.23293194629E-01  0.31245244588E-01  0.51198959767E-01  0.51100000000E-03 0.  1.
</event>
<event>
 8    1  0.1143506E+005  0.1043930E+01  0.7957747E-01            NaN
         13   -1    0    0    0    0  0.00000000000E+00  0.00000000000E+00  0.74505805969E-08  0.10566000000E+00  0.10566000000E+00 0. -1.
     999900   -1    0    0    0    0 -0.00000000000E+00 -0.00000000000E+00 -0.74505805969E-08  0.93827000000E+00  0.93827000000E+00 0. -1.
     999902    2    1    2    0    0 -0.97262733921E-02  0.16352830817E-02 -0.20742127445E-01  0.10209624055E+01  0.10207040331E+01 0.  0.
     999903    2    3    3    0    0 -0.82870028288E-01 -0.95149530124E-01  0.30494818348E-01  0.13116325203E+00  0.18788029874E-01 0.  0.
         14    1    1    2    0    0  0.97262733921E-02 -0.16352830817E-02  0.20742127445E-01  0.22967594472E-01  0.00000000000E+00 0. -1.
     999901    1    3    3    0    0  0.73143754896E-01  0.96784813205E-01 -0.51236945794E-01  0.88979915350E+00  0.88000000000E+00 0. -1.
        -11    1    4    4    0    0 -0.23243562484E-01 -0.40262944650E-01  0.12529160485E-01  0.48151935499E-01  0.51100000000E-03 0.  1.
         11    1    4    4    0    0 -0.59626465803E-01 -0.54886585473E-01  0.17965657863E-01  0.83011316533E-01  0.51100000000E-03 0. -1.
</event>
<event>
 8    1  0.1143506E+005  0.1043930E+01  0.7957747E-01            NaN
         13   -1    0    0    0    0  0.00000000000E+00  0.00000000000E+00  0.74505805969E-08  0.10566000000E+00  0.10566000000E+00 0.  1.
     999900   -1    0    0    0    0 -0.00000000000E+00 -0.00000000000E+00 -0.74505805969E-08  0.93827000000E+00  0.93827000000E+00 0.  1.
     999902    2    1    2    0    0 -0.19012678440E-01 -0.38565648131E-02 -0.13481593666E-01  0.10203056820E+01  0.10200321447E+01 0.  0.
     999903    2    3    3    0    0  0.53831906065E-01  0.38787782761E-01  0.10763752318E+00  0.12800824597E+00  0.19947642384E-01 0.  0.
         14    1    1    2    0    0  0.19012678440E-01  0.38565648131E-02  0.13481593666E-01  0.23624318009E-01  0.00000000000E+00 0.  1.
     999901    1    3    3    0    0 -0.72844584505E-01 -0.42644347575E-01 -0.12111911685E+00  0.89229743603E+00  0.88000000000E+00 0.  1.
        -11    1    4    4    0    0  0.40525072882E-01  0.30088448382E-01  0.63664210167E-01  0.81246470910E-01  0.51100000000E-03 0. -1.
         11    1    4    4    0    0  0.13306833182E-01  0.86993343798E-02  0.43973313013E-01  0.46761775055E-01  0.51100000000E-03 0.  1.
</event>
<event>
 8    1  0.1143506E+005  0.1043930E+01  0.7957747E-01            NaN
         13   -1    0    0    0    0  0.00000000000E+00  0.00000000000E+00  0.74505805969E-08  0.10566000000E+00  0.10566000000E+00 0. -1.
     999900   -1    0    0    0    0 -0.00000000000E+00 -0.00000000000E+00 -0.74505805969E-08  0.93827000000E+00  0.93827000000E+00 0.  1.
     999902    2    1    2    0    0  0.26429100796E-02  0.23428171283E-01  0.43292726507E-02  0.10199590429E+01  0.10196773227E+01 0.  0.
     999903    2    3    3    0    0  0.14962644022E-01 -0.10631498773E+00 -0.64643996151E-01  0.12769093578E+00  0.24482065056E-01 0.  0.
         14    1    1    2    0    0 -0.26429100796E-02 -0.23428171283E-01 -0.43292726507E-02  0.23970957116E-01  0.00000000000E+00 0. -1.
     999901    1    3    3    0    0 -0.12319733943E-01  0.12974315901E+00  0.68973268801E-01  0.89226810711E+00  0.88000000000E+00 0.  1.
        -11    1    4    4    0    0  0.24245094182E-02 -0.26032375630E-01 -0.28735519588E-01  0.38852979730E-01  0.51100000000E-03 0. -1.
         11    1    4    4    0    0  0.12538134604E-01 -0.80282612096E-01 -0.35908476563E-01  0.88837956046E-01  0.51100000000E-03 0.  1.
</event>
<event>
 8    1  0.1143506E+005  0.1043930E+01  0.7957747E-01            NaN
         13   -1    0    0    0    0  0.00000000000E+00  0.00000000000E+00  0.74505805969E-08  0.10566000000E+00  0.10566000000E+00 0.  1.
     999900   -1    0    0    0    0 -0.00000000000E+00 -0.00000000000E+00 -0.74505805969E-08  0.93827000000E+00  0.93827000000E+00 0. -1.
     999902    2    1    2    0    0 -0.19050653207E-01 -0.11619599556E-01  0.75725615350E-05  0.10216153739E+01  0.10213716413E+01 0.  0.
     999903    2    3    3    0    0 -0.10831511610E+00 -0.35209287740E-01 -0.68075115978E-01  0.13416967402E+00  0.19885212934E-01 0.  0.
         14    1    1    2    0    0  0.19050653207E-01  0.11619599556E-01 -0.75725615350E-05  0.22314626118E-01  0.00000000000E+00 0. -1.
     999901    1    3    3    0    0  0.89264462888E-01  0.23589688184E-01  0.68082688540E-01  0.88744569986E+00  0.88000000000E+00 0.  1.
        -11    1    4    4    0    0 -0.99623745287E-01 -0.30075391680E-01 -0.67512226040E-01  0.12404669119E+00  0.51100000000E-03 0.  1.
         11    1    4    4    0    0 -0.86913708083E-02 -0.51338960593E-02 -0.56288993881E-03  0.10122982829E-01  0.51100000000E-03 0. -1.
</event>
<event>
 8    1  0.1143506E+005  0.1043930E+01  0.7957747E-01            NaN
         13   -1    0    0    0    0  0.00000000000E+00  0.00000000000E+00  0.74505805969E-08  0.10566000000E+00  0.10566000000E+00 0.  1.
     999900   -1    0    0    0    0 -0.00000000000E+00 -0.00000000000E+00 -0.74505805969E-08  0.93827000000E+00  0.93827000000E+00 0. -1.
     999902    2    1    2    0    0 -0.13385963511E-01 -0.15414679758E-01  0.18709550523E-01  0.10162380580E+01  0.10158606926E+01 0.  0.
     999903    2    3    3    0    0 -0.99347686722E-01  0.66678143865E-01  0.39531188013E-01  0.12800262179E+00  0.22494857916E-01 0.  0.
         14    1    1    2    0    0  0.13385963511E-01  0.15414679758E-01 -0.18709550523E-01  0.27691942003E-01  0.00000000000E+00 0. -1.
     999901    1    3    3    0    0  0.85961723211E-01 -0.82092823623E-01 -0.20821637490E-01  0.88823543621E+00  0.88000000000E+00 0. -1.
        -11    1    4    4    0    0 -0.52123042306E-01  0.47399891518E-01  0.18628917134E-01  0.72875640167E-01  0.51100000000E-03 0. -1.
         11    1    4    4    0    0 -0.47224644417E-01  0.19278252347E-01  0.20902270879E-01  0.55126981622E-01  0.51100000000E-03 0.  1.
</event>
<event>
 8    1  0.1143506E+005  0.1043930E+01  0.7957747E-01            NaN
         13   -1    0    0    0    0  0.00000000000E+00  0.00000000000E+00  0.74505805969E-08  0.10566000000E+00  0.10566000000E+00 0. -1.
     999900   -1    0    0    0    0 -0.00000000000E+00 -0.00000000000E+00 -0.74505805969E-08  0.93827000000E+00  0.93827000000E+00 0. -1.
     999902    2    1    2    0    0 -0.10682235933E-01  0.19944753880E-01  0.77792037782E-02  0.10200047125E+01  0.10197240774E+01 0.  0.
     999903    2    3    3    0    0 -0.65877488452E-01 -0.88730947744E-01  0.64882286014E-01  0.12977008833E+00  0.20433800770E-01 0.  0.
         14    1    1    2    0    0  0.10682235933E-01 -0.19944753880E-01 -0.77792037782E-02  0.23925287528E-01  0.00000000000E+00 0.  1.
     999901    1    3    3    0    0  0.55195252519E-01  0.10867570162E+00 -0.57103082236E-01  0.89023462414E+00  0.88000000000E+00 0. -1.
        -11    1    4    4    0    0 -0.35878516330E-01 -0.31788919932E-01  0.25212429910E-01  0.54163928102E-01  0.51100000000E-03 0.  1.
         11    1    4    4    0    0 -0.29998972122E-01 -0.56942027813E-01  0.39669856105E-01  0.75606160226E-01  0.51100000000E-03 0. -1.
</event>
<event>
 8    1  0.1143506E+005  0.1043930E+01  0.7957747E-01            NaN
         13   -1    0    0    0    0  0.00000000000E+00  0.00000000000E+00  0.74505805969E-08  0.10566000000E+00  0.10566000000E+00 0.  1.
     999900   -1    0    0    0    0 -0.00000000000E+00 -0.00000000000E+00 -0.74505805969E-08  0.93827000000E+00  0.93827000000E+00 0.  1.
     999902    2    1    2    0    0  0.18937279588E-01  0.12162341025E-01 -0.69325134303E-02  0.10203799928E+01  0.10201081937E+01 0.  0.
     999903    2    3    3    0    0 -0.64862754343E-01 -0.92900081313E-01  0.56013160605E-01  0.12795480480E+00  0.19933787920E-01 0.  0.
         14    1    1    2    0    0 -0.18937279588E-01 -0.12162341025E-01  0.69325134303E-02  0.23550007216E-01  0.00000000000E+00 0.  1.
     999901    1    3    3    0    0  0.83800033931E-01  0.10506242234E+00 -0.62945674035E-01  0.89242518799E+00  0.88000000000E+00 0.  1.
        -11    1    4    4    0    0 -0.38489551750E-01 -0.54319799751E-01  0.21871342790E-01  0.70076408265E-01  0.51100000000E-03 0.  1.
         11    1    4    4    0    0 -0.26373202593E-01 -0.38580281562E-01  0.34141817815E-01  0.57878396532E-01  0.51100000000E-03 0. -1.
</event>
<event>
 8    1  0.1143506E+005  0.1043930E+01  0.7957747E-01            NaN
         13   -1    0    0    0    0  0.00000000000E+00  0.00000000000E+00  0.74505805969E-08  0.10566000000E+00  0.10566000000E+00 0.  1.
     999900   -1    0    0    0    0 -0.00000000000E+00 -0.00000000000E+00 -0.74505805969E-08  0.93827000000E+00  0.93827000000E+00 0.  1.
     999902    2    1    2    0    0  0.31137477326E-02 -0.41274837860E-02  0.23589413189E-01  0.10197806323E+01  0.10194946523E+01 0.  0.
     999903    2    3    3    0    0  0.12671409708E-01 -0.11846724885E+00 -0.46709685577E-01  0.12955206944E+00  0.20171521930E-01 0.  0.
         14    1    1    2    0    0 -0.31137477326E-02  0.41274837860E-02 -0.23589413189E-01  0.24149367734E-01  0.00000000000E+00 0. -1.
     999901    1    3    3    0    0 -0.95576619759E-02  0.11433976506E+00  0.70299098766E-01  0.89022856282E+00  0.88000000000E+00 0.  1.
        -11    1    4    4    0    0 -0.29920456981E-02 -0.66190688653E-01 -0.25148875353E-01  0.70872326435E-01  0.51100000000E-03 0.  1.
         11    1    4    4    0    0  0.15663455407E-01 -0.52276560195E-01 -0.21560810224E-01  0.58679743009E-01  0.51100000000E-03 0. -1.
</event>
<event>
 8    1  0.1143506E+005  0.1043930E+01  0.7957747E-01            NaN
         13   -1    0    0    0    0  0.00000000000E+00  0.00000000000E+00  0.74505805969E-08  0.10566000000E+00  0.10566000000E+00 0. -1.
     999900   -1    0    0    0    0 -0.00000000000E+00 -0.00000000000E+00 -0.74505805969E-08  0.93827000000E+00  0.93827000000E+00 0.  1.
     999902    2    1    2    0    0  0.61856968298E-02  0.13672248693E-01  0.21603824064E-01  0.10176256573E+01  0.10172856334E+01 0.  0.
     999903    2    3    3    0    0  0.12346181994E+00  0.31880319977E-01  0.10387065883E-01  0.12958791118E+00  0.20638793585E-01 0.  0.
         14    1    1    2    0    0 -0.61856968298E-02 -0.13672248693E-01 -0.21603824064E-01  0.26304342679E-01  0.00000000000E+00 0.  1.
     999901    1    3    3    0    0 -0.11727612311E+00 -0.18208071284E-01  0.11216758180E-01  0.88803774614E+00  0.88000000000E+00 0. -1.
        -11    1    4    4    0    0  0.55863458104E-01  0.56524799509E-02 -0.11669917263E-02  0.56163150478E-01  0.51100000000E-03 0. -1.
         11    1    4    4    0    0  0.67598361837E-01  0.26227840026E-01  0.11554057610E-01  0.73424760699E-01  0.51100000000E-03 0.  1.
</event>
<event>
 8    1  0.1143506E+005  0.1043930E+01  0.7957747E-01            NaN
         13   -1    0    0    0    0  0.00000000000E+00  0.00000000000E+00  0.74505805969E-08  0.10566000000E+00  0.10566000000E+00 0.  1.
     999900   -1    0    0    0    0 -0.00000000000E+00 -0.00000000000E+00 -0.74505805969E-08  0.93827000000E+00  0.93827000000E+00 0.  1.
     999902    2    1    2    0    0 -0.77006603312E-02  0.14054642596E-01  0.18372586665E-01  0.10195499859E+01  0.10192584503E+01 0.  0.
     999903    2    3    3    0    0  0.11342398750E+00 -0.52819117855E-01  0.22600560219E-01  0.12872948998E+00  0.20140410015E-01 0.  0.
         14    1    1    2    0    0  0.77006603312E-02 -0.14054642596E-01 -0.18372586665E-01  0.24380014126E-01  0.00000000000E+00 0. -1.
     999901    1    3    3    0    0 -0.12112464783E+00  0.66873760452E-01 -0.42279735549E-02  0.89082049590E+00  0.88000000000E+00 0. -1.
        -11    1    4    4    0    0  0.24556277144E-01 -0.19566240519E-01  0.10302108698E-01  0.33049101044E-01  0.51100000000E-03 0. -1.
         11    1    4    4    0    0  0.88867710358E-01 -0.33252877336E-01  0.12298451521E-01  0.95680388932E-01  0.51100000000E-03 0.  1.
</event>
<event>
 8    1  0.1143506E+005  0.1043930E+01  0.7957747E-01            NaN
         13   -1    0    0    0    0  0.00000000000E+00  0.00000000000E+00  0.74505805969E-08  0.10566000000E+00  0.10566000000E+00 0.  1.
     999900   -1    0    0    0    0 -0.00000000000E+00 -0.00000000000E+00 -0.74505805969E-08  0.93827000000E+00  0.93827000000E+00 0.  1.
     999902    2    1    2    0    0  0.19903004539E-01  0.28118550540E-03 -0.11477611284E-01  0.10209529633E+01  0.10206943759E+01 0.  0.
     999903    2    3    3    0    0  0.10169106964E+00  0.25397818538E-02 -0.85071890989E-01  0.13409868730E+00  0.19942596677E-01 0.  0.
         14    1    1    2    0    0 -0.19903004539E-01 -0.28118550540E-03  0.11477611284E-01  0.22977036706E-01  0.00000000000E+00 0.  1.
     999901    1    3    3    0    0 -0.81788065099E-01 -0.22585963484E-02  0.73594279705E-01  0.88685427600E+00  0.88000000000E+00 0. -1.
        -11    1    4    4    0    0  0.24642640240E-01  0.86837006819E-02 -0.17692718094E-01  0.31558830303E-01  0.51100000000E-03 0.  1.
         11    1    4    4    0    0  0.77048429398E-01 -0.61439188281E-02 -0.67379172894E-01  0.10253985699E+00  0.51100000000E-03 0. -1.
</event>
<event>
 8    1  0.1143506E+005  0.1043930E+01  0.7957747E-01            NaN
         13   -1    0    0    0    0  0.00000000000E+00  0.00000000000E+00  0.74505805969E-08  0.10566000000E+00  0.10566000000E+00 0. -1.
     999900   -1    0    0    0    0 -0.00000000000E+00 -0.00000000000E+00 -0.74505805969E-08  0.93827000000E+00  0.93827000000E+00 0.  1.
     999902    2    1    2    0    0  0.97666009119E-02 -0.21790793748E-01 -0.11710103937E-02  0.10200219166E+01  0.10197416898E+01 0.  0.
     999903    2    3    3    0    0 -0.58959574116E-01 -0.11487574756E+00  0.19731909726E-01  0.13220153623E+00  0.20377172624E-01 0.  0.
         14    1    1    2    0    0 -0.97666009119E-02  0.21790793748E-01  0.11710103937E-02  0.23908083380E-01  0.00000000000E+00 0. -1.
     999901    1    3    3    0    0  0.68726175028E-01  0.93084953810E-01 -0.20902920120E-01  0.88782038039E+00  0.88000000000E+00 0. -1.
        -11    1    4    4    0    0 -0.18823927033E-01 -0.30479800025E-01 -0.32123576784E-02  0.35971360850E-01  0.51100000000E-03 0.  1.
         11    1    4    4    0    0 -0.40135647083E-01 -0.84395947533E-01  0.22944267404E-01  0.96230175384E-01  0.51100000000E-03 0. -1.
</event>
<event>
 8    1  0.1143506E+005  0.1043930E+01  0.7957747E-01            NaN
         13   -1    0    0    0    0  0.00000000000E+00  0.00000000000E+00  0.74505805969E-08  0.10566000000E+00  0.10566000000E+00 0.  1.
     999900   -1    0    0    0    0 -0.00000000000E+00 -0.00000000000E+00 -0.74505805969E-08  0.93827000000E+00  0.93827000000E+00 0. -1.
     999902    2    1    2    0    0  0.27481078552E-02 -0.95824036414E-02  0.22200065684E-01  0.10195944813E+01  0.10193040217E+01 0.  0.
     999903    2    3    3    0    0  0.69318026122E-01 -0.74554711285E-02 -0.10523805301E+00  0.12792382908E+00  0.20709549723E-01 0.  0.
         14    1    1    2    0    0 -0.27481078552E-02  0.95824036414E-02 -0.22200065684E-01  0.24335518747E-01  0.00000000000E+00 0. -1.
     999901    1    3    3    0    0 -0.66569918266E-01 -0.21269325129E-02  0.12743811869E+00  0.89167065218E+00  0.88000000000E+00 0.  1.
        -11    1    4    4    0    0  0.47120083296E-01  0.11944839606E-02 -0.55820669653E-01  0.73061188899E-01  0.51100000000E-03 0.  1.
         11    1    4    4    0    0  0.22197942825E-01 -0.86499550891E-02 -0.49417383353E-01  0.54862640177E-01  0.51100000000E-03 0. -1.
</event>
<event>
 8    1  0.1143506E+005  0.1043930E+01  0.7957747E-01            NaN
         13   -1    0    0    0    0  0.00000000000E+00  0.00000000000E+00  0.74505805969E-08  0.10566000000E+00  0.10566000000E+00 0.  1.
     999900   -1    0    0    0    0 -0.00000000000E+00 -0.00000000000E+00 -0.74505805969E-08  0.93827000000E+00  0.93827000000E+00 0. -1.
     999902    2    1    2    0    0 -0.12700916853E-01 -0.94855372060E-02 -0.17186283105E-01  0.10205493021E+01  0.10202814421E+01 0.  0.
     999903    2    3    3    0    0 -0.11409174729E+00 -0.16612402434E-01 -0.64249978374E-01  0.13344959856E+00  0.19693575565E-01 0.  0.
         14    1    1    2    0    0  0.12700916853E-01  0.94855372060E-02  0.17186283105E-01  0.23380697850E-01  0.00000000000E+00 0.  1.
     999901    1    3    3    0    0  0.10139083044E+00  0.71268652275E-02  0.47063695268E-01  0.88709970359E+00  0.88000000000E+00 0. -1.
        -11    1    4    4    0    0 -0.60809961550E-01 -0.18732721207E-01 -0.35645300751E-01  0.72935689851E-01  0.51100000000E-03 0. -1.
         11    1    4    4    0    0 -0.53281785743E-01  0.21203187735E-02 -0.28604677622E-01  0.60513908704E-01  0.51100000000E-03 0.  1.
</event>
<event>
 8    1  0.1383091E+005  0.1043930E+01  0.7957747E-01            NaN
         13   -1    0    0    0    0  0.00000000000E+00  0.00000000000E+00  0.74505805969E-08  0.10566000000E+00  0.10566000000E+00 0.  1.
     999900   -1    0    0    0    0 -0.00000000000E+00 -0.00000000000E+00 -0.74505805969E-08  0.93827000000E+00  0.93827000000E+00 0.  1.
     999902    2    1    2    0    0  0.19352195785E-02 -0.19310023335E-01 -0.14293752641E-01  0.10198274391E+01  0.10195425799E+01 0.  0.
     999903    2    3    3    0    0 -0.12326218824E+00  0.13368381069E-01  0.30369973622E-01  0.12924497945E+00  0.20239781430E-01 0.  0.
         14    1    1    2    0    0 -0.19352195785E-02  0.19310023335E-01  0.14293752641E-01  0.24102560872E-01  0.00000000000E+00 0.  1.
     999901    1    3    3    0    0  0.12519740782E+00 -0.32678404404E-01 -0.44663726264E-01  0.89058245968E+00  0.88000000000E+00 0.  1.
        -11    1    4    4    0    0 -0.58106614852E-01  0.16210508787E-01  0.12304272493E-01  0.61569599050E-01  0.51100000000E-03 0. -1.
         11    1    4    4    0    0 -0.65155573393E-01 -0.28421277177E-02  0.18065701129E-01  0.67675380401E-01  0.51100000000E-03 0.  1.
</event>
<event>
 8    1  0.1143506E+005  0.1043930E+01  0.7957747E-01            NaN
         13   -1    0    0    0    0  0.00000000000E+00  0.00000000000E+00  0.74505805969E-08  0.10566000000E+00  0.10566000000E+00 0. -1.
     999900   -1    0    0    0    0 -0.00000000000E+00 -0.00000000000E+00 -0.74505805969E-08  0.93827000000E+00  0.93827000000E+00 0.  1.
     999902    2    1    2    0    0 -0.70631420433E-02 -0.23506031331E-01  0.28723055359E-03  0.10193840434E+01  0.10190884770E+01 0.  0.
     999903    2    3    3    0    0 -0.18538669234E-01 -0.97793912373E-01  0.83259947311E-01  0.13229055975E+00  0.25714622656E-01 0.  0.
         14    1    1    2    0    0  0.70631420433E-02  0.23506031331E-01 -0.28723055359E-03  0.24545956609E-01  0.00000000000E+00 0.  1.
     999901    1    3    3    0    0  0.11475527191E-01  0.74287881041E-01 -0.82972716757E-01  0.88709348364E+00  0.88000000000E+00 0.  1.
        -11    1    4    4    0    0 -0.10084706509E-02 -0.64958149840E-01  0.45870366072E-01  0.79529427561E-01  0.51100000000E-03 0.  1.
         11    1    4    4    0    0 -0.17530198584E-01 -0.32835762533E-01  0.37389581239E-01  0.52761132187E-01  0.51100000000E-03 0. -1.
</event>
<event>
 8    1  0.1143506E+005  0.1043930E+01  0.7957747E-01            NaN
         13   -1    0    0    0    0  0.00000000000E+00  0.00000000000E+00  0.74505805969E-08  0.10566000000E+00  0.10566000000E+00 0.  1.
     999900   -1    0    0    0    0 -0.00000000000E+00 -0.00000000000E+00 -0.74505805969E-08  0.93827000000E+00  0.93827000000E+00 0.  1.
     999902    2    1    2    0    0 -0.42550863582E-02  0.13191210197E-01 -0.19375648643E-01  0.10201071214E+01  0.10198289119E+01 0.  0.
     999903    2    3    3    0    0 -0.11050955210E+00  0.68326510629E-01  0.72992023037E-02  0.13160193819E+00  0.19619343033E-01 0.  0.
         14    1    1    2    0    0  0.42550863582E-02 -0.13191210197E-01  0.19375648643E-01  0.23822878641E-01  0.00000000000E+00 0.  1.
     999901    1    3    3    0    0  0.10625446574E+00 -0.55135300432E-01 -0.26674850947E-01  0.88850518317E+00  0.88000000000E+00 0. -1.
        -11    1    4    4    0    0 -0.73954143021E-01  0.42107381372E-01 -0.40648983194E-02  0.85199949268E-01  0.51100000000E-03 0.  1.
         11    1    4    4    0    0 -0.36555409080E-01  0.26219129257E-01  0.11364100623E-01  0.46401988923E-01  0.51100000000E-03 0. -1.
</event>
<event>
 8    1  0.1308736E+005  0.1043930E+01  0.7957747E-01            NaN
         13   -1    0    0    0    0  0.00000000000E+00  0.00000000000E+00  0.74505805969E-08  0.10566000000E+00  0.10566000000E+00 0.  1.
     999900   -1    0    0    0    0 -0.00000000000E+00 -0.00000000000E+00 -0.74505805969E-08  0.93827000000E+00  0.93827000000E+00 0.  1.
     999902    2    1    2    0    0 -0.56860260329E-03  0.20193665655E-01 -0.12387757827E-01  0.10202326587E+01  0.10199574079E+01 0.  0.
     999903    2    3    3    0    0 -0.12044604174E-01  0.13112321646E+00 -0.31295913291E-02  0.13314597887E+00  0.19485557833E-01 0.  0.
         14    1    1    2    0    0  0.56860260329E-03 -0.20193665655E-01  0.12387757827E-01  0.23697341317E-01  0.00000000000E+00 0. -1.
     999901    1    3    3    0    0  0.11476001571E-01 -0.11092955080E+00 -0.92581664981E-02  0.88708667981E+00  0.88000000000E+00 0. -1.
        -11    1    4    4    0    0 -0.54331213280E-02  0.81429125869E-01  0.73014962469E-02  0.81937746586E-01  0.51100000000E-03 0. -1.
         11    1    4    4    0    0 -0.66114828464E-02  0.49694090588E-01 -0.10431087576E-01  0.51208232285E-01  0.51100000000E-03 0.  1.
</event>
<event>
 8    1  0.1143506E+005  0.1043930E+01  0.7957747E-01            NaN
         13   -1    0    0    0    0  0.00000000000E+00  0.00000000000E+00  0.74505805969E-08  0.10566000000E+00  0.10566000000E+00 0. -1.
     999900   -1    0    0    0    0 -0.00000000000E+00 -0.00000000000E+00 -0.74505805969E-08  0.93827000000E+00  0.93827000000E+00 0.  1.
     999902    2    1    2    0    0 -0.22522375753E-02 -0.10887361798E-01 -0.21171910622E-01  0.10200164678E+01  0.10197361118E+01 0.  0.
     999903    2    3    3    0    0 -0.80003835875E-01 -0.82193419132E-01 -0.63492782052E-01  0.13270540569E+00  0.20567436001E-01 0.  0.
         14    1    1    2    0    0  0.22522375753E-02  0.10887361798E-01  0.21171910622E-01  0.23913532161E-01  0.00000000000E+00 0. -1.
     999901    1    3    3    0    0  0.77751598300E-01  0.71306057334E-01  0.42320871430E-01  0.88731106215E+00  0.88000000000E+00 0. -1.
        -11    1    4    4    0    0 -0.27196866048E-01 -0.41714388158E-01 -0.30963699530E-01  0.58641039484E-01  0.51100000000E-03 0. -1.
         11    1    4    4    0    0 -0.52806969828E-01 -0.40479030974E-01 -0.32529082522E-01  0.74064366208E-01  0.51100000000E-03 0.  1.
</event>
<event>
 8    1  0.1143506E+005  0.1043930E+01  0.7957747E-01            NaN
         13   -1    0    0    0    0  0.00000000000E+00  0.00000000000E+00  0.74505805969E-08  0.10566000000E+00  0.10566000000E+00 0. -1.
     999900   -1    0    0    0    0 -0.00000000000E+00 -0.00000000000E+00 -0.74505805969E-08  0.93827000000E+00  0.93827000000E+00 0. -1.
     999902    2    1    2    0    0 -0.14903322829E-01 -0.17839835369E-01 -0.35055414463E-02  0.10204213297E+01  0.10201504951E+01 0.  0.
     999903    2    3    3    0    0 -0.33012362460E-01 -0.96341325609E-01 -0.83361829615E-01  0.13314040012E+00  0.20142105424E-01 0.  0.
         14    1    1    2    0    0  0.14903322829E-01  0.17839835369E-01  0.35055414463E-02  0.23508670276E-01  0.00000000000E+00 0.  1.
     999901    1    3    3    0    0  0.18109039631E-01  0.78501490240E-01  0.79856288168E-01  0.88728092961E+00  0.88000000000E+00 0. -1.
        -11    1    4    4    0    0 -0.24096913499E-01 -0.39600825417E-01 -0.38370223295E-01  0.60178249980E-01  0.51100000000E-03 0. -1.
         11    1    4    4    0    0 -0.89154489607E-02 -0.56740500192E-01 -0.44991606319E-01  0.72962150136E-01  0.51100000000E-03 0.  1.
</event>
<event>
 8    1  0.1143506E+005  0.1043930E+01  0.7957747E-01            NaN
         13   -1    0    0    0    0  0.00000000000E+00  0.00000000000E+00  0.74505805969E-08  0.10566000000E+00  0.10566000000E+00 0. -1.
     999900   -1    0    0    0    0 -0.00000000000E+00 -0.00000000000E+00 -0.74505805969E-08  0.93827000000E+00  0.93827000000E+00 0.  1.
     999902    2    1    2    0    0 -0.15960879384E-01  0.84841183185E-02 -0.13942099461E-01  0.10211021207E+01  0.10208469175E+01 0.  0.
     999903    2    3    3    0    0 -0.55696043756E-01  0.10432759569E+00 -0.59286374498E-01  0.13384738915E+00  0.20345831696E-01 0.  0.
         14    1    1    2    0    0  0.15960879384E-01 -0.84841183185E-02  0.13942099461E-01  0.22827879265E-01  0.00000000000E+00 0. -1.
     999901    1    3    3    0    0  0.39735164372E-01 -0.95843477376E-01  0.45344275037E-01  0.88725473159E+00  0.88000000000E+00 0.  1.
        -11    1    4    4    0    0 -0.54978718406E-01  0.93280928195E-01 -0.57575502215E-01  0.12263437780E+00  0.51100000000E-03 0.  1.
         11    1    4    4    0    0 -0.71732534989E-03  0.11046667499E-01 -0.17108722824E-02  0.11213011347E-01  0.51100000000E-03 0. -1.
</event>
<event>
 8    1  0.1143506E+005  0.1043930E+01  0.7957747E-01            NaN
         13   -1    0    0    0    0  0.00000000000E+00  0.00000000000E+00  0.74505805969E-08  0.10566000000E+00  0.10566000000E+00 0. -1.
     999900   -1    0    0    0    0 -0.00000000000E+00 -0.00000000000E+00 -0.74505805969E-08  0.93827000000E+00  0.93827000000E+00 0. -1.
     999902    2    1    2    0    0 -0.22102109893E-01 -0.95821615091E-02 -0.13581417426E-01  0.10162754167E+01  0.10158990828E+01 0.  0.
     999903    2    3    3    0    0  0.10298952920E+00 -0.59641601518E-01 -0.35506790169E-01  0.12575052218E+00  0.19710350690E-01 0.  0.
         14    1    1    2    0    0  0.22102109893E-01  0.95821615091E-02  0.13581417426E-01  0.27654583349E-01  0.00000000000E+00 0. -1.
     999901    1    3    3    0    0 -0.12509163909E+00  0.50059440009E-01  0.21925372743E-01  0.89052489447E+00  0.88000000000E+00 0. -1.
        -11    1    4    4    0    0  0.58255209995E-01 -0.28681192396E-01 -0.28432743838E-01  0.70886968703E-01  0.51100000000E-03 0.  1.
         11    1    4    4    0    0  0.44734319203E-01 -0.30960409122E-01 -0.70740463310E-02  0.54863553476E-01  0.51100000000E-03 0. -1.
</event>
<event>
 8    1  0.1143506E+005  0.1043930E+01  0.7957747E-01            NaN
         13   -1    0    0    0    0  0.00000000000E+00  0.00000000000E+00  0.74505805969E-08  0.10566000000E+00  0.10566000000E+00 0. -1.
     999900   -1    0    0    0    0 -0.00000000000E+00 -0.00000000000E+00 -0.74505805969E-08  0.93827000000E+00  0.93827000000E+00 0.  1.
     999902    2    1    2    0    0 -0.15499006392E-01 -0.12390094588E-01  0.13863484420E-01  0.10197240122E+01  0.10194366735E+01 0.  0.
     999903    2    3    3    0    0  0.72988593324E-01 -0.28182611272E-01  0.10274694618E+00  0.13069098211E+00  0.20040047971E-01 0.  0.
         14    1    1    2    0    0  0.15499006392E-01  0.12390094588E-01 -0.13863484420E-01  0.24205987758E-01  0.00000000000E+00 0.  1.
     999901    1    3    3    0    0 -0.88487599716E-01  0.15792516683E-01 -0.88883461760E-01  0.88903303013E+00  0.88000000000E+00 0. -1.
        -11    1    4    4    0    0  0.33979214368E-01 -0.20948095695E-01  0.62597069770E-01  0.74243275703E-01  0.51100000000E-03 0. -1.
         11    1    4    4    0    0  0.39009378956E-01 -0.72345155767E-02  0.40149876411E-01  0.56447706410E-01  0.51100000000E-03 0.  1.
</event>
<event>
 8    1  0.1143506E+005  0.1043930E+01  0.7957747E-01            NaN
         13   -1    0    0    0    0  0.00000000000E+00  0.00000000000E+00  0.74505805969E-08  0.10566000000E+00  0.10566000000E+00 0.  1.
     999900   -1    0    0    0    0 -0.00000000000E+00 -0.00000000000E+00 -0.74505805969E-08  0.93827000000E+00  0.93827000000E+00 0.  1.
     999902    2    1    2    0    0 -0.20144262771E-01 -0.31594802390E-02  0.10242204128E-01  0.10211116656E+01  0.10208566781E+01 0.  0.
     999903    2    3    3    0    0 -0.82365974548E-01  0.42448250761E-01  0.94555846747E-01  0.13372201228E+00  0.18835091138E-01 0.  0.
         14    1    1    2    0    0  0.20144262771E-01  0.31594802390E-02 -0.10242204128E-01  0.22818334369E-01  0.00000000000E+00 0.  1.
     999901    1    3    3    0    0  0.62221711777E-01 -0.45607731000E-01 -0.84313642619E-01  0.88738965335E+00  0.88000000000E+00 0.  1.
        -11    1    4    4    0    0 -0.39465230224E-01  0.12780998031E-01  0.51171750681E-01  0.65876152712E-01  0.51100000000E-03 0.  1.
         11    1    4    4    0    0 -0.42900744324E-01  0.29667252730E-01  0.43384096066E-01  0.67845859568E-01  0.51100000000E-03 0. -1.
</event>
<event>
 8    1  0.1143506E+005  0.1043930E+01  0.7957747E-01            NaN
         13   -1    0    0    0    0  0.00000000000E+00  0.00000000000E+00  0.74505805969E-08  0.10566000000E+00  0.10566000000E+00 0.  1.
     999900   -1    0    0    0    0 -0.00000000000E+00 -0.00000000000E+00 -0.74505805969E-08  0.93827000000E+00  0.93827000000E+00 0. -1.
     999902    2    1    2    0    0 -0.19705035353E-01 -0.10561645631E-01 -0.91399865875E-02  0.10197768194E+01  0.10194907480E+01 0.  0.
     999903    2    3    3    0    0  0.45594808052E-01 -0.12003004807E+00  0.60393004279E-02  0.13046370729E+00  0.22320546774E-01 0.  0.
         14    1    1    2    0    0  0.19705035353E-01  0.10561645631E-01  0.91399865875E-02  0.24153180567E-01  0.00000000000E+00 0.  1.
     999901    1    3    3    0    0 -0.65299843406E-01  0.10946840244E+00 -0.15179287015E-01  0.88931311215E+00  0.88000000000E+00 0. -1.
        -11    1    4    4    0    0  0.18320622036E-01 -0.23945635695E-01  0.50664403407E-02  0.30577256243E-01  0.51100000000E-03 0.  1.
         11    1    4    4    0    0  0.27274186016E-01 -0.96084412375E-01  0.97286008726E-03  0.99886451043E-01  0.51100000000E-03 0. -1.
</event>
<event>
 8    1  0.1143506E+005  0.1043930E+01  0.7957747E-01            NaN
         13   -1    0    0    0    0  0.00000000000E+00  0.00000000000E+00  0.74505805969E-08  0.10566000000E+00  0.10566000000E+00 0.  1.
     999900   -1    0    0    0    0 -0.00000000000E+00 -0.00000000000E+00 -0.74505805969E-08  0.93827000000E+00  0.93827000000E+00 0. -1.
     999902    2    1    2    0    0 -0.19461396691E-01 -0.18755440465E-02  0.13456264769E-01  0.10201953273E+01  0.10199191983E+01 0.  0.
     999903    2    3    3    0    0  0.87473393179E-01 -0.47331174525E-01 -0.77881271679E-01  0.12787038134E+00  0.19837019641E-01 0.  0.
         14    1    1    2    0    0  0.19461396691E-01  0.18755440465E-02 -0.13456264769E-01  0.23734672700E-01  0.00000000000E+00 0. -1.
     999901    1    3    3    0    0 -0.10693478987E+00  0.45455630479E-01  0.91337536448E-01  0.89232494596E+00  0.88000000000E+00 0.  1.
        -11    1    4    4    0    0  0.74735954619E-01 -0.32856596723E-01 -0.67706566864E-01  0.10606346769E+00  0.51100000000E-03 0. -1.
         11    1    4    4    0    0  0.12737438561E-01 -0.14474577803E-01 -0.10174704815E-01  0.21806913645E-01  0.51100000000E-03 0.  1.
</event>
<event>
 8    1  0.1143506E+005  0.1043930E+01  0.7957747E-01            NaN
         13   -1    0    0    0    0  0.00000000000E+00  0.00000000000E+00  0.74505805969E-08  0.10566000000E+00  0.10566000000E+00 0.  1.
     999900   -1    0    0    0    0 -0.00000000000E+00 -0.00000000000E+00 -0.74505805969E-08  0.93827000000E+00  0.93827000000E+00 0. -1.
     999902    2    1    2    0    0 -0.11215509270E-02 -0.23603743590E-01 -0.11208407096E-02  0.10202730587E+01  0.10199987566E+01 0.  0.
     999903    2    3    3    0    0 -0.99601709649E-01 -0.81733471946E-01 -0.23750716205E-01  0.13258532179E+00  0.20344779030E-01 0.  0.
         14    1    1    2    0    0  0.11215509270E-02  0.23603743590E-01  0.11208407096E-02  0.23656941304E-01  0.00000000000E+00 0. -1.
     999901    1    3    3    0    0  0.98480158722E-01  0.58129728356E-01  0.22629875495E-01  0.88768773690E+00  0.88000000000E+00 0. -1.
        -11    1    4    4    0    0 -0.35015406448E-01 -0.32751071051E-01 -0.18368312980E-01  0.51345568324E-01  0.51100000000E-03 0.  1.
         11    1    4    4    0    0 -0.64586303201E-01 -0.48982400895E-01 -0.53824032246E-02  0.81239753471E-01  0.51100000000E-03 0. -1.
</event>
<event>
 8    1  0.1143506E+005  0.1043930E+01  0.7957747E-01            NaN
         13   -1    0    0    0    0  0.00000000000E+00  0.00000000000E+00  0.74505805969E-08  0.10566000000E+00  0.10566000000E+00 0.  1.
     999900   -1    0    0    0    0 -0.00000000000E+00 -0.00000000000E+00 -0.74505805969E-08  0.93827000000E+00  0.93827000000E+00 0. -1.
     999902    2    1    2    0    0 -0.23630896646E-02 -0.18801891888E-01  0.14351304698E-01  0.10201591086E+01  0.10198821263E+01 0.  0.
     999903    2    3    3    0    0  0.84549315355E-01  0.93367841475E-01 -0.14638504647E-01  0.12832043245E+00  0.19639425088E-01 0.  0.
         14    1    1    2    0    0  0.23630896646E-02  0.18801891888E-01 -0.14351304698E-01  0.23770891398E-01  0.00000000000E+00 0.  1.
     999901    1    3    3    0    0 -0.86912405020E-01 -0.11216973336E+00  0.28989809345E-01  0.89183867615E+00  0.88000000000E+00 0. -1.
        -11    1    4    4    0    0  0.20017264969E-01  0.14576784284E-01 -0.88801350821E-02  0.26311432059E-01  0.51100000000E-03 0. -1.
         11    1    4    4    0    0  0.64532050386E-01  0.78791057192E-01 -0.57583695647E-02  0.10200900039E+00  0.51100000000E-03 0.  1.
</event>
<event>
 7    1  0.1143506E+005  0.1043930E+01  0.7957747E-01            NaN
         13   -1    0    0    0    0  0.00000000000E+00  0.00000000000E+00  0.74505805969E-08  0.10566000000E+00  0.10566000000E+00 0.  1.
     999900   -1    0    0    0    0 -0.00000000000E+00 -0.00000000000E+00 -0.74505805969E-08  0.93827000000E+00  0.93827000000E+00 0. -1.
     999903    2    1    2    0    0  0.48568716641E-01  0.65342630669E-01 -0.11762173206E+00  0.14456168584E+00  0.20847770682E-01 0.  0.
         14    1    1    2    0    0 -0.11922501607E-02 -0.53490025427E-02 -0.52017669800E-02  0.75559028820E-02  0.00000000000E+00 0. -1.
     999901    1    1    2    0    0 -0.47376466480E-01 -0.59993628127E-01  0.12282349904E+00  0.89181241128E+00  0.88000000000E+00 0.  1.
        -11    1    3    3    0    0  0.42998203888E-01  0.53027890471E-01 -0.83505689339E-01  0.10786224538E+00  0.51100000000E-03 0. -1.
         11    1    3    3    0    0  0.55705127524E-02  0.12314740198E-01 -0.34116042717E-01  0.36699440461E-01  0.51100000000E-03 0.  1.
</event>
<event>
 8    1  0.1143506E+005  0.1043930E+01  0.7957747E-01            NaN
         13   -1    0    0    0    0  0.00000000000E+00  0.00000000000E+00  0.74505805969E-08  0.10566000000E+00  0.10566000000E+00 0.  1.
     999900   -1    0    0    0    0 -0.00000000000E+00 -0.00000000000E+00 -0.74505805969E-08  0.93827000000E+00  0.93827000000E+00 0.  1.
     999902    2    1    2    0    0  0.14340436860E-01 -0.89460344698E-02 -0.18190681512E-01  0.10190989598E+01  0.10187964023E+01 0.  0.
     999903    2    3    3    0    0 -0.79679979256E-01 -0.36870620493E-01 -0.94393219141E-01  0.13037715415E+00  0.19487964347E-01 0.  0.
         14    1    1    2    0    0 -0.14340436860E-01  0.89460344698E-02  0.18190681512E-01  0.24831040170E-01  0.00000000000E+00 0.  1.
     999901    1    3    3    0    0  0.94020416115E-01  0.27924586023E-01  0.76202537629E-01  0.88872180568E+00  0.88000000000E+00 0. -1.
        -11    1    4    4    0    0 -0.38270000691E-01 -0.10017113264E-01 -0.51817560900E-01  0.65193989367E-01  0.51100000000E-03 0. -1.
         11    1    4    4    0    0 -0.41409978565E-01 -0.26853507229E-01 -0.42575658241E-01  0.65183164781E-01  0.51100000000E-03 0.  1.
</event>
<event>
 8    1  0.1143506E+005  0.1043930E+01  0.7957747E-01            NaN
         13   -1    0    0    0    0  0.00000000000E+00  0.00000000000E+00  0.74505805969E-08  0.10566000000E+00  0.10566000000E+00 0.  1.
     999900   -1    0    0    0    0 -0.00000000000E+00 -0.00000000000E+00 -0.74505805969E-08  0.93827000000E+00  0.93827000000E+00 0. -1.
     999902    2    1    2    0    0  0.14153866665E-01 -0.18619383865E-01 -0.42954166543E-03  0.10205377384E+01  0.10202696102E+01 0.  0.
     999903    2    3    3    0    0 -0.75572263664E-01 -0.96611122993E-01  0.43296108756E-01  0.13146776233E+00  0.19087780815E-01 0.  0.
         14    1    1    2    0    0 -0.14153866665E-01  0.18619383865E-01  0.42954166543E-03  0.23392261608E-01  0.00000000000E+00 0.  1.
     999901    1    3    3    0    0  0.89726130329E-01  0.77991739128E-01 -0.43725650421E-01  0.88906997607E+00  0.88000000000E+00 0. -1.
        -11    1    4    4    0    0 -0.23230559772E-01 -0.23185508694E-01  0.19605361138E-01  0.38234252014E-01  0.51100000000E-03 0. -1.
         11    1    4    4    0    0 -0.52341703892E-01 -0.73425614299E-01  0.23690747618E-01  0.93233510312E-01  0.51100000000E-03 0.  1.
</event>
<event>
 8    1  0.1143506E+005  0.1043930E+01  0.7957747E-01            NaN
         13   -1    0    0    0    0  0.00000000000E+00  0.00000000000E+00  0.74505805969E-08  0.10566000000E+00  0.10566000000E+00 0. -1.
     999900   -1    0    0    0    0 -0.00000000000E+00 -0.00000000000E+00 -0.74505805969E-08  0.93827000000E+00  0.93827000000E+00 0.  1.
     999902    2    1    2    0    0  0.35311072820E-02 -0.16067266099E-01 -0.94923389108E-02  0.10249370998E+01  0.10247611080E+01 0.  0.
     999903    2    3    3    0    0 -0.10032905458E+00 -0.32420307914E-01  0.80675602634E-01  0.13410343810E+00  0.18925741530E-01 0.  0.
         14    1    1    2    0    0 -0.35311072820E-02  0.16067266099E-01  0.94923389108E-02  0.18992900161E-01  0.00000000000E+00 0.  1.
     999901    1    3    3    0    0  0.10386016186E+00  0.16353041815E-01 -0.90167941544E-01  0.89083366174E+00  0.88000000000E+00 0.  1.
        -11    1    4    4    0    0 -0.48860875611E-01 -0.24018289018E-01  0.34582813648E-01  0.64501903023E-01  0.51100000000E-03 0. -1.
         11    1    4    4    0    0 -0.51468178971E-01 -0.84020188959E-02  0.46092788985E-01  0.69601535080E-01  0.51100000000E-03 0.  1.
</event>
<event>
 8    1  0.1143506E+005  0.1043930E+01  0.7957747E-01            NaN
         13   -1    0    0    0    0  0.00000000000E+00  0.00000000000E+00  0.74505805969E-08  0.10566000000E+00  0.10566000000E+00 0.  1.
     999900   -1    0    0    0    0 -0.00000000000E+00 -0.00000000000E+00 -0.74505805969E-08  0.93827000000E+00  0.93827000000E+00 0.  1.
     999902    2    1    2    0    0  0.21128670226E-01  0.14459293471E-02 -0.10019849716E-01  0.10205011971E+01  0.10202322209E+01 0.  0.
     999903    2    3    3    0    0  0.10698673787E+00 -0.71345033386E-01 -0.28476298282E-01  0.13313950504E+00  0.19466699006E-01 0.  0.
         14    1    1    2    0    0 -0.21128670226E-01 -0.14459293471E-02  0.10019849716E-01  0.23428802904E-01  0.00000000000E+00 0.  1.
     999901    1    3    3    0    0 -0.85858067641E-01  0.72790962733E-01  0.18456448566E-01  0.88736169206E+00  0.88000000000E+00 0. -1.
        -11    1    4    4    0    0  0.72810952937E-01 -0.48514091342E-01 -0.99661052286E-02  0.88060412791E-01  0.51100000000E-03 0.  1.
         11    1    4    4    0    0  0.34175784929E-01 -0.22830942044E-01 -0.18510193054E-01  0.45079092249E-01  0.51100000000E-03 0. -1.
</event>
<event>
 8    1  0.1143506E+005  0.1043930E+01  0.7957747E-01            NaN
         13   -1    0    0    0    0  0.00000000000E+00  0.00000000000E+00  0.74505805969E-08  0.10566000000E+00  0.10566000000E+00 0.  1.
     999900   -1    0    0    0    0 -0.00000000000E+00 -0.00000000000E+00 -0.74505805969E-08  0.93827000000E+00  0.93827000000E+00 0. -1.
     999902    2    1    2    0    0  0.16956722152E-01  0.35370286143E-02 -0.16558101054E-01  0.10199672850E+01  0.10196857608E+01 0.  0.
     999903    2    3    3    0    0 -0.58229593001E-01  0.32342836510E-01  0.10711656862E+00  0.12767911384E+00  0.19780097635E-01 0.  0.
         14    1    1    2    0    0 -0.16956722152E-01 -0.35370286143E-02  0.16558101054E-01  0.23962714956E-01  0.00000000000E+00 0.  1.
     999901    1    3    3    0    0  0.75186315153E-01 -0.28805807896E-01 -0.12367466968E+00  0.89228817121E+00  0.88000000000E+00 0.  1.
        -11    1    4    4    0    0 -0.31923573963E-01  0.21892189038E-01  0.44642019360E-01  0.59089369001E-01  0.51100000000E-03 0. -1.
         11    1    4    4    0    0 -0.26306019039E-01  0.10450647472E-01  0.62474549262E-01  0.68589744836E-01  0.51100000000E-03 0.  1.
</event>
<event>
 8    1  0.1143506E+005  0.1043930E+01  0.7957747E-01            NaN
         13   -1    0    0    0    0  0.00000000000E+00  0.00000000000E+00  0.74505805969E-08  0.10566000000E+00  0.10566000000E+00 0.  1.
     999900   -1    0    0    0    0 -0.00000000000E+00 -0.00000000000E+00 -0.74505805969E-08  0.93827000000E+00  0.93827000000E+00 0.  1.
     999902    2    1    2    0    0  0.18766957322E-01  0.96806781714E-02  0.10067713684E-01  0.10205361317E+01  0.10202679662E+01 0.  0.
     999903    2    3    3    0    0 -0.74124431614E-01 -0.87074949463E-01 -0.53651141015E-01  0.12809534704E+00  0.21295417686E-01 0.  0.
         14    1    1    2    0    0 -0.18766957322E-01 -0.96806781714E-02 -0.10067713684E-01  0.23393868338E-01  0.00000000000E+00 0. -1.
     999901    1    3    3    0    0  0.92891388936E-01  0.96755627634E-01  0.63718854698E-01  0.89244078462E+00  0.88000000000E+00 0.  1.
        -11    1    4    4    0    0 -0.37509235609E-01 -0.58881594777E-01 -0.27845198027E-01  0.75163828626E-01  0.51100000000E-03 0.  1.
         11    1    4    4    0    0 -0.36615196005E-01 -0.28193354686E-01 -0.25805942987E-01  0.52931518412E-01  0.51100000000E-03 0. -1.
</event>
<event>
 8    1  0.1143506E+005  0.1043930E+01  0.7957747E-01            NaN
         13   -1    0    0    0    0  0.00000000000E+00  0.00000000000E+00  0.74505805969E-08  0.10566000000E+00  0.10566000000E+00 0.  1.
     999900   -1    0    0    0    0 -0.00000000000E+00 -0.00000000000E+00 -0.74505805969E-08  0.93827000000E+00  0.93827000000E+00 0. -1.
     999902    2    1    2    0    0 -0.20970216559E-01  0.10733978522E-01 -0.70913664461E-02  0.10193280538E+01  0.10190311210E+01 0.  0.
     999903    2    3    3    0    0 -0.58335304674E-01  0.10732819643E-02 -0.11640684079E+00  0.13172490388E+00  0.19918283414E-01 0.  0.
         14    1    1    2    0    0  0.20970216559E-01 -0.10733978522E-01  0.70913664461E-02  0.24601946173E-01  0.00000000000E+00 0. -1.
     999901    1    3    3    0    0  0.37365088115E-01  0.96606965575E-02  0.10931547434E+00  0.88760314995E+00  0.88000000000E+00 0.  1.
        -11    1    4    4    0    0 -0.57083059581E-01  0.41098178589E-02 -0.10220043338E+00  0.11713477706E+00  0.51100000000E-03 0.  1.
         11    1    4    4    0    0 -0.12522450931E-02 -0.30365358946E-02 -0.14206407411E-01  0.14590126817E-01  0.51100000000E-03 0. -1.
</event>
<event>
 8    1  0.1143506E+005  0.1043930E+01  0.7957747E-01            NaN
         13   -1    0    0    0    0  0.00000000000E+00  0.00000000000E+00  0.74505805969E-08  0.10566000000E+00  0.10566000000E+00 0. -1.
     999900   -1    0    0    0    0 -0.00000000000E+00 -0.00000000000E+00 -0.74505805969E-08  0.93827000000E+00  0.93827000000E+00 0. -1.
     999902    2    1    2    0    0 -0.20255963112E-01  0.53230176728E-03 -0.11581486546E-01  0.10205908008E+01  0.10203239018E+01 0.  0.
     999903    2    3    3    0    0 -0.11353656836E+00  0.18621994558E-01  0.62710323027E-01  0.13236347562E+00  0.18712937415E-01 0.  0.
         14    1    1    2    0    0  0.20255963112E-01 -0.53230176728E-03  0.11581486546E-01  0.23339199159E-01  0.00000000000E+00 0.  1.
     999901    1    3    3    0    0  0.93280605252E-01 -0.18089692791E-01 -0.74291809572E-01  0.88822732522E+00  0.88000000000E+00 0. -1.
        -11    1    4    4    0    0 -0.42616682818E-01 -0.13446831593E-02  0.18883756195E-01  0.46635257009E-01  0.51100000000E-03 0. -1.
         11    1    4    4    0    0 -0.70919885546E-01  0.19966677717E-01  0.43826566831E-01  0.85728218611E-01  0.51100000000E-03 0.  1.
</event>
<event>
 8    1  0.1168941E+005  0.1043930E+01  0.7957747E-01            NaN
         13   -1    0    0    0    0  0.00000000000E+00  0.00000000000E+00  0.74505805969E-08  0.10566000000E+00  0.10566000000E+00 0. -1.
     999900   -1    0    0    0    0 -0.00000000000E+00 -0.00000000000E+00 -0.74505805969E-08  0.93827000000E+00  0.93827000000E+00 0. -1.
     999902    2    1    2    0    0 -0.18177919850E-01  0.14352663455E-01  0.50596832497E-02  0.10202226992E+01  0.10199472142E+01 0.  0.
     999903    2    3    3    0    0 -0.87134179163E-01  0.26436343284E-01 -0.93465190974E-01  0.13196140210E+00  0.19667849307E-01 0.  0.
         14    1    1    2    0    0  0.18177919850E-01 -0.14352663455E-01 -0.50596832497E-02  0.23707300836E-01  0.00000000000E+00 0.  1.
     999901    1    3    3    0    0  0.68956259313E-01 -0.12083679829E-01  0.98524874224E-01  0.88826129706E+00  0.88000000000E+00 0.  1.
        -11    1    4    4    0    0 -0.50580515631E-01  0.13579713741E-01 -0.39865883130E-01  0.65820566281E-01  0.51100000000E-03 0.  1.
         11    1    4    4    0    0 -0.36553663532E-01  0.12856629543E-01 -0.53599307844E-01  0.66140835822E-01  0.51100000000E-03 0. -1.
</event>
<event>
 8    1  0.1143506E+005  0.1043930E+01  0.7957747E-01            NaN
         13   -1    0    0    0    0  0.00000000000E+00  0.00000000000E+00  0.74505805969E-08  0.10566000000E+00  0.10566000000E+00 0.  1.
     999900   -1    0    0    0    0 -0.00000000000E+00 -0.00000000000E+00 -0.74505805969E-08  0.93827000000E+00  0.93827000000E+00 0. -1.
     999902    2    1    2    0    0 -0.11404386374E-01 -0.21678706222E-01  0.36372198187E-02  0.10191659999E+01  0.10188650940E+01 0.  0.
     999903    2    3    3    0    0 -0.69579487409E-01  0.98513694129E-01 -0.37500431320E-01  0.12814250874E+00  0.21632549530E-01 0.  0.
         14    1    1    2    0    0  0.11404386374E-01  0.21678706222E-01 -0.36372198187E-02  0.24764000082E-01  0.00000000000E+00 0.  1.
     999901    1    3    3    0    0  0.58175101035E-01 -0.12019240035E+00  0.41137651139E-01  0.89102349117E+00  0.88000000000E+00 0.  1.
        -11    1    4    4    0    0 -0.19101347315E-01  0.43909670706E-01 -0.18950078703E-01  0.51500361694E-01  0.51100000000E-03 0.  1.
         11    1    4    4    0    0 -0.50478140094E-01  0.54604023423E-01 -0.18550352617E-01  0.76642147051E-01  0.51100000000E-03 0. -1.
</event>
<event>
 8    1  0.1143506E+005  0.1043930E+01  0.7957747E-01            NaN
         13   -1    0    0    0    0  0.00000000000E+00  0.00000000000E+00  0.74505805969E-08  0.10566000000E+00  0.10566000000E+00 0. -1.
     999900   -1    0    0    0    0 -0.00000000000E+00 -0.00000000000E+00 -0.74505805969E-08  0.93827000000E+00  0.93827000000E+00 0.  1.
     999902    2    1    2    0    0  0.43538057415E-02  0.19650122222E-01 -0.10972801489E-01  0.10210065339E+01  0.10207491645E+01 0.  0.
     999903    2    3    3    0    0 -0.12541157059E+00  0.28866311628E-01  0.13880150778E-01  0.13109549320E+00  0.20785662490E-01 0.  0.
         14    1    1    2    0    0 -0.43538057415E-02 -0.19650122222E-01  0.10972801489E-01  0.22923466149E-01  0.00000000000E+00 0. -1.
     999901    1    3    3    0    0  0.12976537633E+00 -0.92161894060E-02 -0.24852952267E-01  0.88991104065E+00  0.88000000000E+00 0.  1.
        -11    1    4    4    0    0 -0.11546088756E+00  0.20986009158E-01  0.98418468091E-02  0.11776566650E+00  0.51100000000E-03 0. -1.
         11    1    4    4    0    0 -0.99506830368E-02  0.78803024694E-02  0.40383039691E-02  0.13329826700E-01  0.51100000000E-03 0.  1.
</event>
<event>
 8    1  0.1143506E+005  0.1043930E+01  0.7957747E-01            NaN
         13   -1    0    0    0    0  0.00000000000E+00  0.00000000000E+00  0.74505805969E-08  0.10566000000E+00  0.10566000000E+00 0.  1.
     999900   -1    0    0    0    0 -0.00000000000E+00 -0.00000000000E+00 -0.74505805969E-08  0.93827000000E+00  0.93827000000E+00 0. -1.
     999902    2    1    2    0    0 -0.69144236513E-02  0.64357787572E-02  0.22004164537E-01  0.10199839824E+01  0.10197028550E+01 0.  0.
     999903    2    3    3    0    0  0.82503329714E-01 -0.49844764996E-01 -0.81417445426E-01  0.12765048888E+00  0.19353213700E-01 0.  0.
         14    1    1    2    0    0  0.69144236513E-02 -0.64357787572E-02 -0.22004164537E-01  0.23946017615E-01  0.00000000000E+00 0. -1.
     999901    1    3    3    0    0 -0.89417753365E-01  0.56280543753E-01  0.10342160996E+00  0.89233349350E+00  0.88000000000E+00 0.  1.
        -11    1    4    4    0    0  0.35135274163E-01 -0.14527041816E-01 -0.22366573120E-01  0.44114024397E-01  0.51100000000E-03 0.  1.
         11    1    4    4    0    0  0.47368055551E-01 -0.35317723181E-01 -0.59050872306E-01  0.83536464484E-01  0.51100000000E-03 0. -1.
</event>
<event>
 8    1  0.1143506E+005  0.1043930E+01  0.7957747E-01            NaN
         13   -1    0    0    0    0  0.00000000000E+00  0.00000000000E+00  0.74505805969E-08  0.10566000000E+00  0.10566000000E+00 0.  1.
     999900   -1    0    0    0    0 -0.00000000000E+00 -0.00000000000E+00 -0.74505805969E-08  0.93827000000E+00  0.93827000000E+00 0. -1.
     999902    2    1    2    0    0 -0.21241462996E-01  0.41678680096E-02  0.12516353842E-01  0.10189254007E+01  0.10186185459E+01 0.  0.
     999903    2    3    3    0    0 -0.12144322146E+00  0.18393344855E-01  0.45483148167E-01  0.13251152098E+00  0.20095154943E-01 0.  0.
         14    1    1    2    0    0  0.21241462996E-01 -0.41678680096E-02 -0.12516353842E-01  0.25004599326E-01  0.00000000000E+00 0. -1.
     999901    1    3    3    0    0  0.10020175846E+00 -0.14225476846E-01 -0.32966794324E-01  0.88641387970E+00  0.88000000000E+00 0. -1.
        -11    1    4    4    0    0 -0.96244316628E-01  0.22148991191E-01  0.32943342993E-01  0.10411086044E+00  0.51100000000E-03 0. -1.
         11    1    4    4    0    0 -0.25198904828E-01 -0.37556463359E-02  0.12539805174E-01  0.28400660533E-01  0.51100000000E-03 0.  1.
</event>
<event>
 8    1  0.1143506E+005  0.1043930E+01  0.7957747E-01            NaN
         13   -1    0    0    0    0  0.00000000000E+00  0.00000000000E+00  0.74505805969E-08  0.10566000000E+00  0.10566000000E+00 0. -1.
     999900   -1    0    0    0    0 -0.00000000000E+00 -0.00000000000E+00 -0.74505805969E-08  0.93827000000E+00  0.93827000000E+00 0.  1.
     999902    2    1    2    0    0  0.61615412508E-02 -0.21097558257E-01  0.89617846994E-02  0.10201942645E+01  0.10199181105E+01 0.  0.
     999903    2    3    3    0    0 -0.11546821879E+00  0.38741981122E-01 -0.36404678310E-01  0.12866037004E+00  0.19857984867E-01 0.  0.
         14    1    1    2    0    0 -0.61615412508E-02  0.21097558257E-01 -0.89617846994E-02  0.23735735506E-01  0.00000000000E+00 0. -1.
     999901    1    3    3    0    0  0.12162976004E+00 -0.59839539380E-01  0.45366463010E-01  0.89153389446E+00  0.88000000000E+00 0. -1.
        -11    1    4    4    0    0 -0.85280024685E-01  0.29097564539E-01 -0.17616533681E-01  0.91814782319E-01  0.51100000000E-03 0.  1.
         11    1    4    4    0    0 -0.30188194106E-01  0.96444165830E-02 -0.18788144629E-01  0.36845587717E-01  0.51100000000E-03 0. -1.
</event>
<event>
 8    1  0.1143506E+005  0.1043930E+01  0.7957747E-01            NaN
         13   -1    0    0    0    0  0.00000000000E+00  0.00000000000E+00  0.74505805969E-08  0.10566000000E+00  0.10566000000E+00 0. -1.
     999900   -1    0    0    0    0 -0.00000000000E+00 -0.00000000000E+00 -0.74505805969E-08  0.93827000000E+00  0.93827000000E+00 0. -1.
     999902    2    1    2    0    0  0.15590311210E-01 -0.96761903184E-03  0.44604732956E-02  0.10276853113E+01  0.10275569128E+01 0.  0.
     999903    2    3    3    0    0 -0.10544408266E+00  0.46419494168E-01  0.70687380043E-01  0.13567585718E+00  0.11747702621E-01 0.  0.
         14    1    1    2    0    0 -0.15590311210E-01  0.96761903184E-03 -0.44604732956E-02  0.16244688739E-01  0.00000000000E+00 0. -1.
     999901    1    3    3    0    0  0.12103439387E+00 -0.47387113200E-01 -0.66226906748E-01  0.89200945408E+00  0.88000000000E+00 0.  1.
        -11    1    4    4    0    0 -0.59148925406E-01  0.32343109418E-01  0.41269974065E-01  0.79045202156E-01  0.51100000000E-03 0.  1.
         11    1    4    4    0    0 -0.46295157253E-01  0.14076384750E-01  0.29417405978E-01  0.56630655022E-01  0.51100000000E-03 0. -1.
</event>
<event>
 8    1  0.1143506E+005  0.1043930E+01  0.7957747E-01            NaN
         13   -1    0    0    0    0  0.00000000000E+00  0.00000000000E+00  0.74505805969E-08  0.10566000000E+00  0.10566000000E+00 0. -1.
     999900   -1    0    0    0    0 -0.00000000000E+00 -0.00000000000E+00 -0.74505805969E-08  0.93827000000E+00  0.93827000000E+00 0.  1.
     999902    2    1    2    0    0  0.20608058922E-01  0.12358162927E-02  0.10595148406E-01  0.10207249035E+01  0.10204610978E+01 0.  0.
     999903    2    3    3    0    0 -0.78863954585E-01  0.50596203551E-01 -0.86136049422E-01  0.12848723676E+00  0.17608289317E-01 0.  0.
         14    1    1    2    0    0 -0.20608058922E-01 -0.12358162927E-02 -0.10595148406E-01  0.23205096513E-01  0.00000000000E+00 0.  1.
     999901    1    3    3    0    0  0.99472013506E-01 -0.49360387258E-01  0.96731197828E-01  0.89223766673E+00  0.88000000000E+00 0. -1.
        -11    1    4    4    0    0 -0.13194341340E-01  0.78502906422E-02 -0.62433961828E-02  0.16581882386E-01  0.51100000000E-03 0.  1.
         11    1    4    4    0    0 -0.65669613245E-01  0.42745912908E-01 -0.79892653239E-01  0.11190535437E+00  0.51100000000E-03 0. -1.
</event>
<event>
 8    1  0.1143506E+005  0.1043930E+01  0.7957747E-01            NaN
         13   -1    0    0    0    0  0.00000000000E+00  0.00000000000E+00  0.74505805969E-08  0.10566000000E+00  0.10566000000E+00 0.  1.
     999900   -1    0    0    0    0 -0.00000000000E+00 -0.00000000000E+00 -0.74505805969E-08  0.93827000000E+00  0.93827000000E+00 0. -1.
     999902    2    1    2    0    0 -0.12002835090E-01 -0.10765890938E-01  0.17483689794E-01  0.10201465632E+01  0.10198692850E+01 0.  0.
     999903    2    3    3    0    0  0.61854424298E-01  0.84356350543E-01  0.74739700109E-01  0.13010084172E+00  0.19956015650E-01 0.  0.
         14    1    1    2    0    0  0.12002835090E-01  0.10765890938E-01 -0.17483689794E-01  0.23783436814E-01  0.00000000000E+00 0. -1.
     999901    1    3    3    0    0 -0.73857259389E-01 -0.95122241481E-01 -0.57256010315E-01  0.89004572147E+00  0.88000000000E+00 0.  1.
        -11    1    4    4    0    0  0.36907213403E-01  0.44281562260E-01  0.29678317426E-01  0.64838744618E-01  0.51100000000E-03 0. -1.
         11    1    4    4    0    0  0.24947210895E-01  0.40074788283E-01  0.45061382683E-01  0.65262097098E-01  0.51100000000E-03 0.  1.
</event>
<event>
 8    1  0.1143506E+005  0.1043930E+01  0.7957747E-01            NaN
         13   -1    0    0    0    0  0.00000000000E+00  0.00000000000E+00  0.74505805969E-08  0.10566000000E+00  0.10566000000E+00 0.  1.
     999900   -1    0    0    0    0 -0.00000000000E+00 -0.00000000000E+00 -0.74505805969E-08  0.93827000000E+00  0.93827000000E+00 0.  1.
     999902    2    1    2    0    0 -0.40838085988E-02  0.10380359824E-01  0.21321188673E-01  0.10198671147E+01  0.10195832037E+01 0.  0.
     999903    2    3    3    0    0  0.39571799140E-01 -0.11850666663E+00  0.26122814189E-01  0.12939491789E+00  0.21234077139E-01 0.  0.
         14    1    1    2    0    0  0.40838085988E-02 -0.10380359824E-01 -0.21321188673E-01  0.24062885305E-01  0.00000000000E+00 0. -1.
     999901    1    3    3    0    0 -0.43655607739E-01  0.12888702645E+00 -0.48016255159E-02  0.89047219681E+00  0.88000000000E+00 0.  1.
        -11    1    4    4    0    0  0.26181357762E-01 -0.45497965209E-01  0.11477736412E-01  0.53735722630E-01  0.51100000000E-03 0.  1.
         11    1    4    4    0    0  0.13390441379E-01 -0.73008701420E-01  0.14645077777E-01  0.75659195260E-01  0.51100000000E-03 0. -1.
</event>
<event>
 8    1  0.1143506E+005  0.1043930E+01  0.7957747E-01            NaN
         13   -1    0    0    0    0  0.00000000000E+00  0.00000000000E+00  0.74505805969E-08  0.10566000000E+00  0.10566000000E+00 0. -1.
     999900   -1    0    0    0    0 -0.00000000000E+00 -0.00000000000E+00 -0.74505805969E-08  0.93827000000E+00  0.93827000000E+00 0. -1.
     999902    2    1    2    0    0 -0.88872981354E-02  0.17038523346E-01 -0.13944983848E-01  0.10201864131E+01  0.10199100742E+01 0.  0.
     999903    2    3    3    0    0  0.97619412599E-01  0.48481709392E-01  0.64059751394E-01  0.12978364347E+00  0.29327742885E-01 0.  0.
         14    1    1    2    0    0  0.88872981354E-02 -0.17038523346E-01  0.13944983848E-01  0.23743586934E-01  0.00000000000E+00 0. -1.
     999901    1    3    3    0    0 -0.10650671073E+00 -0.31443186046E-01 -0.78004735242E-01  0.89040276959E+00  0.88000000000E+00 0. -1.
        -11    1    4    4    0    0  0.17741837864E-01  0.51490079059E-02 -0.20242637623E-03  0.18482077552E-01  0.51100000000E-03 0. -1.
         11    1    4    4    0    0  0.79877574734E-01  0.43332701486E-01  0.64262177770E-01  0.11130156592E+00  0.51100000000E-03 0.  1.
</event>
<event>
 8    1  0.1143506E+005  0.1043930E+01  0.7957747E-01            NaN
         13   -1    0    0    0    0  0.00000000000E+00  0.00000000000E+00  0.74505805969E-08  0.10566000000E+00  0.10566000000E+00 0.  1.
     999900   -1    0    0    0    0 -0.00000000000E+00 -0.00000000000E+00 -0.74505805969E-08  0.93827000000E+00  0.93827000000E+00 0. -1.
     999902    2    1    2    0    0  0.11255122001E-01 -0.16891737991E-01  0.13173828201E-01  0.10197316874E+01  0.10194445330E+01 0.  0.
     999903    2    3    3    0    0 -0.57582673389E-01 -0.10305800045E+00  0.53515065560E-01  0.13193064983E+00  0.24599154311E-01 0.  0.
         14    1    1    2    0    0 -0.11255122001E-01  0.16891737991E-01 -0.13173828201E-01  0.24198312608E-01  0.00000000000E+00 0. -1.
     999901    1    3    3    0    0  0.68837795390E-01  0.86166262455E-01 -0.40341237359E-01  0.88780103756E+00  0.88000000000E+00 0.  1.
        -11    1    4    4    0    0 -0.35912543049E-02 -0.27409523981E-01  0.12229794608E-01  0.30232567035E-01  0.51100000000E-03 0.  1.
         11    1    4    4    0    0 -0.53991419084E-01 -0.75648476465E-01  0.41285270952E-01  0.10169808280E+00  0.51100000000E-03 0. -1.
</event>
<event>
 8    1  0.1143506E+005  0.1043930E+01  0.7957747E-01            NaN
         13   -1    0    0    0    0  0.00000000000E+00  0.00000000000E+00  0.74505805969E-08  0.10566000000E+00  0.10566000000E+00 0. -1.
     999900   -1    0    0    0    0 -0.00000000000E+00 -0.00000000000E+00 -0.74505805969E-08  0.93827000000E+00  0.93827000000E+00 0.  1.
     999902    2    1    2    0    0 -0.23779702981E-01  0.39956666897E-02 -0.27322399216E-03  0.10198153929E+01  0.10195302454E+01 0.  0.
     999903    2    3    3    0    0  0.11216344454E+00  0.49505852306E-01 -0.29808005675E-01  0.12772570024E+00  0.19846148100E-01 0.  0.
         14    1    1    2    0    0  0.23779702981E-01 -0.39956666897E-02  0.27322399216E-03  0.24114607140E-01  0.00000000000E+00 0.  1.
     999901    1    3    3    0    0 -0.13594314752E+00 -0.45510185616E-01  0.29534781683E-01  0.89208969262E+00  0.88000000000E+00 0. -1.
        -11    1    4    4    0    0  0.91481844276E-01  0.39547897654E-01 -0.16022437028E-01  0.10094525076E+00  0.51100000000E-03 0. -1.
         11    1    4    4    0    0  0.20681600268E-01  0.99579546517E-02 -0.13785568647E-01  0.26780449481E-01  0.51100000000E-03 0.  1.
</event>
<event>
 8    1  0.1143506E+005  0.1043930E+01  0.7957747E-01            NaN
         13   -1    0    0    0    0  0.00000000000E+00  0.00000000000E+00  0.74505805969E-08  0.10566000000E+00  0.10566000000E+00 0. -1.
     999900   -1    0    0    0    0 -0.00000000000E+00 -0.00000000000E+00 -0.74505805969E-08  0.93827000000E+00  0.93827000000E+00 0. -1.
     999902    2    1    2    0    0  0.42993688844E-02  0.12024491195E-01  0.19667259900E-01  0.10204806061E+01  0.10202111514E+01 0.  0.
     999903    2    3    3    0    0 -0.80115515075E-01  0.82637498949E-01  0.62856649572E-01  0.13257442139E+00  0.19431078822E-01 0.  0.
         14    1    1    2    0    0 -0.42993688844E-02 -0.12024491195E-01 -0.19667259900E-01  0.23449393878E-01  0.00000000000E+00 0. -1.
     999901    1    3    3    0    0  0.84414883959E-01 -0.70613007754E-01 -0.43189389672E-01  0.88790618473E+00  0.88000000000E+00 0. -1.
        -11    1    4    4    0    0 -0.36303843950E-01  0.48570724090E-01  0.26184031353E-01  0.66052622530E-01  0.51100000000E-03 0.  1.
         11    1    4    4    0    0 -0.43811671125E-01  0.34066774859E-01  0.36672618219E-01  0.66521798864E-01  0.51100000000E-03 0. -1.
</event>
<event>
 8    1  0.1143506E+005  0.1043930E+01  0.7957747E-01            NaN
         13   -1    0    0    0    0  0.00000000000E+00  0.00000000000E+00  0.74505805969E-08  0.10566000000E+00  0.10566000000E+00 0. -1.
     999900   -1    0    0    0    0 -0.00000000000E+00 -0.00000000000E+00 -0.74505805969E-08  0.93827000000E+00  0.93827000000E+00 0.  1.
     999902    2    1    2    0    0  0.66793125010E-02 -0.24847822174E-01  0.10465590259E-01  0.10161531020E+01  0.10157733855E+01 0.  0.
     999903    2    3    3    0    0  0.19469515110E-01 -0.11126941463E+00  0.61758837027E-01  0.13034088823E+00  0.20362920757E-01 0.  0.
         14    1    1    2    0    0 -0.66793125010E-02  0.24847822174E-01 -0.10465590259E-01  0.27776897987E-01  0.00000000000E+00 0.  1.
     999901    1    3    3    0    0 -0.12790202609E-01  0.86421592460E-01 -0.51293246768E-01  0.88581221378E+00  0.88000000000E+00 0. -1.
        -11    1    4    4    0    0 -0.23963966647E-02 -0.24869886163E-01  0.79141522364E-02  0.26213524779E-01  0.51100000000E-03 0.  1.
         11    1    4    4    0    0  0.21865911775E-01 -0.86399528471E-01  0.53844684791E-01  0.10412736345E+00  0.51100000000E-03 0. -1.
</event>
<event>
 8    1  0.1143506E+005  0.1043930E+01  0.7957747E-01            NaN
         13   -1    0    0    0    0  0.00000000000E+00  0.00000000000E+00  0.74505805969E-08  0.10566000000E+00  0.10566000000E+00 0.  1.
     999900   -1    0    0    0    0 -0.00000000000E+00 -0.00000000000E+00 -0.74505805969E-08  0.93827000000E+00  0.93827000000E+00 0. -1.
     999902    2    1    2    0    0 -0.25389125499E-02  0.22357613011E-01  0.10737547231E-01  0.10189980154E+01  0.10186929623E+01 0.  0.
     999903    2    3    3    0    0 -0.16001855752E-01 -0.85582349944E-01 -0.89451285793E-01  0.12665834423E+00  0.21457064674E-01 0.  0.
         14    1    1    2    0    0  0.25389125499E-02 -0.22357613011E-01 -0.10737547231E-01  0.24931984618E-01  0.00000000000E+00 0. -1.
     999901    1    3    3    0    0  0.13462943202E-01  0.10793996295E+00  0.10018883302E+00  0.89233967115E+00  0.88000000000E+00 0. -1.
        -11    1    4    4    0    0 -0.66702349428E-02 -0.40189219592E-01 -0.57073003948E-01  0.70123136740E-01  0.51100000000E-03 0. -1.
         11    1    4    4    0    0 -0.93316208091E-02 -0.45393130352E-01 -0.32378281846E-01  0.56535207493E-01  0.51100000000E-03 0.  1.
</event>
<event>
 8    1  0.1143506E+005  0.1043930E+01  0.7957747E-01            NaN
         13   -1    0    0    0    0  0.00000000000E+00  0.00000000000E+00  0.74505805969E-08  0.10566000000E+00  0.10566000000E+00 0.  1.
     999900   -1    0    0    0    0 -0.00000000000E+00 -0.00000000000E+00 -0.74505805969E-08  0.93827000000E+00  0.93827000000E+00 0. -1.
     999902    2    1    2    0    0  0.19470773363E-01  0.12865046514E-01  0.72329009658E-02  0.10194977407E+01  0.10192049392E+01 0.  0.
     999903    2    3    3    0    0  0.36237256335E-01 -0.11613894854E-01  0.12351023162E+00  0.13135318540E+00  0.23470421812E-01 0.  0.
         14    1    1    2    0    0 -0.19470773363E-01 -0.12865046514E-01 -0.72329009658E-02  0.24432259280E-01  0.00000000000E+00 0. -1.
     999901    1    3    3    0    0 -0.16766482972E-01  0.24478941368E-01 -0.11627733065E+00  0.88814455532E+00  0.88000000000E+00 0. -1.
        -11    1    4    4    0    0  0.28452827723E-01  0.11426589258E-02  0.65060592701E-01  0.71021200486E-01  0.51100000000E-03 0.  1.
         11    1    4    4    0    0  0.77844286117E-02 -0.12756553779E-01  0.58449638917E-01  0.60331984914E-01  0.51100000000E-03 0. -1.
</event>
<event>
 8    1  0.1143506E+005  0.1043930E+01  0.7957747E-01            NaN
         13   -1    0    0    0    0  0.00000000000E+00  0.00000000000E+00  0.74505805969E-08  0.10566000000E+00  0.10566000000E+00 0.  1.
     999900   -1    0    0    0    0 -0.00000000000E+00 -0.00000000000E+00 -0.74505805969E-08  0.93827000000E+00  0.93827000000E+00 0.  1.
     999902    2    1    2    0    0 -0.37050332009E-02  0.21441415424E-01 -0.11523464391E-02  0.10221403357E+01  0.10219080568E+01 0.  0.
     999903    2    3    3    0    0 -0.11293179116E+00 -0.63249590196E-01  0.11471233026E-01  0.13126301206E+00  0.18555027137E-01 0.  0.
         14    1    1    2    0    0  0.37050332009E-02 -0.21441415424E-01  0.11523464391E-02  0.21789664264E-01  0.00000000000E+00 0. -1.
     999901    1    3    3    0    0  0.10922675796E+00  0.84691005620E-01 -0.12623579465E-01  0.89087732368E+00  0.88000000000E+00 0.  1.
        -11    1    4    4    0    0 -0.99722672919E-01 -0.48435332492E-01  0.10922215726E-01  0.11140084760E+00  0.51100000000E-03 0. -1.
         11    1    4    4    0    0 -0.13209118243E-01 -0.14814257704E-01  0.54901729985E-03  0.19862164461E-01  0.51100000000E-03 0.  1.
</event>
<event>
 8    1  0.1143506E+005  0.1043930E+01  0.7957747E-01            NaN
         13   -1    0    0    0    0  0.00000000000E+00  0.00000000000E+00  0.74505805969E-08  0.10566000000E+00  0.10566000000E+00 0. -1.
     999900   -1    0    0    0    0 -0.00000000000E+00 -0.00000000000E+00 -0.74505805969E-08  0.93827000000E+00  0.93827000000E+00 0.  1.
     999902    2    1    2    0    0 -0.16849018591E-01  0.54971800159E-02 -0.17947913820E-01  0.10187062805E+01  0.10183939561E+01 0.  0.
     999903    2    3    3    0    0 -0.79763660066E-01  0.86412918276E-01 -0.56324292351E-01  0.13192651344E+00  0.20068510857E-01 0.  0.
         14    1    1    2    0    0  0.16849018591E-01 -0.54971800159E-02  0.17947913820E-01  0.25223719513E-01  0.00000000000E+00 0. -1.
     999901    1    3    3    0    0  0.62914641475E-01 -0.80915738260E-01  0.38376378531E-01  0.88677976704E+00  0.88000000000E+00 0.  1.
        -11    1    4    4    0    0 -0.66681352665E-01  0.81498724578E-01 -0.50308921524E-01  0.11670344299E+00  0.51100000000E-03 0.  1.
         11    1    4    4    0    0 -0.13082307401E-01  0.49141936984E-02 -0.60153708277E-02  0.15223070447E-01  0.51100000000E-03 0. -1.
</event>
<event>
 8    1  0.1143506E+005  0.1043930E+01  0.7957747E-01            NaN
         13   -1    0    0    0    0  0.00000000000E+00  0.00000000000E+00  0.74505805969E-08  0.10566000000E+00  0.10566000000E+00 0. -1.
     999900   -1    0    0    0    0 -0.00000000000E+00 -0.00000000000E+00 -0.74505805969E-08  0.93827000000E+00  0.93827000000E+00 0. -1.
     999902    2    1    2    0    0  0.14675892261E-01 -0.93417032507E-02  0.16438968230E-01  0.10199949021E+01  0.10197140342E+01 0.  0.
     999903    2    3    3    0    0  0.33339321124E-01  0.12151029323E+00 -0.21063693293E-01  0.12933390143E+00  0.20182100714E-01 0.  0.
         14    1    1    2    0    0 -0.14675892261E-01  0.93417032507E-02 -0.16438968230E-01  0.23935097864E-01  0.00000000000E+00 0. -1.
     999901    1    3    3    0    0 -0.18663428862E-01 -0.13085199648E+00  0.37502661523E-01  0.89066100071E+00  0.88000000000E+00 0. -1.
        -11    1    4    4    0    0  0.10225208244E-01  0.67925537496E-01 -0.53776059645E-02  0.68902926605E-01  0.51100000000E-03 0.  1.
         11    1    4    4    0    0  0.23114112879E-01  0.53584755735E-01 -0.15686087328E-01  0.60430974823E-01  0.51100000000E-03 0. -1.
</event>
<event>
 8    1  0.1143506E+005  0.1043930E+01  0.7957747E-01            NaN
         13   -1    0    0    0    0  0.00000000000E+00  0.00000000000E+00  0.74505805969E-08  0.10566000000E+00  0.10566000000E+00 0.  1.
     999900   -1    0    0    0    0 -0.00000000000E+00 -0.00000000000E+00 -0.74505805969E-08  0.93827000000E+00  0.93827000000E+00 0. -1.
     999902    2    1    2    0    0 -0.19437758307E-01 -0.13986949068E-01 -0.13512432185E-02  0.10199448577E+01  0.10196628000E+01 0.  0.
     999903    2    3    3    0    0  0.28354997002E-01  0.99997833175E-02  0.12383909966E+00  0.12947749013E+00  0.22897517868E-01 0.  0.
         14    1    1    2    0    0  0.19437758307E-01  0.13986949068E-01  0.13512432185E-02  0.23985142286E-01  0.00000000000E+00 0.  1.
     999901    1    3    3    0    0 -0.47792755309E-01 -0.23986732386E-01 -0.12519034287E+00  0.89046736759E+00  0.88000000000E+00 0. -1.
        -11    1    4    4    0    0  0.64029408349E-02 -0.68057034016E-02  0.44046198138E-01  0.45029367545E-01  0.51100000000E-03 0.  1.
         11    1    4    4    0    0  0.21952056167E-01  0.16805486719E-01  0.79792901518E-01  0.84448122581E-01  0.51100000000E-03 0. -1.
</event>
<event>
 7    1  0.1143506E+005  0.1043930E+01  0.7957747E-01            NaN
         13   -1    0    0    0    0  0.00000000000E+00  0.00000000000E+00  0.74505805969E-08  0.10566000000E+00  0.10566000000E+00 0. -1.
     999900   -1    0    0    0    0 -0.00000000000E+00 -0.00000000000E+00 -0.74505805969E-08  0.93827000000E+00  0.93827000000E+00 0. -1.
     999902    2    1    2    0    0  0.22635799330E-01 -0.13657445660E-02  0.90210983640E-02  0.10195245726E+01  0.10192324216E+01 0.  0.
         14    1    1    2    0    0 -0.22635799330E-01  0.13657445660E-02 -0.90210983640E-02  0.24405427373E-01  0.00000000000E+00 0. -1.
     999901    1    3    3    0    0 -0.32181241499E-01  0.62960952703E-01 -0.92148871308E-01  0.88763231597E+00  0.88000000000E+00 0. -1.
        -11    1    3    3    0    0  0.14745930611E-01 -0.14933689359E-01  0.26339396362E-01  0.33682079348E-01  0.51100000000E-03 0. -1.
         11    1    3    3    0    0  0.40071110218E-01 -0.49393007909E-01  0.74830573310E-01  0.98210177310E-01  0.51100000000E-03 0.  1.
</event>
<event>
 8    1  0.1143506E+005  0.1043930E+01  0.7957747E-01            NaN
         13   -1    0    0    0    0  0.00000000000E+00  0.00000000000E+00  0.74505805969E-08  0.10566000000E+00  0.10566000000E+00 0.  1.
     999900   -1    0    0    0    0 -0.00000000000E+00 -0.00000000000E+00 -0.74505805969E-08  0.93827000000E+00  0.93827000000E+00 0.  1.
     999902    2    1    2    0    0 -0.18385724964E-01  0.55039108480E-02  0.13211414332E-01  0.10206304424E+01  0.10203644596E+01 0.  0.
     999903    2    3    3    0    0  0.10724907203E+00  0.49395111598E-01 -0.46956386164E-01  0.12859305306E+00  0.19723858428E-01 0.  0.
         14    1    1    2    0    0  0.18385724964E-01 -0.55039108480E-02 -0.13211414332E-01  0.23299557630E-01  0.00000000000E+00 0.  1.
     999901    1    3    3    0    0 -0.12563479699E+00 -0.43891200751E-01  0.60167800496E-01  0.89203738931E+00  0.88000000000E+00 0. -1.
        -11    1    4    4    0    0  0.33102045715E-01  0.15634845789E-01 -0.24598542561E-01  0.44108312714E-01  0.51100000000E-03 0. -1.
         11    1    4    4    0    0  0.74147026316E-01  0.33760265809E-01 -0.22357843603E-01  0.84484740341E-01  0.51100000000E-03 0.  1.
</event>
<event>
 8    1  0.1143506E+005  0.1043930E+01  0.7957747E-01            NaN
         13   -1    0    0    0    0  0.00000000000E+00  0.00000000000E+00  0.74505805969E-08  0.10566000000E+00  0.10566000000E+00 0. -1.
     999900   -1    0    0    0    0 -0.00000000000E+00 -0.00000000000E+00 -0.74505805969E-08  0.93827000000E+00  0.93827000000E+00 0. -1.
     999902    2    1    2    0    0 -0.53379243472E-02  0.76179655992E-03  0.22747282382E-01  0.10205523905E+01  0.10202846020E+01 0.  0.
     999903    2    3    3    0    0 -0.78330557787E-01  0.73113209224E-02 -0.10030622219E+00  0.12897346197E+00  0.19587853011E-01 0.  0.
         14    1    1    2    0    0  0.53379243472E-02 -0.76179655992E-03 -0.22747282382E-01  0.23377609503E-01  0.00000000000E+00 0.  1.
     999901    1    3    3    0    0  0.72992633440E-01 -0.65495243625E-02  0.12305350457E+00  0.89157892853E+00  0.88000000000E+00 0.  1.
        -11    1    4    4    0    0 -0.54108617357E-01  0.13935799132E-01 -0.66521680345E-01  0.86875451346E-01  0.51100000000E-03 0. -1.
         11    1    4    4    0    0 -0.24221940430E-01 -0.66244782101E-02 -0.33784541845E-01  0.42098010624E-01  0.51100000000E-03 0.  1.
</event>
<event>
 8    1  0.1143506E+005  0.1043930E+01  0.7957747E-01            NaN
         13   -1    0    0    0    0  0.00000000000E+00  0.00000000000E+00  0.74505805969E-08  0.10566000000E+00  0.10566000000E+00 0. -1.
     999900   -1    0    0    0    0 -0.00000000000E+00 -0.00000000000E+00 -0.74505805969E-08  0.93827000000E+00  0.93827000000E+00 0. -1.
     999902    2    1    2    0    0  0.82160260925E-02 -0.13823335858E-02 -0.22250764241E-01  0.10201705716E+01  0.10198938595E+01 0.  0.
     999903    2    3    3    0    0  0.10227773781E+00  0.77327786460E-01  0.16738515150E-01  0.13080953546E+00  0.19764474913E-01 0.  0.
         14    1    1    2    0    0 -0.82160260925E-02  0.13823335858E-02  0.22250764241E-01  0.23759428449E-01  0.00000000000E+00 0. -1.
     999901    1    3    3    0    0 -0.94061711714E-01 -0.78710120045E-01 -0.38989279391E-01  0.88936103609E+00  0.88000000000E+00 0. -1.
        -11    1    4    4    0    0  0.58886207668E-01  0.32242910092E-01  0.98341206911E-02  0.67853973764E-01  0.51100000000E-03 0. -1.
         11    1    4    4    0    0  0.43391530138E-01  0.45084876367E-01  0.69043944587E-02  0.62955561697E-01  0.51100000000E-03 0.  1.
</event>
<event>
 8    1  0.1143506E+005  0.1043930E+01  0.7957747E-01            NaN
         13   -1    0    0    0    0  0.00000000000E+00  0.00000000000E+00  0.74505805969E-08  0.10566000000E+00  0.10566000000E+00 0.  1.
     999900   -1    0    0    0    0 -0.00000000000E+00 -0.00000000000E+00 -0.74505805969E-08  0.93827000000E+00  0.93827000000E+00 0. -1.
     999902    2    1    2    0    0 -0.15942222685E-01 -0.14346199022E-01  0.92691871351E-02  0.10205658026E+01  0.10202983249E+01 0.  0.
     999903    2    3    3    0    0 -0.59145001836E-01  0.20151509155E-01 -0.11285941930E+00  0.13041302441E+00  0.19133579030E-01 0.  0.
         14    1    1    2    0    0  0.15942222685E-01  0.14346199022E-01 -0.92691871351E-02  0.23364197411E-01  0.00000000000E+00 0.  1.
     999901    1    3    3    0    0  0.43202779151E-01 -0.34497708177E-01  0.12212860644E+00  0.89015277818E+00  0.88000000000E+00 0.  1.
        -11    1    4    4    0    0 -0.43911868263E-01  0.15243702990E-01 -0.64747420961E-01  0.79706413150E-01  0.51100000000E-03 0.  1.
         11    1    4    4    0    0 -0.15233133573E-01  0.49078061652E-02 -0.48111998340E-01  0.50706611256E-01  0.51100000000E-03 0. -1.
</event>
<event>
 8    1  0.1143506E+005  0.1043930E+01  0.7957747E-01            NaN
         13   -1    0    0    0    0  0.00000000000E+00  0.00000000000E+00  0.74505805969E-08  0.10566000000E+00  0.10566000000E+00 0.  1.
     999900   -1    0    0    0    0 -0.00000000000E+00 -0.00000000000E+00 -0.74505805969E-08  0.93827000000E+00  0.93827000000E+00 0.  1.
     999902    2    1    2    0    0 -0.83372235106E-02  0.16295913322E-01 -0.13591182101E-01  0.10211311773E+01  0.10208766306E+01 0.  0.
     999903    2    3    3    0    0 -0.31726613746E-01  0.47380207701E-01 -0.11953240604E+00  0.13392385096E+00  0.19903257520E-01 0.  0.
         14    1    1    2    0    0  0.83372235106E-02 -0.16295913322E-01  0.13591182101E-01  0.22798822728E-01  0.00000000000E+00 0.  1.
     999901    1    3    3    0    0  0.23389390236E-01 -0.31084294379E-01  0.10594122394E+00  0.88720732631E+00  0.88000000000E+00 0. -1.
        -11    1    4    4    0    0 -0.14066432576E-01  0.67680080230E-02 -0.24144489945E-01  0.28755659856E-01  0.51100000000E-03 0.  1.
         11    1    4    4    0    0 -0.17660181170E-01  0.40612199678E-01 -0.95387916097E-01  0.10516819110E+00  0.51100000000E-03 0. -1.
</event>
<event>
 8    1  0.1143506E+005  0.1043930E+01  0.7957747E-01            NaN
         13   -1    0    0    0    0  0.00000000000E+00  0.00000000000E+00  0.74505805969E-08  0.10566000000E+00  0.10566000000E+00 0.  1.
     999900   -1    0    0    0    0 -0.00000000000E+00 -0.00000000000E+00 -0.74505805969E-08  0.93827000000E+00  0.93827000000E+00 0. -1.
     999902    2    1    2    0    0  0.64214332430E-02  0.16333340571E-01  0.14766807555E-01  0.10209937530E+01  0.10207360934E+01 0.  0.
     999903    2    3    3    0    0  0.19830861616E-01  0.12991756390E+00  0.69912800678E-02  0.13355832024E+00  0.22740062191E-01 0.  0.
         14    1    1    2    0    0 -0.64214332430E-02 -0.16333340571E-01 -0.14766807555E-01  0.22936246957E-01  0.00000000000E+00 0.  1.
     999901    1    3    3    0    0 -0.13409428373E-01 -0.11358422332E+00  0.77755274876E-02  0.88743543280E+00  0.88000000000E+00 0.  1.
        -11    1    4    4    0    0  0.60165306845E-02  0.34727913194E-01  0.12011344391E-01  0.37239228125E-01  0.51100000000E-03 0.  1.
         11    1    4    4    0    0  0.13814330931E-01  0.95189650702E-01 -0.50200643233E-02  0.96319092119E-01  0.51100000000E-03 0. -1.
</event>
<event>
 8    1  0.1143506E+005  0.1043930E+01  0.7957747E-01            NaN
         13   -1    0    0    0    0  0.00000000000E+00  0.00000000000E+00  0.74505805969E-08  0.10566000000E+00  0.10566000000E+00 0.  1.
     999900   -1    0    0    0    0 -0.00000000000E+00 -0.00000000000E+00 -0.74505805969E-08  0.93827000000E+00  0.93827000000E+00 0.  1.
     999902    2    1    2    0    0 -0.10902917267E-01  0.14689676978E-01 -0.15547687644E-01  0.10199218596E+01  0.10196392543E+01 0.  0.
     999903    2    3    3    0    0  0.12450823480E+00  0.49274615206E-02  0.25243080878E-01  0.12857716322E+00  0.19190970821E-01 0.  0.
         14    1    1    2    0    0  0.10902917267E-01 -0.14689676978E-01  0.15547687644E-01  0.24008140405E-01  0.00000000000E+00 0.  1.
     999901    1    3    3    0    0 -0.13541115206E+00  0.97622154578E-02 -0.40790768522E-01  0.89134469637E+00  0.88000000000E+00 0. -1.
        -11    1    4    4    0    0  0.63577720157E-01 -0.48407464099E-02  0.19092044628E-01  0.66560698728E-01  0.51100000000E-03 0. -1.
         11    1    4    4    0    0  0.60930514640E-01  0.97682079305E-02  0.61510362500E-02  0.62016464494E-01  0.51100000000E-03 0.  1.
</event>
<event>
 8    1  0.1143506E+005  0.1043930E+01  0.7957747E-01            NaN
         13   -1    0    0    0    0  0.00000000000E+00  0.00000000000E+00  0.74505805969E-08  0.10566000000E+00  0.10566000000E+00 0.  1.
     999900   -1    0    0    0    0 -0.00000000000E+00 -0.00000000000E+00 -0.74505805969E-08  0.93827000000E+00  0.93827000000E+00 0. -1.
     999902    2    1    2    0    0 -0.55785720817E-02 -0.62300118719E-02  0.21082822768E-01  0.10212491947E+01  0.10209973059E+01 0.  0.
     999903    2    3    3    0    0  0.10430697318E+00 -0.76915021812E-01 -0.42538210874E-02  0.13124180751E+00  0.20259610303E-01 0.  0.
         14    1    1    2    0    0  0.55785720817E-02  0.62300118719E-02 -0.21082822768E-01  0.22680805327E-01  0.00000000000E+00 0. -1.
     999901    1    3    3    0    0 -0.10988554526E+00  0.70685009940E-01  0.25336643855E-01  0.89000738717E+00  0.88000000000E+00 0. -1.
        -11    1    4    4    0    0  0.74145871632E-01 -0.48031567408E-01  0.49205764835E-02  0.88482286034E-01  0.51100000000E-03 0.  1.
         11    1    4    4    0    0  0.30161101548E-01 -0.28883454404E-01 -0.91743975709E-02  0.42759521474E-01  0.51100000000E-03 0. -1.
</event>
<event>
 8    1  0.1143506E+005  0.1043930E+01  0.7957747E-01            NaN
         13   -1    0    0    0    0  0.00000000000E+00  0.00000000000E+00  0.74505805969E-08  0.10566000000E+00  0.10566000000E+00 0. -1.
     999900   -1    0    0    0    0 -0.00000000000E+00 -0.00000000000E+00 -0.74505805969E-08  0.93827000000E+00  0.93827000000E+00 0. -1.
     999902    2    1    2    0    0  0.92449518073E-02  0.14105960075E-01  0.15131627704E-01  0.10212713725E+01  0.10210199816E+01 0.  0.
     999903    2    3    3    0    0 -0.64556939365E-01 -0.70395927404E-01 -0.83267448724E-01  0.12870783617E+00  0.22562226394E-01 0.  0.
         14    1    1    2    0    0 -0.92449518073E-02 -0.14105960075E-01 -0.15131627704E-01  0.22658627507E-01  0.00000000000E+00 0.  1.
     999901    1    3    3    0    0  0.73801891172E-01  0.84501887479E-01  0.98399076427E-01  0.89256353632E+00  0.88000000000E+00 0.  1.
        -11    1    4    4    0    0 -0.14766295264E-01 -0.10256043045E-01 -0.62623465414E-02  0.19044894328E-01  0.51100000000E-03 0. -1.
         11    1    4    4    0    0 -0.49790644101E-01 -0.60139884359E-01 -0.77005102182E-01  0.10966294184E+00  0.51100000000E-03 0.  1.
</event>
<event>
 8    1  0.1143506E+005  0.1043930E+01  0.7957747E-01            NaN
         13   -1    0    0    0    0  0.00000000000E+00  0.00000000000E+00  0.74505805969E-08  0.10566000000E+00  0.10566000000E+00 0. -1.
     999900   -1    0    0    0    0 -0.00000000000E+00 -0.00000000000E+00 -0.74505805969E-08  0.93827000000E+00  0.93827000000E+00 0.  1.
     999902    2    1    2    0    0 -0.15075380005E-01  0.12020887620E-01  0.14720007533E-01  0.10196720643E+01  0.10193834761E+01 0.  0.
     999903    2    3    3    0    0  0.81122883783E-01  0.90244944565E-01 -0.40446703267E-01  0.12926964125E+00  0.18698450477E-01 0.  0.
         14    1    1    2    0    0  0.15075380005E-01 -0.12020887620E-01 -0.14720007533E-01  0.24257935676E-01  0.00000000000E+00 0.  1.
     999901    1    3    3    0    0 -0.96198263787E-01 -0.78224056945E-01  0.55166710801E-01  0.89040242308E+00  0.88000000000E+00 0. -1.
        -11    1    4    4    0    0  0.53114488914E-01  0.63037683117E-01 -0.36054141658E-01  0.89972555133E-01  0.51100000000E-03 0. -1.
         11    1    4    4    0    0  0.28008394869E-01  0.27207261448E-01 -0.43925616088E-02  0.39297086115E-01  0.51100000000E-03 0.  1.
</event>
<event>
 8    1  0.1143506E+005  0.1043930E+01  0.7957747E-01            NaN
         13   -1    0    0    0    0  0.00000000000E+00  0.00000000000E+00  0.74505805969E-08  0.10566000000E+00  0.10566000000E+00 0. -1.
     999900   -1    0    0    0    0 -0.00000000000E+00 -0.00000000000E+00 -0.74505805969E-08  0.93827000000E+00  0.93827000000E+00 0.  1.
     999902    2    1    2    0    0 -0.26155242310E-01 -0.59815566552E-02  0.15684794751E-01  0.10128512531E+01  0.10123743243E+01 0.  0.
     999903    2    3    3    0    0 -0.55871025175E-01  0.12494523288E-01  0.11154027947E+00  0.12695472011E+00  0.19964529745E-01 0.  0.
         14    1    1    2    0    0  0.26155242310E-01  0.59815566552E-02 -0.15684794751E-01  0.31078746865E-01  0.00000000000E+00 0. -1.
     999901    1    3    3    0    0  0.29715782864E-01 -0.18476079943E-01 -0.95855484715E-01  0.88589653303E+00  0.88000000000E+00 0.  1.
        -11    1    4    4    0    0 -0.33437349085E-01  0.17171182621E-01  0.73086057898E-01  0.82187218023E-01  0.51100000000E-03 0. -1.
         11    1    4    4    0    0 -0.22433676090E-01 -0.46766593326E-02  0.38454221567E-01  0.44767502083E-01  0.51100000000E-03 0.  1.
</event>
<event>
 8    1  0.1143506E+005  0.1043930E+01  0.7957747E-01            NaN
         13   -1    0    0    0    0  0.00000000000E+00  0.00000000000E+00  0.74505805969E-08  0.10566000000E+00  0.10566000000E+00 0.  1.
     999900   -1    0    0    0    0 -0.00000000000E+00 -0.00000000000E+00 -0.74505805969E-08  0.93827000000E+00  0.93827000000E+00 0. -1.
     999902    2    1    2    0    0 -0.16023587026E-01 -0.64934568888E-02 -0.16422544715E-01  0.10200842394E+01  0.10198054889E+01 0.  0.
     999903    2    3    3    0    0 -0.63596317021E-01  0.44822647915E-01 -0.10576628132E+00  0.13279690684E+00  0.19873371552E-01 0.  0.
         14    1    1    2    0    0  0.16023587026E-01  0.64934568888E-02  0.16422544715E-01  0.23845760597E-01  0.00000000000E+00 0. -1.
     999901    1    3    3    0    0  0.47572729994E-01 -0.51316104803E-01  0.89343736610E-01  0.88728733256E+00  0.88000000000E+00 0.  1.
        -11    1    4    4    0    0 -0.21486036205E-01  0.19358450107E-01 -0.25068130461E-01  0.38276254103E-01  0.51100000000E-03 0. -1.
         11    1    4    4    0    0 -0.42110280816E-01  0.25464197807E-01 -0.80698150864E-01  0.94520652739E-01  0.51100000000E-03 0.  1.
</event>
<event>
 8    1  0.1143506E+005  0.1043930E+01  0.7957747E-01            NaN
         13   -1    0    0    0    0  0.00000000000E+00  0.00000000000E+00  0.74505805969E-08  0.10566000000E+00  0.10566000000E+00 0. -1.
     999900   -1    0    0    0    0 -0.00000000000E+00 -0.00000000000E+00 -0.74505805969E-08  0.93827000000E+00  0.93827000000E+00 0.  1.
     999902    2    1    2    0    0  0.12932518288E-02  0.23274620194E-01  0.58713836644E-02  0.10198914145E+01  0.10196080834E+01 0.  0.
     999903    2    3    3    0    0 -0.77324432945E-02 -0.65529726144E-01 -0.10797045885E+00  0.12807997694E+00  0.19822331398E-01 0.  0.
         14    1    1    2    0    0 -0.12932518288E-02 -0.23274620194E-01 -0.58713836644E-02  0.24038585474E-01  0.00000000000E+00 0. -1.
     999901    1    3    3    0    0  0.90256951232E-02  0.88804346338E-01  0.11384184251E+00  0.89181143758E+00  0.88000000000E+00 0. -1.
        -11    1    4    4    0    0 -0.81672460007E-02 -0.24627946168E-01 -0.27520299208E-01  0.37826810983E-01  0.51100000000E-03 0. -1.
         11    1    4    4    0    0  0.43480270618E-03 -0.40901779976E-01 -0.80450159638E-01  0.90253165958E-01  0.51100000000E-03 0.  1.
</event>
<event>
 8    1  0.1143506E+005  0.1043930E+01  0.7957747E-01            NaN
         13   -1    0    0    0    0  0.00000000000E+00  0.00000000000E+00  0.74505805969E-08  0.10566000000E+00  0.10566000000E+00 0. -1.
     999900   -1    0    0    0    0 -0.00000000000E+00 -0.00000000000E+00 -0.74505805969E-08  0.93827000000E+00  0.93827000000E+00 0.  1.
     999902    2    1    2    0    0 -0.15399272408E-01 -0.15217053245E-01 -0.10243520583E-01  0.10199795091E+01  0.10196982755E+01 0.  0.
     999903    2    3    3    0    0 -0.57294603143E-02  0.11539847915E+00 -0.52115677623E-01  0.12930156501E+00  0.25558074151E-01 0.  0.
         14    1    1    2    0    0  0.15399272408E-01  0.15217053245E-01  0.10243520583E-01  0.23950490894E-01  0.00000000000E+00 0.  1.
     999901    1    3    3    0    0 -0.96698120933E-02 -0.13061553239E+00  0.41872157040E-01  0.89067794410E+00  0.88000000000E+00 0. -1.
        -11    1    4    4    0    0 -0.62713121502E-02  0.58700414406E-02 -0.19207855442E-02  0.88168747698E-02  0.51100000000E-03 0.  1.
         11    1    4    4    0    0  0.54185183591E-03  0.10952843771E+00 -0.50194892079E-01  0.12048469024E+00  0.51100000000E-03 0. -1.
</event>
<event>
 8    1  0.1143506E+005  0.1043930E+01  0.7957747E-01            NaN
         13   -1    0    0    0    0  0.00000000000E+00  0.00000000000E+00  0.74505805969E-08  0.10566000000E+00  0.10566000000E+00 0.  1.
     999900   -1    0    0    0    0 -0.00000000000E+00 -0.00000000000E+00 -0.74505805969E-08  0.93827000000E+00  0.93827000000E+00 0. -1.
     999902    2    1    2    0    0  0.74037807714E-02  0.18932124157E-01  0.11806451398E-01  0.10204218399E+01  0.10201510172E+01 0.  0.
     999903    2    3    3    0    0  0.92852290035E-01  0.21946099103E-01  0.90283239084E-01  0.13280191115E+00  0.19547514289E-01 0.  0.
         14    1    1    2    0    0 -0.74037807714E-02 -0.18932124157E-01 -0.11806451398E-01  0.23508160060E-01  0.00000000000E+00 0.  1.
     999901    1    3    3    0    0 -0.85448509264E-01 -0.30139749464E-02 -0.78476787686E-01  0.88761992879E+00  0.88000000000E+00 0. -1.
        -11    1    4    4    0    0  0.15008874256E-01  0.46759247177E-02  0.25963295182E-01  0.30355961459E-01  0.51100000000E-03 0.  1.
         11    1    4    4    0    0  0.77843415779E-01  0.17270174385E-01  0.64319943902E-01  0.10244594969E+00  0.51100000000E-03 0. -1.
</event>
<event>
 8    1  0.1143506E+005  0.1043930E+01  0.7957747E-01            NaN
         13   -1    0    0    0    0  0.00000000000E+00  0.00000000000E+00  0.74505805969E-08  0.10566000000E+00  0.10566000000E+00 0.  1.
     999900   -1    0    0    0    0 -0.00000000000E+00 -0.00000000000E+00 -0.74505805969E-08  0.93827000000E+00  0.93827000000E+00 0. -1.
     999902    2    1    2    0    0 -0.67886533895E-02  0.23647605385E-01 -0.15786901086E-02  0.10192766571E+01  0.10189784671E+01 0.  0.
     999903    2    3    3    0    0  0.86545070268E-01  0.96573099132E-01 -0.32776908727E-02  0.13133961076E+00  0.20565442672E-01 0.  0.
         14    1    1    2    0    0  0.67886533895E-02 -0.23647605385E-01  0.15786901086E-02  0.24653342932E-01  0.00000000000E+00 0.  1.
     999901    1    3    3    0    0 -0.93333723657E-01 -0.72925493747E-01  0.16990007641E-02  0.88793704631E+00  0.88000000000E+00 0. -1.
        -11    1    4    4    0    0  0.27381530211E-01  0.26289808742E-01 -0.98928856597E-02  0.39230505325E-01  0.51100000000E-03 0. -1.
         11    1    4    4    0    0  0.59163540057E-01  0.70283290390E-01  0.66151947870E-02  0.92109105430E-01  0.51100000000E-03 0.  1.
</event>
<event>
 8    1  0.1143506E+005  0.1043930E+01  0.7957747E-01            NaN
         13   -1    0    0    0    0  0.00000000000E+00  0.00000000000E+00  0.74505805969E-08  0.10566000000E+00  0.10566000000E+00 0. -1.
     999900   -1    0    0    0    0 -0.00000000000E+00 -0.00000000000E+00 -0.74505805969E-08  0.93827000000E+00  0.93827000000E+00 0.  1.
     999902    2    1    2    0    0  0.72782318914E-02  0.18038247196E-01 -0.13445361926E-01  0.10202840959E+01  0.10200100527E+01 0.  0.
     999903    2    3    3    0    0  0.12889892409E+00  0.15886442318E-01 -0.10630424742E-01  0.13191246937E+00  0.20508095032E-01 0.  0.
         14    1    1    2    0    0 -0.72782318914E-02 -0.18038247196E-01  0.13445361926E-01  0.23645904057E-01  0.00000000000E+00 0. -1.
     999901    1    3    3    0    0 -0.12162069220E+00  0.21518048777E-02 -0.28149371839E-02  0.88837162658E+00  0.88000000000E+00 0.  1.
        -11    1    4    4    0    0  0.11808556351E+00  0.12145210031E-01 -0.15000141112E-01  0.11965354901E+00  0.51100000000E-03 0.  1.
         11    1    4    4    0    0  0.10813360581E-01  0.37412322865E-02  0.43697163697E-02  0.12258920354E-01  0.51100000000E-03 0. -1.
</event>
<event>
 8    1  0.1143506E+005  0.1043930E+01  0.7957747E-01            NaN
         13   -1    0    0    0    0  0.00000000000E+00  0.00000000000E+00  0.74505805969E-08  0.10566000000E+00  0.10566000000E+00 0. -1.
     999900   -1    0    0    0    0 -0.00000000000E+00 -0.00000000000E+00 -0.74505805969E-08  0.93827000000E+00  0.93827000000E+00 0.  1.
     999902    2    1    2    0    0  0.18605807809E-01 -0.11973903818E-01 -0.58616552787E-04  0.10218041352E+01  0.10215645534E+01 0.  0.
     999903    2    3    3    0    0  0.54373131434E-01 -0.23957180387E-01 -0.11751949077E+00  0.13319850990E+00  0.20015704202E-01 0.  0.
         14    1    1    2    0    0 -0.18605807809E-01  0.11973903818E-01  0.58616552787E-04  0.22125864791E-01  0.00000000000E+00 0. -1.
     999901    1    3    3    0    0 -0.35767323625E-01  0.11983276569E-01  0.11746087422E+00  0.88860562531E+00  0.88000000000E+00 0. -1.
        -11    1    4    4    0    0  0.98579950727E-02  0.16796947315E-02 -0.30997458142E-01  0.32574606268E-01  0.51100000000E-03 0.  1.
         11    1    4    4    0    0  0.44515136361E-01 -0.25636875118E-01 -0.86522032629E-01  0.10062390363E+00  0.51100000000E-03 0. -1.
</event>
<event>
 8    1  0.1143506E+005  0.1043930E+01  0.7957747E-01            NaN
         13   -1    0    0    0    0  0.00000000000E+00  0.00000000000E+00  0.74505805969E-08  0.10566000000E+00  0.10566000000E+00 0. -1.
     999900   -1    0    0    0    0 -0.00000000000E+00 -0.00000000000E+00 -0.74505805969E-08  0.93827000000E+00  0.93827000000E+00 0.  1.
     999902    2    1    2    0    0 -0.13968368510E-01  0.32180596245E-02  0.18370935211E-01  0.10206284445E+01  0.10203624157E+01 0.  0.
     999903    2    3    3    0    0 -0.10814842193E+00  0.62002564183E-01  0.41753232930E-01  0.13334481892E+00  0.22295944479E-01 0.  0.
         14    1    1    2    0    0  0.13968368510E-01 -0.32180596245E-02 -0.18370935211E-01  0.23301555465E-01  0.00000000000E+00 0.  1.
     999901    1    3    3    0    0  0.94180053425E-01 -0.58784504559E-01 -0.23382297719E-01  0.88728362562E+00  0.88000000000E+00 0.  1.
        -11    1    4    4    0    0 -0.81043674645E-01  0.34723994265E-01  0.28298321501E-01  0.92600697074E-01  0.51100000000E-03 0.  1.
         11    1    4    4    0    0 -0.27104747289E-01  0.27278569918E-01  0.13454911428E-01  0.40744121845E-01  0.51100000000E-03 0. -1.
</event>
<event>
 8    1  0.1143506E+005  0.1043930E+01  0.7957747E-01            NaN
         13   -1    0    0    0    0  0.00000000000E+00  0.00000000000E+00  0.74505805969E-08  0.10566000000E+00  0.10566000000E+00 0.  1.
     999900   -1    0    0    0    0 -0.00000000000E+00 -0.00000000000E+00 -0.74505805969E-08  0.93827000000E+00  0.93827000000E+00 0.  1.
     999902    2    1    2    0    0  0.23525360095E-01 -0.30458999273E-02  0.24410866748E-02  0.10200830090E+01  0.10198042294E+01 0.  0.
     999903    2    3    3    0    0 -0.79330548336E-01  0.67151756719E-01  0.73066962927E-01  0.12851413155E+00  0.19349589343E-01 0.  0.
         14    1    1    2    0    0 -0.23525360095E-01  0.30458999273E-02 -0.24410866748E-02  0.23846990966E-01  0.00000000000E+00 0. -1.
     999901    1    3    3    0    0  0.10285590843E+00 -0.70197656646E-01 -0.70625876252E-01  0.89156887748E+00  0.88000000000E+00 0. -1.
        -11    1    4    4    0    0 -0.69286009630E-01  0.49181118243E-01  0.55942230402E-01  0.10173066296E+00  0.51100000000E-03 0. -1.
         11    1    4    4    0    0 -0.10044538705E-01  0.17970638476E-01  0.17124732524E-01  0.26783468596E-01  0.51100000000E-03 0.  1.
</event>
<event>
 8    1  0.1143506E+005  0.1043930E+01  0.7957747E-01            NaN
         13   -1    0    0    0    0  0.00000000000E+00  0.00000000000E+00  0.74505805969E-08  0.10566000000E+00  0.10566000000E+00 0.  1.
     999900   -1    0    0    0    0 -0.00000000000E+00 -0.00000000000E+00 -0.74505805969E-08  0.93827000000E+00  0.93827000000E+00 0. -1.
     999902    2    1    2    0    0  0.42903436655E-02 -0.90963300341E-03  0.23226269722E-01  0.10202932894E+01  0.10200194618E+01 0.  0.
     999903    2    3    3    0    0 -0.12250661470E+00 -0.39415829047E-01  0.17843466884E-02  0.13011355936E+00  0.19101733220E-01 0.  0.
         14    1    1    2    0    0 -0.42903436655E-02  0.90963300341E-03 -0.23226269722E-01  0.23636710561E-01  0.00000000000E+00 0. -1.
     999901    1    3    3    0    0  0.12679695836E+00  0.38506196043E-01  0.21441923033E-01  0.89017973008E+00  0.88000000000E+00 0. -1.
        -11    1    4    4    0    0 -0.10653976483E+00 -0.27481631277E-01 -0.60822080700E-03  0.11002996229E+00  0.51100000000E-03 0. -1.
         11    1    4    4    0    0 -0.15966849868E-01 -0.11934197769E-01  0.23925674954E-02  0.20083597071E-01  0.51100000000E-03 0.  1.
</event>
<event>
 8    1  0.1143506E+005  0.1043930E+01  0.7957747E-01            NaN
         13   -1    0    0    0    0  0.00000000000E+00  0.00000000000E+00  0.74505805969E-08  0.10566000000E+00  0.10566000000E+00 0. -1.
     999900   -1    0    0    0    0 -0.00000000000E+00 -0.00000000000E+00 -0.74505805969E-08  0.93827000000E+00  0.93827000000E+00 0. -1.
     999902    2    1    2    0    0  0.14032013658E-01  0.24513370623E-02 -0.20366097972E-01  0.10190767425E+01  0.10187736367E+01 0.  0.
     999903    2    3    3    0    0 -0.78941435299E-01  0.70539126828E-01  0.67051884301E-01  0.12726851597E+00  0.22221641418E-01 0.  0.
         14    1    1    2    0    0 -0.14032013658E-01 -0.24513370623E-02  0.20366097972E-01  0.24853257479E-01  0.00000000000E+00 0. -1.
     999901    1    3    3    0    0  0.92973448957E-01 -0.68087789766E-01 -0.87417982273E-01  0.89180822655E+00  0.88000000000E+00 0. -1.
        -11    1    4    4    0    0 -0.56683644086E-01  0.36310537201E-01  0.40483895615E-01  0.78553787584E-01  0.51100000000E-03 0.  1.
         11    1    4    4    0    0 -0.22257791213E-01  0.34228589627E-01  0.26567988686E-01  0.48714728383E-01  0.51100000000E-03 0. -1.
</event>
<event>
 8    1  0.1143506E+005  0.1043930E+01  0.7957747E-01            NaN
         13   -1    0    0    0    0  0.00000000000E+00  0.00000000000E+00  0.74505805969E-08  0.10566000000E+00  0.10566000000E+00 0. -1.
     999900   -1    0    0    0    0 -0.00000000000E+00 -0.00000000000E+00 -0.74505805969E-08  0.93827000000E+00  0.93827000000E+00 0.  1.
     999902    2    1    2    0    0 -0.16722842090E-02  0.23810380207E-01 -0.23660576809E-02  0.10199439839E+01  0.10196619054E+01 0.  0.
     999903    2    3    3    0    0  0.57492101282E-01  0.16951575018E-01  0.11390861905E+00  0.13029952222E+00  0.20250787445E-01 0.  0.
         14    1    1    2    0    0  0.16722842090E-02 -0.23810380207E-01  0.23660576809E-02  0.23986016114E-01  0.00000000000E+00 0. -1.
     999901    1    3    3    0    0 -0.59164385491E-01  0.68588051897E-02 -0.11627467673E+00  0.88964446166E+00  0.88000000000E+00 0.  1.
        -11    1    4    4    0    0  0.26241804560E-01  0.75243536963E-02  0.31650404522E-01  0.41800208523E-01  0.51100000000E-03 0.  1.
         11    1    4    4    0    0  0.31250296722E-01  0.94272213212E-02  0.82258214528E-01  0.88499313700E-01  0.51100000000E-03 0. -1.
</event>
<event>
 8    1  0.1143506E+005  0.1043930E+01  0.7957747E-01            NaN
         13   -1    0    0    0    0  0.00000000000E+00  0.00000000000E+00  0.74505805969E-08  0.10566000000E+00  0.10566000000E+00 0.  1.
     999900   -1    0    0    0    0 -0.00000000000E+00 -0.00000000000E+00 -0.74505805969E-08  0.93827000000E+00  0.93827000000E+00 0. -1.
     999902    2    1    2    0    0  0.46171665821E-02 -0.16803507730E-01 -0.16439657702E-01  0.10199729876E+01  0.10196915989E+01 0.  0.
     999903    2    3    3    0    0  0.12882774128E-01  0.12535457886E+00 -0.15384514928E-01  0.12852565027E+00  0.20060487725E-01 0.  0.
         14    1    1    2    0    0 -0.46171665821E-02  0.16803507730E-01  0.16439657702E-01  0.23957012431E-01  0.00000000000E+00 0.  1.
     999901    1    3    3    0    0 -0.82656075458E-02 -0.14215808659E+00 -0.10551427741E-02  0.89144733730E+00  0.88000000000E+00 0.  1.
        -11    1    4    4    0    0  0.15934631466E-01  0.67001856326E-01 -0.39722337379E-02  0.68986962485E-01  0.51100000000E-03 0. -1.
         11    1    4    4    0    0 -0.30518573384E-02  0.58352722532E-01 -0.11412281190E-01  0.59538687785E-01  0.51100000000E-03 0.  1.
</event>
<event>
 8    1  0.1143506E+005  0.1043930E+01  0.7957747E-01            NaN
         13   -1    0    0    0    0  0.00000000000E+00  0.00000000000E+00  0.74505805969E-08  0.10566000000E+00  0.10566000000E+00 0. -1.
     999900   -1    0    0    0    0 -0.00000000000E+00 -0.00000000000E+00 -0.74505805969E-08  0.93827000000E+00  0.93827000000E+00 0.  1.
     999902    2    1    2    0    0  0.24440178784E-02 -0.24543486998E-01  0.25198419310E-02  0.10191367432E+01  0.10188351171E+01 0.  0.
     999903    2    3    3    0    0  0.20390598671E-01  0.11133026741E+00  0.53619807856E-01  0.12706333627E+00  0.21443009933E-01 0.  0.
         14    1    1    2    0    0 -0.24440178784E-02  0.24543486998E-01 -0.25198419310E-02  0.24793256760E-01  0.00000000000E+00 0. -1.
     999901    1    3    3    0    0 -0.17946580793E-01 -0.13587375441E+00 -0.51099965925E-01  0.89207340697E+00  0.88000000000E+00 0.  1.
        -11    1    4    4    0    0  0.17205245899E-01  0.42765968991E-01  0.16050483366E-01  0.48814216448E-01  0.51100000000E-03 0.  1.
         11    1    4    4    0    0  0.31853527727E-02  0.68564298418E-01  0.37569324490E-01  0.78249119826E-01  0.51100000000E-03 0. -1.
</event>
<event>
 8    1  0.1143506E+005  0.1043930E+01  0.7957747E-01            NaN
         13   -1    0    0    0    0  0.00000000000E+00  0.00000000000E+00  0.74505805969E-08  0.10566000000E+00  0.10566000000E+00 0. -1.
     999900   -1    0    0    0    0 -0.00000000000E+00 -0.00000000000E+00 -0.74505805969E-08  0.93827000000E+00  0.93827000000E+00 0. -1.
     999902    2    1    2    0    0 -0.20537942479E-01  0.11591711943E-01  0.28485241720E-02  0.10201752330E+01  0.10198986307E+01 0.  0.
     999903    2    3    3    0    0  0.92827226032E-01  0.15880107321E-01 -0.85071432157E-01  0.12854752451E+00  0.20451058312E-01 0.  0.
         14    1    1    2    0    0  0.20537942479E-01 -0.11591711943E-01 -0.28485241720E-02  0.23754767038E-01  0.00000000000E+00 0. -1.
     999901    1    3    3    0    0 -0.11336516851E+00 -0.42883953777E-02  0.87919956329E-01  0.89162770846E+00  0.88000000000E+00 0.  1.
        -11    1    4    4    0    0  0.66531015185E-01  0.42348446520E-02 -0.50872509500E-01  0.83860498655E-01  0.51100000000E-03 0.  1.
         11    1    4    4    0    0  0.26296210847E-01  0.11645262669E-01 -0.34198922657E-01  0.44687025851E-01  0.51100000000E-03 0. -1.
</event>
<event>
 8    1  0.1143506E+005  0.1043930E+01  0.7957747E-01            NaN
         13   -1    0    0    0    0  0.00000000000E+00  0.00000000000E+00  0.74505805969E-08  0.10566000000E+00  0.10566000000E+00 0.  1.
     999900   -1    0    0    0    0 -0.00000000000E+00 -0.00000000000E+00 -0.74505805969E-08  0.93827000000E+00  0.93827000000E+00 0. -1.
     999902    2    1    2    0    0  0.75147302420E-02 -0.54791418889E-02 -0.22352348422E-01  0.10197200920E+01  0.10194326590E+01 0.  0.
     999903    2    3    3    0    0  0.63899746741E-01  0.35775977328E-01  0.10320764562E+00  0.12806625385E+00  0.19648131523E-01 0.  0.
         14    1    1    2    0    0 -0.75147302420E-02  0.54791418889E-02  0.22352348422E-01  0.24209908022E-01  0.00000000000E+00 0.  1.
     999901    1    3    3    0    0 -0.56385016499E-01 -0.41255119217E-01 -0.12555999405E+00  0.89165383813E+00  0.88000000000E+00 0. -1.
        -11    1    4    4    0    0  0.35931359856E-01  0.17807444667E-01  0.39972018011E-01  0.56623237734E-01  0.51100000000E-03 0. -1.
         11    1    4    4    0    0  0.27968386885E-01  0.17968532661E-01  0.63235627612E-01  0.71443016114E-01  0.51100000000E-03 0.  1.
</event>
<event>
 8    1  0.1143506E+005  0.1043930E+01  0.7957747E-01            NaN
         13   -1    0    0    0    0  0.00000000000E+00  0.00000000000E+00  0.74505805969E-08  0.10566000000E+00  0.10566000000E+00 0.  1.
     999900   -1    0    0    0    0 -0.00000000000E+00 -0.00000000000E+00 -0.74505805969E-08  0.93827000000E+00  0.93827000000E+00 0.  1.
     999902    2    1    2    0    0  0.15554207309E-01 -0.10157751069E-01 -0.14537539611E-01  0.10203407370E+01  0.10200680204E+01 0.  0.
     999903    2    3    3    0    0 -0.95607089802E-01  0.14024440244E-01 -0.82615454018E-01  0.13041028196E+00  0.29053878446E-01 0.  0.
         14    1    1    2    0    0 -0.15554207309E-01  0.10157751069E-01  0.14537539611E-01  0.23589263018E-01  0.00000000000E+00 0.  1.
     999901    1    3    3    0    0  0.11116129711E+00 -0.24182191313E-01  0.68077914407E-01  0.88993045503E+00  0.88000000000E+00 0. -1.
        -11    1    4    4    0    0 -0.77115027933E-01  0.58509095455E-03 -0.70718988185E-01  0.10463511015E+00  0.51100000000E-03 0. -1.
         11    1    4    4    0    0 -0.18492061869E-01  0.13439349289E-01 -0.11896465833E-01  0.25775171809E-01  0.51100000000E-03 0.  1.
</event>
<event>
 8    1  0.1143506E+005  0.1043930E+01  0.7957747E-01            NaN
         13   -1    0    0    0    0  0.00000000000E+00  0.00000000000E+00  0.74505805969E-08  0.10566000000E+00  0.10566000000E+00 0. -1.
     999900   -1    0    0    0    0 -0.00000000000E+00 -0.00000000000E+00 -0.74505805969E-08  0.93827000000E+00  0.93827000000E+00 0.  1.
     999902    2    1    2    0    0 -0.16492125533E-01  0.19641665859E-01 -0.23247040013E-02  0.10181775343E+01  0.10178518074E+01 0.  0.
     999903    2    3    3    0    0 -0.11547046198E+00 -0.82465331596E-02 -0.56930160040E-01  0.13050855399E+00  0.19748585877E-01 0.  0.
         14    1    1    2    0    0  0.16492125533E-01 -0.19641665859E-01  0.23247040013E-02  0.25752465726E-01  0.00000000000E+00 0.  1.
     999901    1    3    3    0    0  0.98978336444E-01  0.27888199018E-01  0.54605456038E-01  0.88766898028E+00  0.88000000000E+00 0. -1.
        -11    1    4    4    0    0 -0.59820162682E-01 -0.13658620093E-01 -0.33184659042E-01  0.69760250020E-01  0.51100000000E-03 0. -1.
         11    1    4    4    0    0 -0.55650299295E-01  0.54120869336E-02 -0.23745500998E-01  0.60748303970E-01  0.51100000000E-03 0.  1.
</event>
<event>
 8    1  0.1143506E+005  0.1043930E+01  0.7957747E-01            NaN
         13   -1    0    0    0    0  0.00000000000E+00  0.00000000000E+00  0.74505805969E-08  0.10566000000E+00  0.10566000000E+00 0.  1.
     999900   -1    0    0    0    0 -0.00000000000E+00 -0.00000000000E+00 -0.74505805969E-08  0.93827000000E+00  0.93827000000E+00 0.  1.
     999902    2    1    2    0    0 -0.32096416423E-02 -0.17955948115E-01 -0.14357954354E-01  0.10207164538E+01  0.10204524538E+01 0.  0.
     999903    2    3    3    0    0  0.41420226650E-02  0.10900481878E+00 -0.67648288837E-01  0.12997915079E+00  0.20471487176E-01 0.  0.
         14    1    1    2    0    0  0.32096416423E-02  0.17955948115E-01  0.14357954354E-01  0.23213546162E-01  0.00000000000E+00 0.  1.
     999901    1    3    3    0    0 -0.73516643072E-02 -0.12696076690E+00  0.53290334483E-01  0.89073730305E+00  0.88000000000E+00 0. -1.
        -11    1    4    4    0    0 -0.19507423344E-02  0.96463543126E-01 -0.54527564403E-01  0.11082660758E+00  0.51100000000E-03 0. -1.
         11    1    4    4    0    0  0.60927649994E-02  0.12541275656E-01 -0.13120724434E-01  0.19152543201E-01  0.51100000000E-03 0.  1.
</event>
<event>
 8    1  0.1143506E+005  0.1043930E+01  0.7957747E-01            NaN
         13   -1    0    0    0    0  0.00000000000E+00  0.00000000000E+00  0.74505805969E-08  0.10566000000E+00  0.10566000000E+00 0. -1.
     999900   -1    0    0    0    0 -0.00000000000E+00 -0.00000000000E+00 -0.74505805969E-08  0.93827000000E+00  0.93827000000E+00 0. -1.
     999902    2    1    2    0    0 -0.19762053078E-01 -0.44748692307E-02 -0.12961485550E-01  0.10198766571E+01  0.10195929739E+01 0.  0.
     999903    2    3    3    0    0  0.61540398873E-01  0.10707086649E+00  0.27935270665E-01  0.12817879095E+00  0.19950738290E-01 0.  0.
         14    1    1    2    0    0  0.19762053078E-01  0.44748692307E-02  0.12961485550E-01  0.24053342889E-01  0.00000000000E+00 0. -1.
     999901    1    3    3    0    0 -0.81302451951E-01 -0.11154573572E+00 -0.40896756216E-01  0.89169786616E+00  0.88000000000E+00 0. -1.
        -11    1    4    4    0    0  0.46236043872E-01  0.94525552610E-01  0.25101287943E-01  0.10818127207E+00  0.51100000000E-03 0.  1.
         11    1    4    4    0    0  0.15304355001E-01  0.12545313876E-01  0.28339827226E-02  0.19997518879E-01  0.51100000000E-03 0. -1.
</event>
<event>
 8    1  0.1143506E+005  0.1043930E+01  0.7957747E-01            NaN
         13   -1    0    0    0    0  0.00000000000E+00  0.00000000000E+00  0.74505805969E-08  0.10566000000E+00  0.10566000000E+00 0. -1.
     999900   -1    0    0    0    0 -0.00000000000E+00 -0.00000000000E+00 -0.74505805969E-08  0.93827000000E+00  0.93827000000E+00 0. -1.
     999902    2    1    2    0    0 -0.10915065157E-01 -0.16328314665E-01 -0.82689413675E-02  0.10226197232E+01  0.10223976576E+01 0.  0.
     999903    2    3    3    0    0  0.53403436573E-01  0.11616387143E+00  0.12308286205E-01  0.13014312889E+00  0.20970646721E-01 0.  0.
         14    1    1    2    0    0  0.10915065157E-01  0.16328314665E-01  0.82689413675E-02  0.21310276829E-01  0.00000000000E+00 0.  1.
     999901    1    3    3    0    0 -0.64318501730E-01 -0.13249218610E+00 -0.20577227573E-01  0.89247659428E+00  0.88000000000E+00 0.  1.
        -11    1    4    4    0    0  0.26670069873E-01  0.38276620323E-01 -0.13239468103E-02  0.46673399774E-01  0.51100000000E-03 0. -1.
         11    1    4    4    0    0  0.26733366700E-01  0.77887251112E-01  0.13632233016E-01  0.83469729117E-01  0.51100000000E-03 0.  1.
</event>
<event>
 8    1  0.1143506E+005  0.1043930E+01  0.7957747E-01            NaN
         13   -1    0    0    0    0  0.00000000000E+00  0.00000000000E+00  0.74505805969E-08  0.10566000000E+00  0.10566000000E+00 0.  1.
     999900   -1    0    0    0    0 -0.00000000000E+00 -0.00000000000E+00 -0.74505805969E-08  0.93827000000E+00  0.93827000000E+00 0.  1.
     999902    2    1    2    0    0  0.16266577652E-01 -0.75076211636E-02  0.14799253789E-01  0.10206924477E+01  0.10204278950E+01 0.  0.
     999903    2    3    3    0    0  0.18502131398E-01 -0.68866460999E-01  0.11098788072E+00  0.13332434095E+00  0.19291239118E-01 0.  0.
         14    1    1    2    0    0 -0.16266577652E-01  0.75076211636E-02 -0.14799253789E-01  0.23237552297E-01  0.00000000000E+00 0. -1.
     999901    1    3    3    0    0 -0.22355537464E-02  0.61358839836E-01 -0.96188626932E-01  0.88736810675E+00  0.88000000000E+00 0.  1.
        -11    1    4    4    0    0  0.12710846545E-01 -0.15943837354E-01  0.35649008282E-01  0.41071699282E-01  0.51100000000E-03 0.  1.
         11    1    4    4    0    0  0.57912848532E-02 -0.52922623645E-01  0.75338872439E-01  0.92252641670E-01  0.51100000000E-03 0. -1.
</event>
<event>
 8    1  0.1143506E+005  0.1043930E+01  0.7957747E-01            NaN
         13   -1    0    0    0    0  0.00000000000E+00  0.00000000000E+00  0.74505805969E-08  0.10566000000E+00  0.10566000000E+00 0. -1.
     999900   -1    0    0    0    0 -0.00000000000E+00 -0.00000000000E+00 -0.74505805969E-08  0.93827000000E+00  0.93827000000E+00 0.  1.
     999902    2    1    2    0    0 -0.15133628912E-01  0.86174000463E-02  0.15522478795E-01  0.10206011840E+01  0.10203345251E+01 0.  0.
     999903    2    3    3    0    0  0.11205482719E+00 -0.57822672365E-01  0.24468927443E-01  0.12893351860E+00  0.11197235057E-01 0.  0.
         14    1    1    2    0    0  0.15133628912E-01 -0.86174000463E-02 -0.15522478795E-01  0.23328815992E-01  0.00000000000E+00 0.  1.
     999901    1    3    3    0    0 -0.12718845610E+00  0.66440072411E-01 -0.89464486480E-02  0.89166766541E+00  0.88000000000E+00 0. -1.
        -11    1    4    4    0    0  0.28313576545E-01 -0.12425554341E-01  0.15733929381E-02  0.30964329539E-01  0.51100000000E-03 0.  1.
         11    1    4    4    0    0  0.83741250645E-01 -0.45397118024E-01  0.22895534505E-01  0.97969189064E-01  0.51100000000E-03 0. -1.
</event>
<event>
 8    1  0.1143506E+005  0.1043930E+01  0.7957747E-01            NaN
         13   -1    0    0    0    0  0.00000000000E+00  0.00000000000E+00  0.74505805969E-08  0.10566000000E+00  0.10566000000E+00 0.  1.
     999900   -1    0    0    0    0 -0.00000000000E+00 -0.00000000000E+00 -0.74505805969E-08  0.93827000000E+00  0.93827000000E+00 0.  1.
     999902    2    1    2    0    0  0.13577361866E-01  0.19789157261E-01  0.34999664074E-02  0.10196770566E+01  0.10193885885E+01 0.  0.
     999903    2    3    3    0    0  0.92068300699E-01 -0.19129666160E-01  0.89305664842E-01  0.13117375315E+00  0.19711306959E-01 0.  0.
         14    1    1    2    0    0 -0.13577361866E-01 -0.19789157261E-01 -0.34999664074E-02  0.24252943434E-01  0.00000000000E+00 0. -1.
     999901    1    3    3    0    0 -0.78490938832E-01  0.38918823421E-01 -0.85805698434E-01  0.88850330341E+00  0.88000000000E+00 0.  1.
        -11    1    4    4    0    0  0.77124005552E-01 -0.20150504283E-01  0.66130493252E-01  0.10357440955E+00  0.51100000000E-03 0. -1.
         11    1    4    4    0    0  0.14944295147E-01  0.10208381237E-02  0.23175171590E-01  0.27599343600E-01  0.51100000000E-03 0.  1.
</event>
<event>
 8    1  0.1143506E+005  0.1043930E+01  0.7957747E-01            NaN
         13   -1    0    0    0    0  0.00000000000E+00  0.00000000000E+00  0.74505805969E-08  0.10566000000E+00  0.10566000000E+00 0. -1.
     999900   -1    0    0    0    0 -0.00000000000E+00 -0.00000000000E+00 -0.74505805969E-08  0.93827000000E+00  0.93827000000E+00 0. -1.
     999902    2    1    2    0    0  0.16211641368E-01  0.17500434806E-01 -0.13766011870E-01  0.10163875670E+01  0.10160143211E+01 0.  0.
     999903    2    3    3    0    0  0.67544960465E-01 -0.67513401865E-01 -0.83019538543E-01  0.12809791093E+00  0.19911049431E-01 0.  0.
         14    1    1    2    0    0 -0.16211641368E-01 -0.17500434806E-01  0.13766011870E-01  0.27542433027E-01  0.00000000000E+00 0.  1.
     999901    1    3    3    0    0 -0.51333319096E-01  0.85013836671E-01  0.69253526673E-01  0.88828965604E+00  0.88000000000E+00 0. -1.
        -11    1    4    4    0    0  0.16205875884E-01 -0.18414312287E-01 -0.33406375174E-01  0.41448333301E-01  0.51100000000E-03 0. -1.
         11    1    4    4    0    0  0.51339084580E-01 -0.49099089578E-01 -0.49613163368E-01  0.86649577629E-01  0.51100000000E-03 0.  1.
</event>
<event>
 8    1  0.1143506E+005  0.1043930E+01  0.7957747E-01            NaN
         13   -1    0    0    0    0  0.00000000000E+00  0.00000000000E+00  0.74505805969E-08  0.10566000000E+00  0.10566000000E+00 0. -1.
     999900   -1    0    0    0    0 -0.00000000000E+00 -0.00000000000E+00 -0.74505805969E-08  0.93827000000E+00  0.93827000000E+00 0. -1.
     999902    2    1    2    0    0  0.12298367507E-01  0.79754162213E-02 -0.18955344960E-01  0.10199683179E+01  0.10196868182E+01 0.  0.
     999903    2    3    3    0    0 -0.27395262596E-01 -0.12212609147E+00 -0.26648346617E-01  0.12948464659E+00  0.19770095957E-01 0.  0.
         14    1    1    2    0    0 -0.12298367507E-01 -0.79754162213E-02  0.18955344960E-01  0.23961682115E-01  0.00000000000E+00 0. -1.
     999901    1    3    3    0    0  0.39693630103E-01  0.13010150769E+00  0.76930016567E-02  0.89048367130E+00  0.88000000000E+00 0.  1.
        -11    1    4    4    0    0 -0.20325585504E-02 -0.25708172586E-01  0.16527525543E-02  0.25846356494E-01  0.51100000000E-03 0.  1.
         11    1    4    4    0    0 -0.25362704046E-01 -0.96417918882E-01 -0.28301099171E-01  0.10363829009E+00  0.51100000000E-03 0. -1.
</event>
<event>
 8    1  0.1143506E+005  0.1043930E+01  0.7957747E-01            NaN
         13   -1    0    0    0    0  0.00000000000E+00  0.00000000000E+00  0.74505805969E-08  0.10566000000E+00  0.10566000000E+00 0.  1.
     999900   -1    0    0    0    0 -0.00000000000E+00 -0.00000000000E+00 -0.74505805969E-08  0.93827000000E+00  0.93827000000E+00 0. -1.
     999902    2    1    2    0    0  0.46166352013E-02 -0.15277190025E-01  0.15489094920E-01  0.10216899929E+01  0.10214479055E+01 0.  0.
     999903    2    3    3    0    0 -0.74036642345E-01 -0.91358890262E-01  0.60657462158E-01  0.13376266219E+00  0.19627807818E-01 0.  0.
         14    1    1    2    0    0 -0.46166352013E-02  0.15277190025E-01 -0.15489094920E-01  0.22240007129E-01  0.00000000000E+00 0. -1.
     999901    1    3    3    0    0  0.78653277546E-01  0.76081700237E-01 -0.45168367238E-01  0.88792733069E+00  0.88000000000E+00 0. -1.
        -11    1    4    4    0    0 -0.14580840052E-02 -0.70301911066E-02  0.76998292046E-02  0.10540307716E-01  0.51100000000E-03 0.  1.
         11    1    4    4    0    0 -0.72578558340E-01 -0.84328699156E-01  0.52957632954E-01  0.12322235447E+00  0.51100000000E-03 0. -1.
</event>
<event>
 8    1  0.1143506E+005  0.1043930E+01  0.7957747E-01            NaN
         13   -1    0    0    0    0  0.00000000000E+00  0.00000000000E+00  0.74505805969E-08  0.10566000000E+00  0.10566000000E+00 0.  1.
     999900   -1    0    0    0    0 -0.00000000000E+00 -0.00000000000E+00 -0.74505805969E-08  0.93827000000E+00  0.93827000000E+00 0. -1.
     999902    2    1    2    0    0  0.96350570253E-02 -0.21823486849E-02  0.21484175601E-01  0.10202832926E+01  0.10200092305E+01 0.  0.
     999903    2    3    3    0    0 -0.67377707326E-01 -0.45029211336E-01  0.10249246508E+00  0.13217904057E+00  0.19980191428E-01 0.  0.
         14    1    1    2    0    0 -0.96350570253E-02  0.21823486849E-02 -0.21484175601E-01  0.23646707401E-01  0.00000000000E+00 0. -1.
     999901    1    3    3    0    0  0.77012764351E-01  0.42846862651E-01 -0.81008289477E-01  0.88810425203E+00  0.88000000000E+00 0. -1.
        -11    1    4    4    0    0 -0.42867052076E-01 -0.32341762960E-01  0.81044530095E-01  0.97221657898E-01  0.51100000000E-03 0.  1.
         11    1    4    4    0    0 -0.24510655250E-01 -0.12687448376E-01  0.21447934983E-01  0.34957382670E-01  0.51100000000E-03 0. -1.
</event>
<event>
 7    1  0.1143506E+005  0.1043930E+01  0.7957747E-01            NaN
         13   -1    0    0    0    0  0.00000000000E+00  0.00000000000E+00  0.74505805969E-08  0.10566000000E+00  0.10566000000E+00 0.  1.
     999900   -1    0    0    0    0 -0.00000000000E+00 -0.00000000000E+00 -0.74505805969E-08  0.93827000000E+00  0.93827000000E+00 0. -1.
     999903    2    1    2    0    0 -0.25050666945E-01 -0.65586786515E-01 -0.28468567891E-01  0.78452273898E-01  0.20374921897E-01 0.  0.
         14    1    1    2    0    0  0.22611344704E-01  0.15174542767E-01  0.78024156911E-01  0.82639631650E-01  0.00000000000E+00 0.  1.
     999901    1    1    2    0    0  0.24393222407E-02  0.50412243748E-01 -0.49555589021E-01  0.88283809445E+00  0.88000000000E+00 0. -1.
        -11    1    3    3    0    0 -0.21203991462E-01 -0.27483296013E-01 -0.15460334308E-01  0.38002945565E-01  0.51100000000E-03 0.  1.
         11    1    3    3    0    0 -0.38466754824E-02 -0.38103490501E-01 -0.13008233583E-01  0.40449328333E-01  0.51100000000E-03 0. -1.
</event>
<event>
 8    1  0.1143506E+005  0.1043930E+01  0.7957747E-01            NaN
         13   -1    0    0    0    0  0.00000000000E+00  0.00000000000E+00  0.74505805969E-08  0.10566000000E+00  0.10566000000E+00 0.  1.
     999900   -1    0    0    0    0 -0.00000000000E+00 -0.00000000000E+00 -0.74505805969E-08  0.93827000000E+00  0.93827000000E+00 0.  1.
     999902    2    1    2    0    0 -0.50205056562E-02  0.14771593879E-01  0.17889720198E-01  0.10201929498E+01  0.10199167649E+01 0.  0.
     999903    2    3    3    0    0 -0.11946777549E+00  0.25275623077E-01 -0.41957600838E-01  0.13070421237E+00  0.20291484929E-01 0.  0.
         14    1    1    2    0    0  0.50205056562E-02 -0.14771593879E-01 -0.17889720198E-01  0.23737050186E-01  0.00000000000E+00 0.  1.
     999901    1    3    3    0    0  0.11444726984E+00 -0.10504029198E-01  0.59847321037E-01  0.88948873744E+00  0.88000000000E+00 0. -1.
        -11    1    4    4    0    0 -0.69134557284E-01  0.81199106988E-02 -0.15540942742E-01  0.71325324976E-01  0.51100000000E-03 0. -1.
         11    1    4    4    0    0 -0.50333218208E-01  0.17155712378E-01 -0.26416658096E-01  0.59378887396E-01  0.51100000000E-03 0.  1.
</event>
<event>
 8    1  0.1143506E+005  0.1043930E+01  0.7957747E-01            NaN
         13   -1    0    0    0    0  0.00000000000E+00  0.00000000000E+00  0.74505805969E-08  0.10566000000E+00  0.10566000000E+00 0.  1.
     999900   -1    0    0    0    0 -0.00000000000E+00 -0.00000000000E+00 -0.74505805969E-08  0.93827000000E+00  0.93827000000E+00 0. -1.
     999902    2    1    2    0    0  0.74115676884E-02 -0.16899365756E-01 -0.15002184304E-01  0.10201479599E+01  0.10198707147E+01 0.  0.
     999903    2    3    3    0    0 -0.90629629094E-01 -0.81079068607E-01  0.42804681583E-01  0.13050042053E+00  0.20262624626E-01 0.  0.
         14    1    1    2    0    0 -0.74115676884E-02  0.16899365756E-01  0.15002184304E-01  0.23782040124E-01  0.00000000000E+00 0.  1.
     999901    1    3    3    0    0  0.98041196782E-01  0.64179702851E-01 -0.57806865887E-01  0.88964753935E+00  0.88000000000E+00 0. -1.
        -11    1    4    4    0    0 -0.59130227284E-01 -0.44452003554E-01  0.33901363351E-01  0.81375229380E-01  0.51100000000E-03 0.  1.
         11    1    4    4    0    0 -0.31499401810E-01 -0.36627065054E-01  0.89033182321E-02  0.49125191148E-01  0.51100000000E-03 0. -1.
</event>
<event>
 8    1  0.1143506E+005  0.1043930E+01  0.7957747E-01            NaN
         13   -1    0    0    0    0  0.00000000000E+00  0.00000000000E+00  0.74505805969E-08  0.10566000000E+00  0.10566000000E+00 0.  1.
     999900   -1    0    0    0    0 -0.00000000000E+00 -0.00000000000E+00 -0.74505805969E-08  0.93827000000E+00  0.93827000000E+00 0.  1.
     999902    2    1    2    0    0  0.94387442586E-03  0.19337115941E-01  0.13616902439E-01  0.10202607164E+01  0.10199861247E+01 0.  0.
     999903    2    3    3    0    0  0.61101978902E-01 -0.89368747298E-01 -0.65324724958E-01  0.12803443194E+00  0.20131349957E-01 0.  0.
         14    1    1    2    0    0 -0.94387442586E-03 -0.19337115941E-01 -0.13616902439E-01  0.23669283552E-01  0.00000000000E+00 0.  1.
     999901    1    3    3    0    0 -0.60158104477E-01  0.10870586324E+00  0.78941627397E-01  0.89222628451E+00  0.88000000000E+00 0. -1.
        -11    1    4    4    0    0  0.13625466514E-01 -0.77907623250E-02 -0.10246787675E-01  0.18751189136E-01  0.51100000000E-03 0.  1.
         11    1    4    4    0    0  0.47476512388E-01 -0.81577984973E-01 -0.55077937283E-01  0.10928324280E+00  0.51100000000E-03 0. -1.
</event>
<event>
 8    1  0.1143506E+005  0.1043930E+01  0.7957747E-01            NaN
         13   -1    0    0    0    0  0.00000000000E+00  0.00000000000E+00  0.74505805969E-08  0.10566000000E+00  0.10566000000E+00 0.  1.
     999900   -1    0    0    0    0 -0.00000000000E+00 -0.00000000000E+00 -0.74505805969E-08  0.93827000000E+00  0.93827000000E+00 0.  1.
     999902    2    1    2    0    0 -0.18747124398E-01 -0.14556098102E-01  0.16792642562E-01  0.10148554835E+01  0.10144389212E+01 0.  0.
     999903    2    3    3    0    0 -0.97437544171E-01  0.49993093025E-01  0.62789711691E-01  0.12779600940E+00  0.19896928387E-01 0.  0.
         14    1    1    2    0    0  0.18747124398E-01  0.14556098102E-01 -0.16792642562E-01  0.29074516493E-01  0.00000000000E+00 0. -1.
     999901    1    3    3    0    0  0.78690419774E-01 -0.64549191127E-01 -0.45997069129E-01  0.88705947411E+00  0.88000000000E+00 0. -1.
        -11    1    4    4    0    0 -0.77970074753E-01  0.31351974021E-01  0.51542376143E-01  0.98585782400E-01  0.51100000000E-03 0. -1.
         11    1    4    4    0    0 -0.19467469418E-01  0.18641119004E-01  0.11247335547E-01  0.29210226996E-01  0.51100000000E-03 0.  1.
</event>
<event>
 8    1  0.1143506E+005  0.1043930E+01  0.7957747E-01            NaN
         13   -1    0    0    0    0  0.00000000000E+00  0.00000000000E+00  0.74505805969E-08  0.10566000000E+00  0.10566000000E+00 0.  1.
     999900   -1    0    0    0    0 -0.00000000000E+00 -0.00000000000E+00 -0.74505805969E-08  0.93827000000E+00  0.93827000000E+00 0. -1.
     999902    2    1    2    0    0 -0.18344080974E-01 -0.86287897857E-02  0.10591647959E-01  0.10210576515E+01  0.10208014417E+01 0.  0.
     999903    2    3    3    0    0  0.41406882544E-01  0.10034834779E+00  0.69183264939E-01  0.13039544182E+00  0.20792457112E-01 0.  0.
         14    1    1    2    0    0  0.18344080974E-01  0.86287897857E-02 -0.10591647959E-01  0.22872348512E-01  0.00000000000E+00 0.  1.
     999901    1    3    3    0    0 -0.59750963518E-01 -0.10897713758E+00 -0.58591616980E-01  0.89066220967E+00  0.88000000000E+00 0.  1.
        -11    1    4    4    0    0  0.24650453398E-01  0.70200192948E-01  0.36496992624E-01  0.82873418744E-01  0.51100000000E-03 0.  1.
         11    1    4    4    0    0  0.16756429146E-01  0.30148154842E-01  0.32686272315E-01  0.47522023074E-01  0.51100000000E-03 0. -1.
</event>
<event>
 8    1  0.1143506E+005  0.1043930E+01  0.7957747E-01            NaN
         13   -1    0    0    0    0  0.00000000000E+00  0.00000000000E+00  0.74505805969E-08  0.10566000000E+00  0.10566000000E+00 0.  1.
     999900   -1    0    0    0    0 -0.00000000000E+00 -0.00000000000E+00 -0.74505805969E-08  0.93827000000E+00  0.93827000000E+00 0. -1.
     999902    2    1    2    0    0  0.95405176389E-02 -0.10741298756E-03 -0.21232408367E-01  0.10206523674E+01  0.10203868908E+01 0.  0.
     999903    2    3    3    0    0  0.97471978859E-01  0.84675151563E-01  0.14747938447E-01  0.13148724748E+00  0.20018156924E-01 0.  0.
         14    1    1    2    0    0 -0.95405176389E-02  0.10741298756E-03  0.21232408367E-01  0.23277632600E-01  0.00000000000E+00 0.  1.
     999901    1    3    3    0    0 -0.87931461221E-01 -0.84782564551E-01 -0.35980346815E-01  0.88916511992E+00  0.88000000000E+00 0.  1.
        -11    1    4    4    0    0  0.37539528543E-01  0.25355930564E-01  0.13043275253E-01  0.47143690652E-01  0.51100000000E-03 0.  1.
         11    1    4    4    0    0  0.59932450317E-01  0.59319220999E-01  0.17046631941E-02  0.84343556829E-01  0.51100000000E-03 0. -1.
</event>
<event>
 8    1  0.1143506E+005  0.1043930E+01  0.7957747E-01            NaN
         13   -1    0    0    0    0  0.00000000000E+00  0.00000000000E+00  0.74505805969E-08  0.10566000000E+00  0.10566000000E+00 0. -1.
     999900   -1    0    0    0    0 -0.00000000000E+00 -0.00000000000E+00 -0.74505805969E-08  0.93827000000E+00  0.93827000000E+00 0.  1.
     999902    2    1    2    0    0 -0.24537607263E-02 -0.20006433930E-01  0.11621656098E-01  0.10206632591E+01  0.10203980338E+01 0.  0.
     999903    2    3    3    0    0  0.87098956896E-01  0.44717035241E-01 -0.81297791402E-01  0.12889936638E+00  0.20490832881E-01 0.  0.
         14    1    1    2    0    0  0.24537607263E-02  0.20006433930E-01 -0.11621656098E-01  0.23266740871E-01  0.00000000000E+00 0.  1.
     999901    1    3    3    0    0 -0.89552717622E-01 -0.64723469171E-01  0.92919447500E-01  0.89176389275E+00  0.88000000000E+00 0. -1.
        -11    1    4    4    0    0  0.11559288547E-01 -0.11172240344E-02 -0.82352981605E-02  0.14245932684E-01  0.51100000000E-03 0.  1.
         11    1    4    4    0    0  0.75539668349E-01  0.45834259276E-01 -0.73062493241E-01  0.11465343369E+00  0.51100000000E-03 0. -1.
</event>
<event>
 8    1  0.1143506E+005  0.1043930E+01  0.7957747E-01            NaN
         13   -1    0    0    0    0  0.00000000000E+00  0.00000000000E+00  0.74505805969E-08  0.10566000000E+00  0.10566000000E+00 0. -1.
     999900   -1    0    0    0    0 -0.00000000000E+00 -0.00000000000E+00 -0.74505805969E-08  0.93827000000E+00  0.93827000000E+00 0.  1.
     999902    2    1    2    0    0  0.37075034239E-02 -0.13683516872E-03 -0.24293372889E-01  0.10193549665E+01  0.10190586909E+01 0.  0.
     999903    2    3    3    0    0  0.10110994631E+00  0.71007671845E-01  0.32699816436E-01  0.12930047356E+00  0.19596524328E-01 0.  0.
         14    1    1    2    0    0 -0.37075034239E-02  0.13683516872E-03  0.24293372889E-01  0.24575033506E-01  0.00000000000E+00 0. -1.
     999901    1    3    3    0    0 -0.97402442882E-01 -0.71144507014E-01 -0.56993189325E-01  0.89005449293E+00  0.88000000000E+00 0.  1.
        -11    1    4    4    0    0  0.55706297421E-01  0.35899624357E-01  0.27209966510E-01  0.71642291977E-01  0.51100000000E-03 0.  1.
         11    1    4    4    0    0  0.45403648885E-01  0.35108047489E-01  0.54898499266E-02  0.57658181586E-01  0.51100000000E-03 0. -1.
</event>
<event>
 8    1  0.1143506E+005  0.1043930E+01  0.7957747E-01            NaN
         13   -1    0    0    0    0  0.00000000000E+00  0.00000000000E+00  0.74505805969E-08  0.10566000000E+00  0.10566000000E+00 0. -1.
     999900   -1    0    0    0    0 -0.00000000000E+00 -0.00000000000E+00 -0.74505805969E-08  0.93827000000E+00  0.93827000000E+00 0. -1.
     999902    2    1    2    0    0 -0.14333157532E-01 -0.18739802955E-01 -0.24853794987E-02  0.10202066627E+01  0.10199308006E+01 0.  0.
     999903    2    3    3    0    0  0.19085015761E-01  0.76771036780E-01  0.99570517603E-01  0.12854837564E+00  0.18771440795E-01 0.  0.
         14    1    1    2    0    0  0.14333157532E-01  0.18739802955E-01  0.24853794987E-02  0.23723337263E-01  0.00000000000E+00 0. -1.
     999901    1    3    3    0    0 -0.33418173294E-01 -0.95510839735E-01 -0.10205589710E+00  0.89165828710E+00  0.88000000000E+00 0. -1.
        -11    1    4    4    0    0  0.29394994030E-03  0.39201575894E-01  0.51065939234E-01  0.64380441362E-01  0.51100000000E-03 0.  1.
         11    1    4    4    0    0  0.18791065821E-01  0.37569460886E-01  0.48504578369E-01  0.64167934279E-01  0.51100000000E-03 0. -1.
</event>
<event>
 8    1  0.1143506E+005  0.1043930E+01  0.7957747E-01            NaN
         13   -1    0    0    0    0  0.00000000000E+00  0.00000000000E+00  0.74505805969E-08  0.10566000000E+00  0.10566000000E+00 0.  1.
     999900   -1    0    0    0    0 -0.00000000000E+00 -0.00000000000E+00 -0.74505805969E-08  0.93827000000E+00  0.93827000000E+00 0.  1.
     999902    2    1    2    0    0  0.48725097104E-02  0.96731133523E-02  0.21310356178E-01  0.10200251521E+01  0.10197450020E+01 0.  0.
     999903    2    3    3    0    0  0.55374942640E-01 -0.10782484727E+00  0.43849513375E-01  0.13049478157E+00  0.20335344393E-01 0.  0.
         14    1    1    2    0    0 -0.48725097104E-02 -0.96731133523E-02 -0.21310356178E-01  0.23904847903E-01  0.00000000000E+00 0. -1.
     999901    1    3    3    0    0 -0.50502432930E-01  0.11749796063E+00 -0.22539157197E-01  0.88953037053E+00  0.88000000000E+00 0.  1.
        -11    1    4    4    0    0  0.15575591242E-01 -0.14906677582E-01  0.45528860112E-02  0.22040825100E-01  0.51100000000E-03 0.  1.
         11    1    4    4    0    0  0.39799351398E-01 -0.92918169693E-01  0.39296627364E-01  0.10845395647E+00  0.51100000000E-03 0. -1.
</event>
<event>
 8    1  0.1143506E+005  0.1043930E+01  0.7957747E-01            NaN
         13   -1    0    0    0    0  0.00000000000E+00  0.00000000000E+00  0.74505805969E-08  0.10566000000E+00  0.10566000000E+00 0.  1.
     999900   -1    0    0    0    0 -0.00000000000E+00 -0.00000000000E+00 -0.74505805969E-08  0.93827000000E+00  0.93827000000E+00 0. -1.
     999902    2    1    2    0    0 -0.19226585014E-01  0.52400361224E-02 -0.12727598356E-01  0.10202844653E+01  0.10200104308E+01 0.  0.
     999903    2    3    3    0    0 -0.72482902733E-01  0.10237899301E+00  0.36056557751E-01  0.13199841556E+00  0.19704744516E-01 0.  0.
         14    1    1    2    0    0  0.19226585014E-01 -0.52400361224E-02  0.12727598356E-01  0.23645534669E-01  0.00000000000E+00 0.  1.
     999901    1    3    3    0    0  0.53256317718E-01 -0.97138956888E-01 -0.48784156107E-01  0.88828604977E+00  0.88000000000E+00 0. -1.
        -11    1    4    4    0    0 -0.57345237030E-01  0.71447574056E-01  0.33174334088E-01  0.97437311189E-01  0.51100000000E-03 0.  1.
         11    1    4    4    0    0 -0.15137665703E-01  0.30931418954E-01  0.28822236625E-02  0.34561104376E-01  0.51100000000E-03 0. -1.
</event>
<event>
 8    1  0.1143506E+005  0.1043930E+01  0.7957747E-01            NaN
         13   -1    0    0    0    0  0.00000000000E+00  0.00000000000E+00  0.74505805969E-08  0.10566000000E+00  0.10566000000E+00 0.  1.
     999900   -1    0    0    0    0 -0.00000000000E+00 -0.00000000000E+00 -0.74505805969E-08  0.93827000000E+00  0.93827000000E+00 0.  1.
     999902    2    1    2    0    0  0.16555490398E-01  0.13138285139E-01  0.11420897272E-01  0.10199063514E+01  0.10196233765E+01 0.  0.
     999903    2    3    3    0    0 -0.28658377712E-01 -0.43558965513E-01 -0.11507815048E+00  0.12790809959E+00  0.19970356376E-01 0.  0.
         14    1    1    2    0    0 -0.16555490398E-01 -0.13138285139E-01 -0.11420897272E-01  0.24023648624E-01  0.00000000000E+00 0.  1.
     999901    1    3    3    0    0  0.45213868109E-01  0.56697250653E-01  0.12649904775E+00  0.89199825178E+00  0.88000000000E+00 0. -1.
        -11    1    4    4    0    0 -0.26395422080E-02 -0.18374576712E-01 -0.27987145397E-01  0.33587701334E-01  0.51100000000E-03 0. -1.
         11    1    4    4    0    0 -0.26018835504E-01 -0.25184388801E-01 -0.87091005084E-01  0.94320398259E-01  0.51100000000E-03 0.  1.
</event>
<event>
 8    1  0.1143506E+005  0.1043930E+01  0.7957747E-01            NaN
         13   -1    0    0    0    0  0.00000000000E+00  0.00000000000E+00  0.74505805969E-08  0.10566000000E+00  0.10566000000E+00 0.  1.
     999900   -1    0    0    0    0 -0.00000000000E+00 -0.00000000000E+00 -0.74505805969E-08  0.93827000000E+00  0.93827000000E+00 0.  1.
     999902    2    1    2    0    0 -0.18636750232E-01 -0.60320643058E-02  0.53591935221E-02  0.10236214990E+01  0.10234200203E+01 0.  0.
     999903    2    3    3    0    0 -0.60921263737E-01 -0.11197909218E+00  0.41857473278E-01  0.13550839962E+00  0.18967362460E-01 0.  0.
         14    1    1    2    0    0  0.18636750232E-01  0.60320643058E-02 -0.53591935221E-02  0.20308501033E-01  0.00000000000E+00 0. -1.
     999901    1    3    3    0    0  0.42284513506E-01  0.10594702788E+00 -0.36498279756E-01  0.88811309934E+00  0.88000000000E+00 0.  1.
        -11    1    4    4    0    0 -0.43577439888E-01 -0.95395022036E-01  0.34290819555E-01  0.11034185481E+00  0.51100000000E-03 0.  1.
         11    1    4    4    0    0 -0.17343823850E-01 -0.16584070145E-01  0.75666537234E-02  0.25166544814E-01  0.51100000000E-03 0. -1.
</event>
<event>
 8    1  0.1143506E+005  0.1043930E+01  0.7957747E-01            NaN
         13   -1    0    0    0    0  0.00000000000E+00  0.00000000000E+00  0.74505805969E-08  0.10566000000E+00  0.10566000000E+00 0. -1.
     999900   -1    0    0    0    0 -0.00000000000E+00 -0.00000000000E+00 -0.74505805969E-08  0.93827000000E+00  0.93827000000E+00 0. -1.
     999902    2    1    2    0    0  0.14756748342E-01 -0.13359243649E-01  0.11173975583E-01  0.10211026317E+01  0.10208474400E+01 0.  0.
     999903    2    3    3    0    0  0.54950672710E-02 -0.75744354520E-01  0.10809895357E+00  0.13353734840E+00  0.19479133661E-01 0.  0.
         14    1    1    2    0    0 -0.14756748342E-01  0.13359243649E-01 -0.11173975583E-01  0.22827368285E-01  0.00000000000E+00 0.  1.
     999901    1    3    3    0    0  0.92616810710E-02  0.62385110871E-01 -0.96924977986E-01  0.88756528332E+00  0.88000000000E+00 0. -1.
        -11    1    4    4    0    0  0.91473474266E-02 -0.41576003353E-01  0.46840058196E-01  0.63296841884E-01  0.51100000000E-03 0.  1.
         11    1    4    4    0    0 -0.36522801555E-02 -0.34168351168E-01  0.61258895373E-01  0.70240506512E-01  0.51100000000E-03 0. -1.
</event>
<event>
 8    1  0.1143506E+005  0.1043930E+01  0.7957747E-01            NaN
         13   -1    0    0    0    0  0.00000000000E+00  0.00000000000E+00  0.74505805969E-08  0.10566000000E+00  0.10566000000E+00 0. -1.
     999900   -1    0    0    0    0 -0.00000000000E+00 -0.00000000000E+00 -0.74505805969E-08  0.93827000000E+00  0.93827000000E+00 0.  1.
     999902    2    1    2    0    0  0.20181702074E-02 -0.30878322876E-02  0.23940431892E-01  0.10197070357E+01  0.10194192890E+01 0.  0.
     999903    2    3    3    0    0  0.91931911812E-01  0.86905405672E-01 -0.19058525654E-01  0.12952044059E+00  0.20206216505E-01 0.  0.
         14    1    1    2    0    0 -0.20181702074E-02  0.30878322876E-02 -0.23940431892E-01  0.24222964278E-01  0.00000000000E+00 0.  1.
     999901    1    3    3    0    0 -0.89913741605E-01 -0.89993237959E-01  0.42998957546E-01  0.89018659513E+00  0.88000000000E+00 0. -1.
        -11    1    4    4    0    0  0.35493434422E-01  0.38642652989E-01 -0.17256022128E-01  0.55236490998E-01  0.51100000000E-03 0.  1.
         11    1    4    4    0    0  0.56438477390E-01  0.48262752683E-01 -0.18025035257E-02  0.74283949589E-01  0.51100000000E-03 0. -1.
</event>
<event>
 8    1  0.1143506E+005  0.1043930E+01  0.7957747E-01            NaN
         13   -1    0    0    0    0  0.00000000000E+00  0.00000000000E+00  0.74505805969E-08  0.10566000000E+00  0.10566000000E+00 0. -1.
     999900   -1    0    0    0    0 -0.00000000000E+00 -0.00000000000E+00 -0.74505805969E-08  0.93827000000E+00  0.93827000000E+00 0.  1.
     999902    2    1    2    0    0 -0.86578612685E-02 -0.21279763970E-01 -0.26809376104E-02  0.10208004876E+01  0.10205384173E+01 0.  0.
     999903    2    3    3    0    0  0.66880506650E-01 -0.21635737225E-01  0.10841583828E+00  0.13060462976E+00  0.19038593184E-01 0.  0.
         14    1    1    2    0    0  0.86578612685E-02  0.21279763970E-01  0.26809376104E-02  0.23129512378E-01  0.00000000000E+00 0. -1.
     999901    1    3    3    0    0 -0.75538367919E-01  0.35597325549E-03 -0.11109677589E+00  0.89019585786E+00  0.88000000000E+00 0. -1.
        -11    1    4    4    0    0  0.29624297555E-01 -0.62267011167E-02  0.62841339273E-01  0.69754324992E-01  0.51100000000E-03 0.  1.
         11    1    4    4    0    0  0.37256209095E-01 -0.15409036109E-01  0.45574499002E-01  0.60850304767E-01  0.51100000000E-03 0. -1.
</event>
<event>
 8    1  0.1143506E+005  0.1043930E+01  0.7957747E-01            NaN
         13   -1    0    0    0    0  0.00000000000E+00  0.00000000000E+00  0.74505805969E-08  0.10566000000E+00  0.10566000000E+00 0.  1.
     999900   -1    0    0    0    0 -0.00000000000E+00 -0.00000000000E+00 -0.74505805969E-08  0.93827000000E+00  0.93827000000E+00 0. -1.
     999902    2    1    2    0    0 -0.88501637788E-02 -0.18875131785E-01  0.83022555003E-02  0.10214906719E+01  0.10212441771E+01 0.  0.
     999903    2    3    3    0    0 -0.26233502220E-01 -0.69732118508E-01 -0.10737449902E+00  0.13229456019E+00  0.20537834025E-01 0.  0.
         14    1    1    2    0    0  0.88501637788E-02  0.18875131785E-01 -0.83022555003E-02  0.22439328092E-01  0.00000000000E+00 0. -1.
     999901    1    3    3    0    0  0.17383338441E-01  0.50856986722E-01  0.11567675452E+00  0.88919611172E+00  0.88000000000E+00 0.  1.
        -11    1    4    4    0    0 -0.25175456890E-01 -0.45182158636E-01 -0.82134491108E-01  0.97064755906E-01  0.51100000000E-03 0. -1.
         11    1    4    4    0    0 -0.10580453300E-02 -0.24549959872E-01 -0.25240007912E-01  0.35229804286E-01  0.51100000000E-03 0.  1.
</event>
<event>
 8    1  0.1143506E+005  0.1043930E+01  0.7957747E-01            NaN
         13   -1    0    0    0    0  0.00000000000E+00  0.00000000000E+00  0.74505805969E-08  0.10566000000E+00  0.10566000000E+00 0. -1.
     999900   -1    0    0    0    0 -0.00000000000E+00 -0.00000000000E+00 -0.74505805969E-08  0.93827000000E+00  0.93827000000E+00 0. -1.
     999902    2    1    2    0    0  0.86029873737E-02  0.21034240039E-01  0.67188852786E-02  0.10202320240E+01  0.10199567583E+01 0.  0.
     999903    2    3    3    0    0  0.47286083370E-01  0.10848863172E+00 -0.56842266509E-01  0.13277235026E+00  0.19791332447E-01 0.  0.
         14    1    1    2    0    0 -0.86029873737E-02 -0.21034240039E-01 -0.67188852786E-02  0.23697975972E-01  0.00000000000E+00 0.  1.
     999901    1    3    3    0    0 -0.38683095996E-01 -0.87454391680E-01  0.63561151788E-01  0.88745967376E+00  0.88000000000E+00 0.  1.
        -11    1    4    4    0    0  0.24951383037E-01  0.73400945365E-01 -0.29276391646E-01  0.82871216503E-01  0.51100000000E-03 0.  1.
         11    1    4    4    0    0  0.22334700333E-01  0.35087686355E-01 -0.27565874863E-01  0.49901133761E-01  0.51100000000E-03 0. -1.
</event>
<event>
 8    1  0.1143506E+005  0.1043930E+01  0.7957747E-01            NaN
         13   -1    0    0    0    0  0.00000000000E+00  0.00000000000E+00  0.74505805969E-08  0.10566000000E+00  0.10566000000E+00 0.  1.
     999900   -1    0    0    0    0 -0.00000000000E+00 -0.00000000000E+00 -0.74505805969E-08  0.93827000000E+00  0.93827000000E+00 0. -1.
     999902    2    1    2    0    0  0.12182598114E-01  0.19550667066E-01  0.77899318978E-02  0.10196127773E+01  0.10193227597E+01 0.  0.
     999903    2    3    3    0    0 -0.11546743931E+00 -0.19376915988E-01  0.50302002914E-01  0.12853636929E+00  0.16825941837E-01 0.  0.
         14    1    1    2    0    0 -0.12182598114E-01 -0.19550667066E-01 -0.77899318978E-02  0.24317222673E-01  0.00000000000E+00 0. -1.
     999901    1    3    3    0    0  0.12765003743E+00  0.38927583055E-01 -0.42512071017E-01  0.89107640804E+00  0.88000000000E+00 0. -1.
        -11    1    4    4    0    0 -0.37816826800E-01 -0.14198843580E-01  0.15218184076E-01  0.43169130126E-01  0.51100000000E-03 0.  1.
         11    1    4    4    0    0 -0.77650612512E-01 -0.51780724084E-02  0.35083818838E-01  0.85367239165E-01  0.51100000000E-03 0. -1.
</event>
<event>
 8    1  0.1143506E+005  0.1043930E+01  0.7957747E-01            NaN
         13   -1    0    0    0    0  0.00000000000E+00  0.00000000000E+00  0.74505805969E-08  0.10566000000E+00  0.10566000000E+00 0.  1.
     999900   -1    0    0    0    0 -0.00000000000E+00 -0.00000000000E+00 -0.74505805969E-08  0.93827000000E+00  0.93827000000E+00 0.  1.
     999902    2    1    2    0    0  0.18203553908E-01  0.16940517243E-01 -0.83769791090E-02  0.10176902538E+01  0.10173519197E+01 0.  0.
     999903    2    3    3    0    0 -0.12339655738E+00 -0.65561465731E-02 -0.13847063645E-01  0.12604424418E+00  0.20632907902E-01 0.  0.
         14    1    1    2    0    0 -0.18203553908E-01 -0.16940517243E-01  0.83769791090E-02  0.26239746156E-01  0.00000000000E+00 0. -1.
     999901    1    3    3    0    0  0.14160011129E+00  0.23496663816E-01  0.54700845358E-02  0.89164600966E+00  0.88000000000E+00 0. -1.
        -11    1    4    4    0    0 -0.22420486674E-01  0.51542067730E-02  0.22610169695E-02  0.23121794673E-01  0.51100000000E-03 0.  1.
         11    1    4    4    0    0 -0.10097607070E+00 -0.11710353346E-01 -0.16108080614E-01  0.10292244951E+00  0.51100000000E-03 0. -1.
</event>
<event>
 8    1  0.1143506E+005  0.1043930E+01  0.7957747E-01            NaN
         13   -1    0    0    0    0  0.00000000000E+00  0.00000000000E+00  0.74505805969E-08  0.10566000000E+00  0.10566000000E+00 0. -1.
     999900   -1    0    0    0    0 -0.00000000000E+00 -0.00000000000E+00 -0.74505805969E-08  0.93827000000E+00  0.93827000000E+00 0. -1.
     999902    2    1    2    0    0  0.45312368598E-02  0.17194148012E-01 -0.19012483827E-01  0.10178983774E+01  0.10175654580E+01 0.  0.
     999903    2    3    3    0    0  0.14392177493E-01 -0.71412899781E-01 -0.10466932873E+00  0.12925584965E+00  0.21082439712E-01 0.  0.
         14    1    1    2    0    0 -0.45312368598E-02 -0.17194148012E-01  0.19012483827E-01  0.26031622589E-01  0.00000000000E+00 0. -1.
     999901    1    3    3    0    0 -0.98609406331E-02  0.88607047793E-01  0.85656844900E-01  0.88864252776E+00  0.88000000000E+00 0.  1.
        -11    1    4    4    0    0  0.50954899876E-02 -0.48966888895E-01 -0.54089147997E-01  0.73141077913E-01  0.51100000000E-03 0. -1.
         11    1    4    4    0    0  0.92966875053E-02 -0.22446010886E-01 -0.50580180731E-01  0.56114771736E-01  0.51100000000E-03 0.  1.
</event>
<event>
 8    1  0.1143506E+005  0.1043930E+01  0.7957747E-01            NaN
         13   -1    0    0    0    0  0.00000000000E+00  0.00000000000E+00  0.74505805969E-08  0.10566000000E+00  0.10566000000E+00 0. -1.
     999900   -1    0    0    0    0 -0.00000000000E+00 -0.00000000000E+00 -0.74505805969E-08  0.93827000000E+00  0.93827000000E+00 0. -1.
     999902    2    1    2    0    0 -0.84080989836E-02 -0.13321851190E-01  0.16284438152E-01  0.10212727545E+01  0.10210213946E+01 0.  0.
     999903    2    3    3    0    0  0.67682304230E-01 -0.86310857852E-01 -0.68681541470E-01  0.13091531940E+00  0.19778984422E-01 0.  0.
         14    1    1    2    0    0  0.84080989836E-02  0.13321851190E-01 -0.16284438152E-01  0.22657245498E-01  0.00000000000E+00 0.  1.
     999901    1    3    3    0    0 -0.76090403214E-01  0.72989006663E-01  0.84965979622E-01  0.89035743511E+00  0.88000000000E+00 0.  1.
        -11    1    4    4    0    0  0.48281844245E-01 -0.51110291165E-01 -0.35350010698E-01  0.78697412435E-01  0.51100000000E-03 0. -1.
         11    1    4    4    0    0  0.19400459985E-01 -0.35200566688E-01 -0.33331530772E-01  0.52217906961E-01  0.51100000000E-03 0.  1.
</event>
<event>
 8    1  0.1143506E+005  0.1043930E+01  0.7957747E-01            NaN
         13   -1    0    0    0    0  0.00000000000E+00  0.00000000000E+00  0.74505805969E-08  0.10566000000E+00  0.10566000000E+00 0. -1.
     999900   -1    0    0    0    0 -0.00000000000E+00 -0.00000000000E+00 -0.74505805969E-08  0.93827000000E+00  0.93827000000E+00 0.  1.
     999902    2    1    2    0    0  0.13881629034E-02 -0.20074223551E-01  0.15850777803E-01  0.10183146022E+01  0.10179923774E+01 0.  0.
     999903    2    3    3    0    0 -0.80572123815E-01  0.34680184031E-01  0.92988701612E-01  0.12945814976E+00  0.20443375758E-01 0.  0.
         14    1    1    2    0    0 -0.13881629034E-02  0.20074223551E-01 -0.15850777803E-01  0.25615397799E-01  0.00000000000E+00 0.  1.
     999901    1    3    3    0    0  0.81960286719E-01 -0.54754407582E-01 -0.77137923809E-01  0.88885645244E+00  0.88000000000E+00 0. -1.
        -11    1    4    4    0    0 -0.14278445598E-01  0.13520485604E-01  0.28158059027E-01  0.34348434445E-01  0.51100000000E-03 0.  1.
         11    1    4    4    0    0 -0.66293678218E-01  0.21159698428E-01  0.64830642585E-01  0.95109715319E-01  0.51100000000E-03 0. -1.
</event>
<event>
 8    1  0.1143506E+005  0.1043930E+01  0.7957747E-01            NaN
         13   -1    0    0    0    0  0.00000000000E+00  0.00000000000E+00  0.74505805969E-08  0.10566000000E+00  0.10566000000E+00 0. -1.
     999900   -1    0    0    0    0 -0.00000000000E+00 -0.00000000000E+00 -0.74505805969E-08  0.93827000000E+00  0.93827000000E+00 0. -1.
     999902    2    1    2    0    0 -0.94148314614E-02 -0.42090692876E-02  0.20709986515E-01  0.10207943380E+01  0.10205321267E+01 0.  0.
     999903    2    3    3    0    0  0.77552471678E-01  0.59543007307E-01 -0.80838492070E-01  0.12841564449E+00  0.19898752920E-01 0.  0.
         14    1    1    2    0    0  0.94148314614E-02  0.42090692876E-02 -0.20709986515E-01  0.23135662021E-01  0.00000000000E+00 0.  1.
     999901    1    3    3    0    0 -0.86967303139E-01 -0.63752076595E-01  0.10154847858E+00  0.89237869349E+00  0.88000000000E+00 0.  1.
        -11    1    4    4    0    0  0.22668988139E-01  0.17105038501E-01 -0.12499786577E-01  0.31031776469E-01  0.51100000000E-03 0. -1.
         11    1    4    4    0    0  0.54883483539E-01  0.42437968807E-01 -0.68338705493E-01  0.97383868024E-01  0.51100000000E-03 0.  1.
</event>
<event>
 8    1  0.1143506E+005  0.1043930E+01  0.7957747E-01            NaN
         13   -1    0    0    0    0  0.00000000000E+00  0.00000000000E+00  0.74505805969E-08  0.10566000000E+00  0.10566000000E+00 0. -1.
     999900   -1    0    0    0    0 -0.00000000000E+00 -0.00000000000E+00 -0.74505805969E-08  0.93827000000E+00  0.93827000000E+00 0.  1.
     999902    2    1    2    0    0  0.93398593954E-02  0.16644918423E-01 -0.14291269492E-01  0.10200862028E+01  0.10198074987E+01 0.  0.
     999903    2    3    3    0    0 -0.12794624801E-01  0.46210524816E-01  0.11844691376E+00  0.12936543520E+00  0.20165054364E-01 0.  0.
         14    1    1    2    0    0 -0.93398593954E-02 -0.16644918423E-01  0.14291269492E-01  0.23843797234E-01  0.00000000000E+00 0. -1.
     999901    1    3    3    0    0  0.22134484196E-01 -0.29565606393E-01 -0.13273818326E+00  0.89072076756E+00  0.88000000000E+00 0.  1.
        -11    1    4    4    0    0 -0.88111427811E-02  0.46156231226E-01  0.10006714648E+00  0.11055192827E+00  0.51100000000E-03 0.  1.
         11    1    4    4    0    0 -0.39834820196E-02  0.54293590327E-04  0.18379767282E-01  0.18813506934E-01  0.51100000000E-03 0. -1.
</event>
<event>
 7    1  0.1143506E+005  0.1043930E+01  0.7957747E-01            NaN
         13   -1    0    0    0    0  0.00000000000E+00  0.00000000000E+00  0.74505805969E-08  0.10566000000E+00  0.10566000000E+00 0. -1.
     999900   -1    0    0    0    0 -0.00000000000E+00 -0.00000000000E+00 -0.74505805969E-08  0.93827000000E+00  0.93827000000E+00 0. -1.
     999903    2    1    2    0    0 -0.96283630660E-01 -0.13278722111E-01 -0.52194913281E-01  0.11220509140E+00  0.20464886268E-01 0.  0.
         14    1    1    2    0    0 -0.27816128484E-01 -0.28032667893E-01 -0.69326438550E-02  0.40095249392E-01  0.00000000000E+00 0. -1.
     999901    1    1    2    0    0  0.12409975914E+00  0.41311390004E-01  0.59127557136E-01  0.89162965921E+00  0.88000000000E+00 0.  1.
        -11    1    3    3    0    0 -0.38262445702E-01  0.42874059022E-02 -0.23737294960E-01  0.45234023627E-01  0.51100000000E-03 0.  1.
         11    1    3    3    0    0 -0.58021184959E-01 -0.17566128013E-01 -0.28457618320E-01  0.66971067775E-01  0.51100000000E-03 0. -1.
</event>
<event>
 8    1  0.1143506E+005  0.1043930E+01  0.7957747E-01            NaN
         13   -1    0    0    0    0  0.00000000000E+00  0.00000000000E+00  0.74505805969E-08  0.10566000000E+00  0.10566000000E+00 0.  1.
     999900   -1    0    0    0    0 -0.00000000000E+00 -0.00000000000E+00 -0.74505805969E-08  0.93827000000E+00  0.93827000000E+00 0.  1.
     999902    2    1    2    0    0 -0.22495855235E-01 -0.22370578462E-02 -0.64342697408E-02  0.10204253673E+01  0.10201546268E+01 0.  0.
     999903    2    3    3    0    0 -0.17429688572E-01 -0.12015293993E+00  0.48274341073E-01  0.13086207368E+00  0.73448827152E-02 0.  0.
         14    1    1    2    0    0  0.22495855235E-01  0.22370578462E-02  0.64342697408E-02  0.23504632685E-01  0.00000000000E+00 0.  1.
     999901    1    3    3    0    0 -0.50661666620E-02  0.11791588209E+00 -0.54708610814E-01  0.88956329364E+00  0.88000000000E+00 0. -1.
        -11    1    4    4    0    0 -0.87260972461E-02 -0.63044899755E-01  0.21419191095E-01  0.67155394619E-01  0.51100000000E-03 0.  1.
         11    1    4    4    0    0 -0.87035913264E-02 -0.57108040180E-01  0.26855149979E-01  0.63706679057E-01  0.51100000000E-03 0. -1.
</event>
<event>
 8    1  0.1143506E+005  0.1043930E+01  0.7957747E-01            NaN
         13   -1    0    0    0    0  0.00000000000E+00  0.00000000000E+00  0.74505805969E-08  0.10566000000E+00  0.10566000000E+00 0.  1.
     999900   -1    0    0    0    0 -0.00000000000E+00 -0.00000000000E+00 -0.74505805969E-08  0.93827000000E+00  0.93827000000E+00 0. -1.
     999902    2    1    2    0    0 -0.42686329167E-02 -0.26114705418E-02 -0.20735732012E-01  0.10225989994E+01  0.10223764972E+01 0.  0.
     999903    2    3    3    0    0  0.44289195168E-01  0.11005169005E+00  0.52120812786E-01  0.13110647191E+00  0.19985508709E-01 0.  0.
         14    1    1    2    0    0  0.42686329167E-02  0.26114705418E-02  0.20735732012E-01  0.21331000620E-01  0.00000000000E+00 0.  1.
     999901    1    3    3    0    0 -0.48557828084E-01 -0.11266316059E+00 -0.72856544798E-01  0.89149252747E+00  0.88000000000E+00 0. -1.
        -11    1    4    4    0    0  0.38094925363E-01  0.75979958375E-01  0.30633800986E-01  0.90348593220E-01  0.51100000000E-03 0.  1.
         11    1    4    4    0    0  0.61942698048E-02  0.34071731676E-01  0.21487011800E-01  0.40757878685E-01  0.51100000000E-03 0. -1.
</event>
<event>
 8    1  0.1143506E+005  0.1043930E+01  0.7957747E-01            NaN
         13   -1    0    0    0    0  0.00000000000E+00  0.00000000000E+00  0.74505805969E-08  0.10566000000E+00  0.10566000000E+00 0. -1.
     999900   -1    0    0    0    0 -0.00000000000E+00 -0.00000000000E+00 -0.74505805969E-08  0.93827000000E+00  0.93827000000E+00 0. -1.
     999902    2    1    2    0    0 -0.97062919513E-03  0.64386708564E-02 -0.22857870325E-01  0.10201627781E+01  0.10198858823E+01 0.  0.
     999903    2    3    3    0    0 -0.29660129592E-01  0.55080731648E-01 -0.11620024714E+00  0.13342609965E+00  0.19657475557E-01 0.  0.
         14    1    1    2    0    0  0.97062919513E-03 -0.64386708564E-02  0.22857870325E-01  0.23767221950E-01  0.00000000000E+00 0. -1.
     999901    1    3    3    0    0  0.28689500397E-01 -0.48642060792E-01  0.93342376819E-01  0.88673667840E+00  0.88000000000E+00 0.  1.
        -11    1    4    4    0    0 -0.19786022653E-01  0.40276174636E-01 -0.63173594873E-01  0.77490781038E-01  0.51100000000E-03 0. -1.
         11    1    4    4    0    0 -0.98741069388E-02  0.14804557012E-01 -0.53026652270E-01  0.55935318611E-01  0.51100000000E-03 0.  1.
</event>
<event>
 8    1  0.1143506E+005  0.1043930E+01  0.7957747E-01            NaN
         13   -1    0    0    0    0  0.00000000000E+00  0.00000000000E+00  0.74505805969E-08  0.10566000000E+00  0.10566000000E+00 0.  1.
     999900   -1    0    0    0    0 -0.00000000000E+00 -0.00000000000E+00 -0.74505805969E-08  0.93827000000E+00  0.93827000000E+00 0. -1.
     999902    2    1    2    0    0 -0.68629291773E-03  0.18737745621E-01 -0.15120201983E-01  0.10198427707E+01  0.10195582780E+01 0.  0.
     999903    2    3    3    0    0 -0.12155475263E+00  0.29379396081E-01  0.30603126030E-01  0.13034119562E+00  0.20336399686E-01 0.  0.
         14    1    1    2    0    0  0.68629291773E-03 -0.18737745621E-01  0.15120201983E-01  0.24087229333E-01  0.00000000000E+00 0.  1.
     999901    1    3    3    0    0  0.12086845972E+00 -0.10641650460E-01 -0.45723328013E-01  0.88950157504E+00  0.88000000000E+00 0. -1.
        -11    1    4    4    0    0 -0.95359731177E-01  0.25621672211E-01  0.15753156617E-01  0.99991857076E-01  0.51100000000E-03 0.  1.
         11    1    4    4    0    0 -0.26195021455E-01  0.37577238700E-02  0.14849969413E-01  0.30349338548E-01  0.51100000000E-03 0. -1.
</event>
<event>
 8    1  0.1143506E+005  0.1043930E+01  0.7957747E-01            NaN
         13   -1    0    0    0    0  0.00000000000E+00  0.00000000000E+00  0.74505805969E-08  0.10566000000E+00  0.10566000000E+00 0. -1.
     999900   -1    0    0    0    0 -0.00000000000E+00 -0.00000000000E+00 -0.74505805969E-08  0.93827000000E+00  0.93827000000E+00 0.  1.
     999902    2    1    2    0    0 -0.98181872759E-02 -0.15653150199E-01  0.12067011346E-01  0.10218612285E+01  0.10216228950E+01 0.  0.
     999903    2    3    3    0    0  0.94547551691E-01 -0.83611320343E-01 -0.32820437967E-01  0.13195932185E+00  0.20149170073E-01 0.  0.
         14    1    1    2    0    0  0.98181872759E-02  0.15653150199E-01 -0.12067011346E-01  0.22068771496E-01  0.00000000000E+00 0.  1.
     999901    1    3    3    0    0 -0.10436573897E+00  0.67958170144E-01  0.44887449313E-01  0.88990190665E+00  0.88000000000E+00 0. -1.
        -11    1    4    4    0    0  0.37104453961E-01 -0.45353663663E-01 -0.11455162860E-01  0.59709104738E-01  0.51100000000E-03 0. -1.
         11    1    4    4    0    0  0.57443097730E-01 -0.38257656679E-01 -0.21365275107E-01  0.72250217113E-01  0.51100000000E-03 0.  1.
</event>
<event>
 8    1  0.1143506E+005  0.1043930E+01  0.7957747E-01            NaN
         13   -1    0    0    0    0  0.00000000000E+00  0.00000000000E+00  0.74505805969E-08  0.10566000000E+00  0.10566000000E+00 0.  1.
     999900   -1    0    0    0    0 -0.00000000000E+00 -0.00000000000E+00 -0.74505805969E-08  0.93827000000E+00  0.93827000000E+00 0.  1.
     999902    2    1    2    0    0  0.11572625062E-01 -0.10585101765E-02 -0.20147505659E-01  0.10206712795E+01  0.10204062391E+01 0.  0.
     999903    2    3    3    0    0 -0.85401677391E-01 -0.74106905806E-01  0.58430610169E-01  0.12886715094E+00  0.20182328855E-01 0.  0.
         14    1    1    2    0    0 -0.11572625062E-01  0.10585101765E-02  0.20147505659E-01  0.23258720492E-01  0.00000000000E+00 0.  1.
     999901    1    3    3    0    0  0.96974302453E-01  0.73048395629E-01 -0.78578115828E-01  0.89180412857E+00  0.88000000000E+00 0. -1.
        -11    1    4    4    0    0 -0.38561229934E-01 -0.27229095833E-01  0.34243740320E-01  0.58320553718E-01  0.51100000000E-03 0. -1.
         11    1    4    4    0    0 -0.46840447457E-01 -0.46877809973E-01  0.24186869849E-01  0.70546597225E-01  0.51100000000E-03 0.  1.
</event>
<event>
 8    1  0.1143506E+005  0.1043930E+01  0.7957747E-01            NaN
         13   -1    0    0    0    0  0.00000000000E+00  0.00000000000E+00  0.74505805969E-08  0.10566000000E+00  0.10566000000E+00 0. -1.
     999900   -1    0    0    0    0 -0.00000000000E+00 -0.00000000000E+00 -0.74505805969E-08  0.93827000000E+00  0.93827000000E+00 0.  1.
     999902    2    1    2    0    0  0.30931209925E-02 -0.13999681381E-01  0.19148901196E-01  0.10200084847E+01  0.10197279392E+01 0.  0.
     999903    2    3    3    0    0 -0.94366486366E-01 -0.51091597201E-01  0.74652018686E-01  0.13211503315E+00  0.19133035242E-01 0.  0.
         14    1    1    2    0    0 -0.30931209925E-02  0.13999681381E-01 -0.19148901196E-01  0.23921515279E-01  0.00000000000E+00 0.  1.
     999901    1    3    3    0    0  0.97459607358E-01  0.37091915820E-01 -0.55503117491E-01  0.88789345157E+00  0.88000000000E+00 0.  1.
        -11    1    4    4    0    0 -0.64010226801E-01 -0.42973616717E-01  0.47300230892E-01  0.90452273782E-01  0.51100000000E-03 0.  1.
         11    1    4    4    0    0 -0.30356259565E-01 -0.81179804839E-02  0.27351787794E-01  0.41662759371E-01  0.51100000000E-03 0. -1.
</event>
<event>
 8    1  0.1143506E+005  0.1043930E+01  0.7957747E-01            NaN
         13   -1    0    0    0    0  0.00000000000E+00  0.00000000000E+00  0.74505805969E-08  0.10566000000E+00  0.10566000000E+00 0. -1.
     999900   -1    0    0    0    0 -0.00000000000E+00 -0.00000000000E+00 -0.74505805969E-08  0.93827000000E+00  0.93827000000E+00 0. -1.
     999902    2    1    2    0    0 -0.17022822194E-01 -0.69543810893E-02  0.20712183974E-01  0.10162328078E+01  0.10158552974E+01 0.  0.
     999903    2    3    3    0    0 -0.12613787000E+00  0.14154272718E-01 -0.93932245163E-02  0.12873181931E+00  0.19301371773E-01 0.  0.
         14    1    1    2    0    0  0.17022822194E-01  0.69543810893E-02 -0.20712183974E-01  0.27697192218E-01  0.00000000000E+00 0.  1.
     999901    1    3    3    0    0  0.10911504780E+00 -0.21108653807E-01  0.30105408491E-01  0.88750098847E+00  0.88000000000E+00 0.  1.
        -11    1    4    4    0    0 -0.81860425418E-01  0.51621038055E-02 -0.14371797212E-01  0.83274163108E-01  0.51100000000E-03 0.  1.
         11    1    4    4    0    0 -0.44277444577E-01  0.89921689122E-02  0.49785726953E-02  0.45457656199E-01  0.51100000000E-03 0. -1.
</event>
<event>
 8    1  0.1143506E+005  0.1043930E+01  0.7957747E-01            NaN
         13   -1    0    0    0    0  0.00000000000E+00  0.00000000000E+00  0.74505805969E-08  0.10566000000E+00  0.10566000000E+00 0.  1.
     999900   -1    0    0    0    0 -0.00000000000E+00 -0.00000000000E+00 -0.74505805969E-08  0.93827000000E+00  0.93827000000E+00 0.  1.
     999902    2    1    2    0    0  0.13801223568E-01  0.12751713168E-01  0.14659231238E-01  0.10200978154E+01  0.10198193860E+01 0.  0.
     999903    2    3    3    0    0 -0.11288915822E-01  0.83665092553E-01  0.10035154118E+00  0.13274140764E+00  0.20556316601E-01 0.  0.
         14    1    1    2    0    0 -0.13801223568E-01 -0.12751713168E-01 -0.14659231238E-01  0.23832184566E-01  0.00000000000E+00 0. -1.
     999901    1    3    3    0    0  0.25090139390E-01 -0.70913379385E-01 -0.85692309945E-01  0.88735640779E+00  0.88000000000E+00 0.  1.
        -11    1    4    4    0    0 -0.44152186050E-02  0.32687543893E-01  0.55145290368E-01  0.64259114933E-01  0.51100000000E-03 0.  1.
         11    1    4    4    0    0 -0.68736972168E-02  0.50977548659E-01  0.45206250814E-01  0.68482292707E-01  0.51100000000E-03 0. -1.
</event>
<event>
 8    1  0.1143506E+005  0.1043930E+01  0.7957747E-01            NaN
         13   -1    0    0    0    0  0.00000000000E+00  0.00000000000E+00  0.74505805969E-08  0.10566000000E+00  0.10566000000E+00 0. -1.
     999900   -1    0    0    0    0 -0.00000000000E+00 -0.00000000000E+00 -0.74505805969E-08  0.93827000000E+00  0.93827000000E+00 0.  1.
     999902    2    1    2    0    0 -0.20530798716E-01 -0.19536217592E-02  0.13213498333E-01  0.10194365953E+01  0.10191423085E+01 0.  0.
     999903    2    3    3    0    0  0.55518321796E-01 -0.10127229371E+00  0.55343302049E-01  0.12959245860E+00  0.19823287210E-01 0.  0.
         14    1    1    2    0    0  0.20530798716E-01  0.19536217592E-02 -0.13213498333E-01  0.24493404665E-01  0.00000000000E+00 0.  1.
     999901    1    3    3    0    0 -0.76049120512E-01  0.99318671947E-01 -0.42129803716E-01  0.88984413674E+00  0.88000000000E+00 0. -1.
        -11    1    4    4    0    0  0.49866514254E-01 -0.80891437323E-01  0.38422469731E-01  0.10250190816E+00  0.51100000000E-03 0.  1.
         11    1    4    4    0    0  0.56518075421E-02 -0.20380856383E-01  0.16920832318E-01  0.27090550432E-01  0.51100000000E-03 0. -1.
</event>
<event>
 8    1  0.1143506E+005  0.1043930E+01  0.7957747E-01            NaN
         13   -1    0    0    0    0  0.00000000000E+00  0.00000000000E+00  0.74505805969E-08  0.10566000000E+00  0.10566000000E+00 0. -1.
     999900   -1    0    0    0    0 -0.00000000000E+00 -0.00000000000E+00 -0.74505805969E-08  0.93827000000E+00  0.93827000000E+00 0.  1.
     999902    2    1    2    0    0 -0.93462953151E-02 -0.21703414260E-01 -0.43885489027E-02  0.10198956332E+01  0.10196124027E+01 0.  0.
     999903    2    3    3    0    0 -0.10607569482E+00 -0.75539063274E-01 -0.16659937329E-01  0.13287509182E+00  0.20494716471E-01 0.  0.
         14    1    1    2    0    0  0.93462953151E-02  0.21703414260E-01  0.43885489027E-02  0.24034366813E-01  0.00000000000E+00 0. -1.
     999901    1    3    3    0    0  0.96729399502E-01  0.53835649014E-01  0.12271388426E-01  0.88702054137E+00  0.88000000000E+00 0.  1.
        -11    1    4    4    0    0 -0.76438178680E-01 -0.61273347220E-01 -0.54379164844E-02  0.98117533072E-01  0.51100000000E-03 0.  1.
         11    1    4    4    0    0 -0.29637516137E-01 -0.14265716054E-01 -0.11222020844E-01  0.34757558748E-01  0.51100000000E-03 0. -1.
</event>
<event>
 8    1  0.1143506E+005  0.1043930E+01  0.7957747E-01            NaN
         13   -1    0    0    0    0  0.00000000000E+00  0.00000000000E+00  0.74505805969E-08  0.10566000000E+00  0.10566000000E+00 0.  1.
     999900   -1    0    0    0    0 -0.00000000000E+00 -0.00000000000E+00 -0.74505805969E-08  0.93827000000E+00  0.93827000000E+00 0. -1.
     999902    2    1    2    0    0 -0.82462727005E-03  0.17817926152E-01  0.11145036071E-01  0.10228973984E+01  0.10226811415E+01 0.  0.
     999903    2    3    3    0    0  0.11656353161E+00 -0.44238284685E-01  0.40189785289E-01  0.13246236390E+00  0.19671712535E-01 0.  0.
         14    1    1    2    0    0  0.82462727005E-03 -0.17817926152E-01 -0.11145036071E-01  0.21032601635E-01  0.00000000000E+00 0.  1.
     999901    1    3    3    0    0 -0.11738815888E+00  0.62056210837E-01 -0.29044749218E-01  0.89043503447E+00  0.88000000000E+00 0.  1.
        -11    1    4    4    0    0  0.95497050106E-01 -0.40761677577E-01  0.39501324795E-01  0.11109372943E+00  0.51100000000E-03 0.  1.
         11    1    4    4    0    0  0.21066481506E-01 -0.34766071082E-02  0.68846049441E-03  0.21368634465E-01  0.51100000000E-03 0. -1.
</event>
<event>
 8    1  0.1143506E+005  0.1043930E+01  0.7957747E-01            NaN
         13   -1    0    0    0    0  0.00000000000E+00  0.00000000000E+00  0.74505805969E-08  0.10566000000E+00  0.10566000000E+00 0.  1.
     999900   -1    0    0    0    0 -0.00000000000E+00 -0.00000000000E+00 -0.74505805969E-08  0.93827000000E+00  0.93827000000E+00 0. -1.
     999902    2    1    2    0    0 -0.10075433023E-02  0.18722316805E-01 -0.10719268484E-01  0.10223327083E+01  0.10221045561E+01 0.  0.
     999903    2    3    3    0    0 -0.62546078108E-01 -0.11262040943E+00 -0.22444652378E-02  0.13041918939E+00  0.20217785024E-01 0.  0.
         14    1    1    2    0    0  0.10075433023E-02 -0.18722316805E-01  0.10719268484E-01  0.21597291656E-01  0.00000000000E+00 0.  1.
     999901    1    3    3    0    0  0.61538534806E-01  0.13134272623E+00 -0.84748032464E-02  0.89191351895E+00  0.88000000000E+00 0.  1.
        -11    1    4    4    0    0 -0.42192990970E-01 -0.77188365712E-01 -0.10917944683E-01  0.88643978507E-01  0.51100000000E-03 0. -1.
         11    1    4    4    0    0 -0.20353087138E-01 -0.35432043714E-01  0.86734794455E-02  0.41775210885E-01  0.51100000000E-03 0.  1.
</event>
<event>
 8    1  0.1143506E+005  0.1043930E+01  0.7957747E-01            NaN
         13   -1    0    0    0    0  0.00000000000E+00  0.00000000000E+00  0.74505805969E-08  0.10566000000E+00  0.10566000000E+00 0. -1.
     999900   -1    0    0    0    0 -0.00000000000E+00 -0.00000000000E+00 -0.74505805969E-08  0.93827000000E+00  0.93827000000E+00 0. -1.
     999902    2    1    2    0    0 -0.58985327790E-02  0.18754272932E-01  0.13205557451E-01  0.10202466263E+01  0.10199717037E+01 0.  0.
     999903    2    3    3    0    0  0.81272807379E-01 -0.85530326084E-01  0.47731736131E-01  0.12914271701E+00  0.21881883457E-01 0.  0.
         14    1    1    2    0    0  0.58985327790E-02 -0.18754272932E-01 -0.13205557451E-01  0.23683373699E-01  0.00000000000E+00 0.  1.
     999901    1    3    3    0    0 -0.87171340158E-01  0.10428459902E+00 -0.34526178680E-01  0.89110390929E+00  0.88000000000E+00 0. -1.
        -11    1    4    4    0    0  0.69681981193E-01 -0.75497640366E-01  0.33091058760E-01  0.10793864690E+00  0.51100000000E-03 0.  1.
         11    1    4    4    0    0  0.11590826186E-01 -0.10032685718E-01  0.14640677371E-01  0.21204070111E-01  0.51100000000E-03 0. -1.
</event>
<event>
 8    1  0.1143506E+005  0.1043930E+01  0.7957747E-01            NaN
         13   -1    0    0    0    0  0.00000000000E+00  0.00000000000E+00  0.74505805969E-08  0.10566000000E+00  0.10566000000E+00 0. -1.
     999900   -1    0    0    0    0 -0.00000000000E+00 -0.00000000000E+00 -0.74505805969E-08  0.93827000000E+00  0.93827000000E+00 0. -1.
     999902    2    1    2    0    0  0.14606574073E-02 -0.20734885625E-01 -0.10407882404E-01  0.10206836451E+01  0.10204188896E+01 0.  0.
     999903    2    3    3    0    0 -0.48311954185E-01 -0.75915668926E-01 -0.96549193931E-01  0.13336039096E+00  0.19131474658E-01 0.  0.
         14    1    1    2    0    0 -0.14606574073E-02  0.20734885625E-01  0.10407882404E-01  0.23246354942E-01  0.00000000000E+00 0. -1.
     999901    1    3    3    0    0  0.49772611593E-01  0.55180783301E-01  0.86141311527E-01  0.88732325410E+00  0.88000000000E+00 0.  1.
        -11    1    4    4    0    0 -0.26088436685E-01 -0.52962870324E-01 -0.52958104390E-01  0.79312635205E-01  0.51100000000E-03 0.  1.
         11    1    4    4    0    0 -0.22223517501E-01 -0.22952798603E-01 -0.43591089541E-01  0.54047755755E-01  0.51100000000E-03 0. -1.
</event>
<event>
 8    1  0.1143506E+005  0.1043930E+01  0.7957747E-01            NaN
         13   -1    0    0    0    0  0.00000000000E+00  0.00000000000E+00  0.74505805969E-08  0.10566000000E+00  0.10566000000E+00 0. -1.
     999900   -1    0    0    0    0 -0.00000000000E+00 -0.00000000000E+00 -0.74505805969E-08  0.93827000000E+00  0.93827000000E+00 0. -1.
     999902    2    1    2    0    0  0.16676307105E-01  0.45393987995E-03 -0.15211902629E-01  0.10213533027E+01  0.10211037468E+01 0.  0.
     999903    2    3    3    0    0  0.81548222716E-01 -0.94069154469E-01 -0.41574635799E-01  0.13352563106E+00  0.24526013900E-01 0.  0.
         14    1    1    2    0    0 -0.16676307105E-01 -0.45393987995E-03  0.15211902629E-01  0.22576697315E-01  0.00000000000E+00 0. -1.
     999901    1    3    3    0    0 -0.64871915611E-01  0.94523094349E-01  0.26362733170E-01  0.88782767162E+00  0.88000000000E+00 0. -1.
        -11    1    4    4    0    0  0.29484773679E-01 -0.23645737605E-01 -0.22172610900E-01  0.43821896136E-01  0.51100000000E-03 0.  1.
         11    1    4    4    0    0  0.52063449037E-01 -0.70423416864E-01 -0.19402024899E-01  0.89703734925E-01  0.51100000000E-03 0. -1.
</event>
<event>
 8    1  0.1143506E+005  0.1043930E+01  0.7957747E-01            NaN
         13   -1    0    0    0    0  0.00000000000E+00  0.00000000000E+00  0.74505805969E-08  0.10566000000E+00  0.10566000000E+00 0.  1.
     999900   -1    0    0    0    0 -0.00000000000E+00 -0.00000000000E+00 -0.74505805969E-08  0.93827000000E+00  0.93827000000E+00 0.  1.
     999902    2    1    2    0    0  0.47912946050E-02 -0.22030269318E-01 -0.12964755735E-02  0.10213474820E+01  0.10210977959E+01 0.  0.
     999903    2    3    3    0    0 -0.78093809797E-01 -0.68471460126E-02 -0.10354630489E+00  0.13142866809E+00  0.20152692183E-01 0.  0.
         14    1    1    2    0    0 -0.47912946050E-02  0.22030269318E-01  0.12964755735E-02  0.22582517998E-01  0.00000000000E+00 0. -1.
     999901    1    3    3    0    0  0.82885104402E-01 -0.15183123306E-01  0.10224982931E+00  0.88991881391E+00  0.88000000000E+00 0. -1.
        -11    1    4    4    0    0 -0.38927614230E-01 -0.62511306525E-02 -0.36249834166E-01  0.53560688775E-01  0.51100000000E-03 0.  1.
         11    1    4    4    0    0 -0.39166195568E-01 -0.59601536008E-03 -0.67296470721E-01  0.77867979312E-01  0.51100000000E-03 0. -1.
</event>
<event>
 8    1  0.1143506E+005  0.1043930E+01  0.7957747E-01            NaN
         13   -1    0    0    0    0  0.00000000000E+00  0.00000000000E+00  0.74505805969E-08  0.10566000000E+00  0.10566000000E+00 0.  1.
     999900   -1    0    0    0    0 -0.00000000000E+00 -0.00000000000E+00 -0.74505805969E-08  0.93827000000E+00  0.93827000000E+00 0.  1.
     999902    2    1    2    0    0 -0.78685658359E-02 -0.43917934664E-02 -0.21347993820E-01  0.10207580554E+01  0.10204950115E+01 0.  0.
     999903    2    3    3    0    0 -0.11587582009E+00  0.99862135612E-02  0.56834345240E-01  0.13059808536E+00  0.17285455105E-01 0.  0.
         14    1    1    2    0    0  0.78685658359E-02  0.43917934664E-02  0.21347993820E-01  0.23171944638E-01  0.00000000000E+00 0.  1.
     999901    1    3    3    0    0  0.10800725425E+00 -0.14378007028E-01 -0.78182339060E-01  0.89015997000E+00  0.88000000000E+00 0.  1.
        -11    1    4    4    0    0 -0.38072091965E-01  0.76130476321E-02  0.11404272601E-01  0.40469262848E-01  0.51100000000E-03 0.  1.
         11    1    4    4    0    0 -0.77803728121E-01  0.23731659291E-02  0.45430072638E-01  0.90128822510E-01  0.51100000000E-03 0. -1.
</event>
<event>
 8    1  0.1143506E+005  0.1043930E+01  0.7957747E-01            NaN
         13   -1    0    0    0    0  0.00000000000E+00  0.00000000000E+00  0.74505805969E-08  0.10566000000E+00  0.10566000000E+00 0. -1.
     999900   -1    0    0    0    0 -0.00000000000E+00 -0.00000000000E+00 -0.74505805969E-08  0.93827000000E+00  0.93827000000E+00 0.  1.
     999902    2    1    2    0    0  0.38228970463E-02 -0.37159361986E-02  0.23437178841E-01  0.10198941086E+01  0.10196108418E+01 0.  0.
     999903    2    3    3    0    0  0.51655139325E-01  0.10679155552E+00  0.52619996188E-01  0.13121448918E+00  0.19382683604E-01 0.  0.
         14    1    1    2    0    0 -0.38228970463E-02  0.37159361986E-02 -0.23437178841E-01  0.24035891406E-01  0.00000000000E+00 0.  1.
     999901    1    3    3    0    0 -0.47832242279E-01 -0.11050749172E+00 -0.29182817347E-01  0.88867961941E+00  0.88000000000E+00 0. -1.
        -11    1    4    4    0    0  0.23172300750E-01  0.48008788052E-01  0.34226754795E-01  0.63352435763E-01  0.51100000000E-03 0.  1.
         11    1    4    4    0    0  0.28482838575E-01  0.58782767468E-01  0.18393241393E-01  0.67862053421E-01  0.51100000000E-03 0. -1.
</event>
<event>
 8    1  0.1143506E+005  0.1043930E+01  0.7957747E-01            NaN
         13   -1    0    0    0    0  0.00000000000E+00  0.00000000000E+00  0.74505805969E-08  0.10566000000E+00  0.10566000000E+00 0. -1.
     999900   -1    0    0    0    0 -0.00000000000E+00 -0.00000000000E+00 -0.74505805969E-08  0.93827000000E+00  0.93827000000E+00 0.  1.
     999902    2    1    2    0    0  0.19083323747E-01 -0.14011534537E-01 -0.13578665107E-02  0.10202162878E+01  0.10199406521E+01 0.  0.
     999903    2    3    3    0    0  0.10579312628E+00  0.72112802397E-01 -0.22555886816E-01  0.13151760582E+00  0.19891474917E-01 0.  0.
         14    1    1    2    0    0 -0.19083323747E-01  0.14011534537E-01  0.13578665107E-02  0.23713712210E-01  0.00000000000E+00 0. -1.
     999901    1    3    3    0    0 -0.86709802529E-01 -0.86124336934E-01  0.21198020305E-01  0.88869868197E+00  0.88000000000E+00 0. -1.
        -11    1    4    4    0    0  0.39293288923E-01  0.16794556108E-01 -0.11905613774E-01  0.44362421367E-01  0.51100000000E-03 0.  1.
         11    1    4    4    0    0  0.66499837353E-01  0.55318246289E-01 -0.10650273042E-01  0.87155184455E-01  0.51100000000E-03 0. -1.
</event>
<event>
 8    1  0.1143506E+005  0.1043930E+01  0.7957747E-01            NaN
         13   -1    0    0    0    0  0.00000000000E+00  0.00000000000E+00  0.74505805969E-08  0.10566000000E+00  0.10566000000E+00 0.  1.
     999900   -1    0    0    0    0 -0.00000000000E+00 -0.00000000000E+00 -0.74505805969E-08  0.93827000000E+00  0.93827000000E+00 0.  1.
     999902    2    1    2    0    0  0.10341085571E-01 -0.83018145414E-02  0.21852549660E-01  0.10183684644E+01  0.10180476105E+01 0.  0.
     999903    2    3    3    0    0 -0.44922042974E-01 -0.11304467187E+00 -0.40094753498E-01  0.12827715004E+00  0.70957861958E-02 0.  0.
         14    1    1    2    0    0 -0.10341085571E-01  0.83018145414E-02 -0.21852549660E-01  0.25561535598E-01  0.00000000000E+00 0. -1.
     999901    1    3    3    0    0  0.55263128546E-01  0.10474285732E+00  0.61947303158E-01  0.89009131436E+00  0.88000000000E+00 0. -1.
        -11    1    4    4    0    0 -0.29369889829E-01 -0.71544854128E-01 -0.28905400350E-01  0.82565367262E-01  0.51100000000E-03 0. -1.
         11    1    4    4    0    0 -0.15552153145E-01 -0.41499817738E-01 -0.11189353149E-01  0.45711782776E-01  0.51100000000E-03 0.  1.
</event>
<event>
 8    1  0.1143506E+005  0.1043930E+01  0.7957747E-01            NaN
         13   -1    0    0    0    0  0.00000000000E+00  0.00000000000E+00  0.74505805969E-08  0.10566000000E+00  0.10566000000E+00 0.  1.
     999900   -1    0    0    0    0 -0.00000000000E+00 -0.00000000000E+00 -0.74505805969E-08  0.93827000000E+00  0.93827000000E+00 0. -1.
     999902    2    1    2    0    0  0.18508411257E-01 -0.43429669182E-02 -0.14803917983E-01  0.10198348005E+01  0.10195501173E+01 0.  0.
     999903    2    3    3    0    0  0.38892492718E-01 -0.58790775202E-01 -0.11062540107E+00  0.13272610866E+00  0.20230158663E-01 0.  0.
         14    1    1    2    0    0 -0.18508411257E-01  0.43429669182E-02  0.14803917983E-01  0.24095199450E-01  0.00000000000E+00 0. -1.
     999901    1    3    3    0    0 -0.20384081461E-01  0.54447808284E-01  0.95821483087E-01  0.88710869189E+00  0.88000000000E+00 0.  1.
        -11    1    4    4    0    0  0.40275185563E-01 -0.49210145531E-01 -0.94263115007E-01  0.11370806905E+00  0.51100000000E-03 0. -1.
         11    1    4    4    0    0 -0.13826928452E-02 -0.95806296712E-02 -0.16362286063E-01  0.19018039610E-01  0.51100000000E-03 0.  1.
</event>
<event>
 8    1  0.1143506E+005  0.1043930E+01  0.7957747E-01            NaN
         13   -1    0    0    0    0  0.00000000000E+00  0.00000000000E+00  0.74505805969E-08  0.10566000000E+00  0.10566000000E+00 0. -1.
     999900   -1    0    0    0    0 -0.00000000000E+00 -0.00000000000E+00 -0.74505805969E-08  0.93827000000E+00  0.93827000000E+00 0. -1.
     999902    2    1    2    0    0 -0.19254193905E-01  0.62339079727E-02  0.12789911178E-01  0.10199890848E+01  0.10197080787E+01 0.  0.
     999903    2    3    3    0    0 -0.94173031433E-01  0.12973974920E-01 -0.88196633296E-01  0.13102533816E+00  0.18764574083E-01 0.  0.
         14    1    1    2    0    0  0.19254193905E-01 -0.62339079727E-02 -0.12789911178E-01  0.23940915176E-01  0.00000000000E+00 0. -1.
     999901    1    3    3    0    0  0.74918837529E-01 -0.67400669471E-02  0.10098654447E+00  0.88896374666E+00  0.88000000000E+00 0.  1.
        -11    1    4    4    0    0 -0.45981540660E-01  0.13909645122E-01 -0.36441486073E-01  0.60299447238E-01  0.51100000000E-03 0. -1.
         11    1    4    4    0    0 -0.48191490773E-01 -0.93567020277E-03 -0.51755147223E-01  0.70725890922E-01  0.51100000000E-03 0.  1.
</event>
<event>
 8    1  0.1143506E+005  0.1043930E+01  0.7957747E-01            NaN
         13   -1    0    0    0    0  0.00000000000E+00  0.00000000000E+00  0.74505805969E-08  0.10566000000E+00  0.10566000000E+00 0.  1.
     999900   -1    0    0    0    0 -0.00000000000E+00 -0.00000000000E+00 -0.74505805969E-08  0.93827000000E+00  0.93827000000E+00 0.  1.
     999902    2    1    2    0    0  0.14750665794E-01 -0.18730516531E-01  0.33741994395E-03  0.10200861697E+01  0.10198074649E+01 0.  0.
     999903    2    3    3    0    0  0.10993120447E+00  0.55887330196E-01 -0.39492342354E-01  0.13092163602E+00  0.19301976143E-01 0.  0.
         14    1    1    2    0    0 -0.14750665794E-01  0.18730516531E-01 -0.33741994395E-03  0.23843830294E-01  0.00000000000E+00 0.  1.
     999901    1    3    3    0    0 -0.95180538672E-01 -0.74617846727E-01  0.39829762298E-01  0.88916453368E+00  0.88000000000E+00 0. -1.
        -11    1    4    4    0    0  0.73903710809E-01  0.37597098496E-01 -0.35892730822E-01  0.90354023339E-01  0.51100000000E-03 0. -1.
         11    1    4    4    0    0  0.36027493656E-01  0.18290231700E-01 -0.35996115314E-02  0.40567612685E-01  0.51100000000E-03 0.  1.
</event>
<event>
 8    1  0.1143506E+005  0.1043930E+01  0.7957747E-01            NaN
         13   -1    0    0    0    0  0.00000000000E+00  0.00000000000E+00  0.74505805969E-08  0.10566000000E+00  0.10566000000E+00 0. -1.
     999900   -1    0    0    0    0 -0.00000000000E+00 -0.00000000000E+00 -0.74505805969E-08  0.93827000000E+00  0.93827000000E+00 0. -1.
     999902    2    1    2    0    0  0.23954809715E-01  0.78942512594E-02 -0.16502821030E-02  0.10186540125E+01  0.10183403762E+01 0.  0.
     999903    2    3    3    0    0 -0.41979050421E-01 -0.95093265533E-01 -0.71108188219E-01  0.12748730352E+00  0.19790611494E-01 0.  0.
         14    1    1    2    0    0 -0.23954809715E-01 -0.78942512594E-02  0.16502821030E-02  0.25275987468E-01  0.00000000000E+00 0. -1.
     999901    1    3    3    0    0  0.65933860137E-01  0.10298751679E+00  0.69457906116E-01  0.89116670901E+00  0.88000000000E+00 0. -1.
        -11    1    4    4    0    0 -0.60536966238E-02 -0.35379281685E-01 -0.28181920508E-01  0.45637951092E-01  0.51100000000E-03 0.  1.
         11    1    4    4    0    0 -0.35925353798E-01 -0.59713983848E-01 -0.42926267711E-01  0.81849352429E-01  0.51100000000E-03 0. -1.
</event>
<event>
 8    1  0.1143506E+005  0.1043930E+01  0.7957747E-01            NaN
         13   -1    0    0    0    0  0.00000000000E+00  0.00000000000E+00  0.74505805969E-08  0.10566000000E+00  0.10566000000E+00 0. -1.
     999900   -1    0    0    0    0 -0.00000000000E+00 -0.00000000000E+00 -0.74505805969E-08  0.93827000000E+00  0.93827000000E+00 0.  1.
     999902    2    1    2    0    0  0.54793995953E-02  0.88728601268E-02 -0.22463177917E-01  0.10191641802E+01  0.10188632295E+01 0.  0.
     999903    2    3    3    0    0 -0.14285041567E-01 -0.47456219025E-02  0.12401482854E+00  0.12673384538E+00  0.21335569509E-01 0.  0.
         14    1    1    2    0    0 -0.54793995953E-02 -0.88728601268E-02  0.22463177917E-01  0.24765819770E-01  0.00000000000E+00 0. -1.
     999901    1    3    3    0    0  0.19764441162E-01  0.13618482029E-01 -0.14647800646E+00  0.89243033485E+00  0.88000000000E+00 0.  1.
        -11    1    4    4    0    0 -0.19562256217E-01 -0.33035859782E-02  0.10784957237E+00  0.10966032524E+00  0.51100000000E-03 0.  1.
         11    1    4    4    0    0  0.52772146503E-02 -0.14420359243E-02  0.16165256167E-01  0.17073520141E-01  0.51100000000E-03 0. -1.
</event>
<event>
 7    1  0.1143506E+005  0.1043930E+01  0.7957747E-01            NaN
         13   -1    0    0    0    0  0.00000000000E+00  0.00000000000E+00  0.74505805969E-08  0.10566000000E+00  0.10566000000E+00 0.  1.
     999900   -1    0    0    0    0 -0.00000000000E+00 -0.00000000000E+00 -0.74505805969E-08  0.93827000000E+00  0.93827000000E+00 0.  1.
     999902    2    1    2    0    0  0.23560777769E-01  0.62849821275E-02  0.40198493153E-03  0.10195420349E+01  0.10192503069E+01 0.  0.
         14    1    1    2    0    0 -0.23560777769E-01 -0.62849821275E-02 -0.40198493153E-03  0.24387965092E-01  0.00000000000E+00 0. -1.
     999901    1    3    3    0    0 -0.17311867967E-01  0.11286035749E+00 -0.23631673924E-01  0.88769117213E+00  0.88000000000E+00 0. -1.
        -11    1    3    3    0    0  0.50056999652E-01 -0.50692536376E-01  0.24119342068E-01  0.75215957358E-01  0.51100000000E-03 0.  1.
         11    1    3    3    0    0 -0.91843539160E-02 -0.55882838981E-01 -0.85683211994E-04  0.56634905421E-01  0.51100000000E-03 0. -1.
</event>
<event>
 8    1  0.1143506E+005  0.1043930E+01  0.7957747E-01            NaN
         13   -1    0    0    0    0  0.00000000000E+00  0.00000000000E+00  0.74505805969E-08  0.10566000000E+00  0.10566000000E+00 0.  1.
     999900   -1    0    0    0    0 -0.00000000000E+00 -0.00000000000E+00 -0.74505805969E-08  0.93827000000E+00  0.93827000000E+00 0. -1.
     999902    2    1    2    0    0  0.74622098503E-03 -0.22525478339E-01  0.73387789272E-02  0.10202274327E+01  0.10199520590E+01 0.  0.
     999903    2    3    3    0    0 -0.52376807203E-01  0.11376658241E+00  0.17513435753E-01  0.12809453589E+00  0.20379511449E-01 0.  0.
         14    1    1    2    0    0 -0.74622098503E-03  0.22525478339E-01 -0.73387789272E-02  0.23702567293E-01  0.00000000000E+00 0. -1.
     999901    1    3    3    0    0  0.53123028188E-01 -0.13629206075E+00 -0.10174656826E-01  0.89213289682E+00  0.88000000000E+00 0.  1.
        -11    1    4    4    0    0 -0.38208113019E-01  0.62417664503E-01  0.15365768242E-01  0.74780964805E-01  0.51100000000E-03 0.  1.
         11    1    4    4    0    0 -0.14168694184E-01  0.51348917904E-01  0.21476675112E-02  0.53313571082E-01  0.51100000000E-03 0. -1.
</event>
<event>
 8    1  0.1143506E+005  0.1043930E+01  0.7957747E-01            NaN
         13   -1    0    0    0    0  0.00000000000E+00  0.00000000000E+00  0.74505805969E-08  0.10566000000E+00  0.10566000000E+00 0. -1.
     999900   -1    0    0    0    0 -0.00000000000E+00 -0.00000000000E+00 -0.74505805969E-08  0.93827000000E+00  0.93827000000E+00 0. -1.
     999902    2    1    2    0    0  0.16745790597E-01 -0.22825768820E-02 -0.16761522680E-01  0.10201270527E+01  0.10198493140E+01 0.  0.
     999903    2    3    3    0    0 -0.35505403923E-01 -0.34135933783E-01  0.11650508901E+00  0.12799207774E+00  0.19561199251E-01 0.  0.
         14    1    1    2    0    0 -0.16745790597E-01  0.22825768820E-02  0.16761522680E-01  0.23802947349E-01  0.00000000000E+00 0. -1.
     999901    1    3    3    0    0  0.52251194520E-01  0.31853356901E-01 -0.13326661169E+00  0.89213497491E+00  0.88000000000E+00 0. -1.
        -11    1    4    4    0    0 -0.29710358036E-01 -0.27496746511E-01  0.71832773906E-01  0.82455957767E-01  0.51100000000E-03 0.  1.
         11    1    4    4    0    0 -0.57950458869E-02 -0.66391872716E-02  0.44672315100E-01  0.45536119970E-01  0.51100000000E-03 0. -1.
</event>
<event>
 8    1  0.1143506E+005  0.1043930E+01  0.7957747E-01            NaN
         13   -1    0    0    0    0  0.00000000000E+00  0.00000000000E+00  0.74505805969E-08  0.10566000000E+00  0.10566000000E+00 0. -1.
     999900   -1    0    0    0    0 -0.00000000000E+00 -0.00000000000E+00 -0.74505805969E-08  0.93827000000E+00  0.93827000000E+00 0. -1.
     999902    2    1    2    0    0  0.12871116165E-01  0.13022416387E-01 -0.11558689128E-01  0.10222770036E+01  0.10220476602E+01 0.  0.
     999903    2    3    3    0    0  0.11541778726E+00  0.65124053921E-01  0.11592689350E-01  0.13448964913E+00  0.19765304495E-01 0.  0.
         14    1    1    2    0    0 -0.12871116165E-01 -0.13022416387E-01  0.11558689128E-01  0.21652996427E-01  0.00000000000E+00 0. -1.
     999901    1    3    3    0    0 -0.10254667109E+00 -0.52101637534E-01 -0.23151378478E-01  0.88778735444E+00  0.88000000000E+00 0. -1.
        -11    1    4    4    0    0  0.10493966193E-01  0.13339923288E-01  0.13357414563E-02  0.17032974080E-01  0.51100000000E-03 0. -1.
         11    1    4    4    0    0  0.10492382107E+00  0.51784130633E-01  0.10256947894E-01  0.11745667505E+00  0.51100000000E-03 0.  1.
</event>
<event>
 8    1  0.1143506E+005  0.1043930E+01  0.7957747E-01            NaN
         13   -1    0    0    0    0  0.00000000000E+00  0.00000000000E+00  0.74505805969E-08  0.10566000000E+00  0.10566000000E+00 0. -1.
     999900   -1    0    0    0    0 -0.00000000000E+00 -0.00000000000E+00 -0.74505805969E-08  0.93827000000E+00  0.93827000000E+00 0. -1.
     999902    2    1    2    0    0 -0.84021653714E-02 -0.59137705967E-02 -0.21108845893E-01  0.10204533639E+01  0.10201832755E+01 0.  0.
     999903    2    3    3    0    0 -0.33137599652E-01  0.15722626728E-01  0.12153289904E+00  0.12836220112E+00  0.19008093637E-01 0.  0.
         14    1    1    2    0    0  0.84021653714E-02  0.59137705967E-02  0.21108845893E-01  0.23476636056E-01  0.00000000000E+00 0. -1.
     999901    1    3    3    0    0  0.24735434281E-01 -0.21636397325E-01 -0.14264174493E+00  0.89209116283E+00  0.88000000000E+00 0. -1.
        -11    1    4    4    0    0 -0.18685650941E-01  0.18735463071E-01  0.74255706599E-01  0.78831099264E-01  0.51100000000E-03 0.  1.
         11    1    4    4    0    0 -0.14451948711E-01 -0.30128363428E-02  0.47277192443E-01  0.49531101852E-01  0.51100000000E-03 0. -1.
</event>
<event>
 8    1  0.1143506E+005  0.1043930E+01  0.7957747E-01            NaN
         13   -1    0    0    0    0  0.00000000000E+00  0.00000000000E+00  0.74505805969E-08  0.10566000000E+00  0.10566000000E+00 0.  1.
     999900   -1    0    0    0    0 -0.00000000000E+00 -0.00000000000E+00 -0.74505805969E-08  0.93827000000E+00  0.93827000000E+00 0. -1.
     999902    2    1    2    0    0  0.24131257225E-01  0.83644142195E-03  0.22670245079E-02  0.10196780597E+01  0.10193896158E+01 0.  0.
     999903    2    3    3    0    0  0.77692199545E-01  0.82626230918E-01 -0.62860520409E-01  0.13187180755E+00  0.23990762670E-01 0.  0.
         14    1    1    2    0    0 -0.24131257225E-01 -0.83644142195E-03 -0.22670245079E-02  0.24251940327E-01  0.00000000000E+00 0. -1.
     999901    1    3    3    0    0 -0.53560942320E-01 -0.81789789496E-01  0.65127544917E-01  0.88780625213E+00  0.88000000000E+00 0. -1.
        -11    1    4    4    0    0  0.18097396729E-01  0.29688318702E-01 -0.98502773295E-02  0.36141404513E-01  0.51100000000E-03 0. -1.
         11    1    4    4    0    0  0.59594802816E-01  0.52937912216E-01 -0.53010243080E-01  0.95730403033E-01  0.51100000000E-03 0.  1.
</event>
<event>
 8    1  0.1143506E+005  0.1043930E+01  0.7957747E-01            NaN
         13   -1    0    0    0    0  0.00000000000E+00  0.00000000000E+00  0.74505805969E-08  0.10566000000E+00  0.10566000000E+00 0.  1.
     999900   -1    0    0    0    0 -0.00000000000E+00 -0.00000000000E+00 -0.74505805969E-08  0.93827000000E+00  0.93827000000E+00 0.  1.
     999902    2    1    2    0    0 -0.17954156719E-01 -0.89226333149E-02  0.99986715318E-02  0.10215260146E+01  0.10212803043E+01 0.  0.
     999903    2    3    3    0    0 -0.82508925758E-01  0.63781149501E-01 -0.78082764475E-01  0.13180049649E+00  0.19967345946E-01 0.  0.
         14    1    1    2    0    0  0.17954156719E-01  0.89226333149E-02 -0.99986715318E-02  0.22403985385E-01  0.00000000000E+00 0. -1.
     999901    1    3    3    0    0  0.64554769040E-01 -0.72703782816E-01  0.88081436007E-01  0.88972551813E+00  0.88000000000E+00 0. -1.
        -11    1    4    4    0    0 -0.81339080886E-02  0.45717972051E-02 -0.97695218812E-03  0.93956025382E-02  0.51100000000E-03 0. -1.
         11    1    4    4    0    0 -0.74375017670E-01  0.59209352296E-01 -0.77105812287E-01  0.12240489395E+00  0.51100000000E-03 0.  1.
</event>
<event>
 8    1  0.1143506E+005  0.1043930E+01  0.7957747E-01            NaN
         13   -1    0    0    0    0  0.00000000000E+00  0.00000000000E+00  0.74505805969E-08  0.10566000000E+00  0.10566000000E+00 0.  1.
     999900   -1    0    0    0    0 -0.00000000000E+00 -0.00000000000E+00 -0.74505805969E-08  0.93827000000E+00  0.93827000000E+00 0. -1.
     999902    2    1    2    0    0 -0.18004356402E-01 -0.11020678788E-01  0.88864319257E-02  0.10210262692E+01  0.10207693479E+01 0.  0.
     999903    2    3    3    0    0  0.67272355480E-01 -0.58334578570E-01  0.94792305294E-01  0.13148113729E+00  0.19318784907E-01 0.  0.
         14    1    1    2    0    0  0.18004356402E-01  0.11020678788E-01 -0.88864319257E-02  0.22903730761E-01  0.00000000000E+00 0. -1.
     999901    1    3    3    0    0 -0.85276711882E-01  0.47313899782E-01 -0.85905873368E-01  0.88954513195E+00  0.88000000000E+00 0. -1.
        -11    1    4    4    0    0  0.28763336308E-01 -0.13365522779E-01  0.29124695645E-01  0.43063624234E-01  0.51100000000E-03 0.  1.
         11    1    4    4    0    0  0.38509019171E-01 -0.44969055791E-01  0.65667609649E-01  0.88417513052E-01  0.51100000000E-03 0. -1.
</event>
<event>
 8    1  0.1143506E+005  0.1043930E+01  0.7957747E-01            NaN
         13   -1    0    0    0    0  0.00000000000E+00  0.00000000000E+00  0.74505805969E-08  0.10566000000E+00  0.10566000000E+00 0.  1.
     999900   -1    0    0    0    0 -0.00000000000E+00 -0.00000000000E+00 -0.74505805969E-08  0.93827000000E+00  0.93827000000E+00 0. -1.
     999902    2    1    2    0    0 -0.45842017978E-02 -0.36280230776E-02 -0.22904257781E-01  0.10202914196E+01  0.10200175481E+01 0.  0.
     999903    2    3    3    0    0  0.59277818372E-01 -0.92737240738E-01 -0.70529210536E-01  0.13221093543E+00  0.19781464481E-01 0.  0.
         14    1    1    2    0    0  0.45842017978E-02  0.36280230776E-02  0.22904257781E-01  0.23638580373E-01  0.00000000000E+00 0.  1.
     999901    1    3    3    0    0 -0.63862020169E-01  0.89109217660E-01  0.47624952755E-01  0.88808048420E+00  0.88000000000E+00 0. -1.
        -11    1    4    4    0    0  0.14186392189E-01 -0.14395567850E-01 -0.20947498064E-01  0.29112624293E-01  0.51100000000E-03 0. -1.
         11    1    4    4    0    0  0.45091426183E-01 -0.78341672888E-01 -0.49581712471E-01  0.10309831113E+00  0.51100000000E-03 0.  1.
</event>
<event>
 8    1  0.1143506E+005  0.1043930E+01  0.7957747E-01            NaN
         13   -1    0    0    0    0  0.00000000000E+00  0.00000000000E+00  0.74505805969E-08  0.10566000000E+00  0.10566000000E+00 0. -1.
     999900   -1    0    0    0    0 -0.00000000000E+00 -0.00000000000E+00 -0.74505805969E-08  0.93827000000E+00  0.93827000000E+00 0.  1.
     999902    2    1    2    0    0 -0.39685759314E-02 -0.22982798834E-01 -0.56109328327E-02  0.10199416444E+01  0.10196595102E+01 0.  0.
     999903    2    3    3    0    0  0.11292030212E-01 -0.57930347570E-01  0.11296419210E+00  0.13117042664E+00  0.31005435208E-01 0.  0.
         14    1    1    2    0    0  0.39685759314E-02  0.22982798834E-01  0.56109328327E-02  0.23988355600E-01  0.00000000000E+00 0.  1.
     999901    1    3    3    0    0 -0.15260606144E-01  0.34947548736E-01 -0.11857512493E+00  0.88877121776E+00  0.88000000000E+00 0.  1.
        -11    1    4    4    0    0  0.14768979224E-01 -0.20697239757E-01  0.25349142392E-01  0.35907361667E-01  0.51100000000E-03 0. -1.
         11    1    4    4    0    0 -0.34769490117E-02 -0.37233107813E-01  0.87615049709E-01  0.95263064974E-01  0.51100000000E-03 0.  1.
</event>
<event>
 8    1  0.1143506E+005  0.1043930E+01  0.7957747E-01            NaN
         13   -1    0    0    0    0  0.00000000000E+00  0.00000000000E+00  0.74505805969E-08  0.10566000000E+00  0.10566000000E+00 0. -1.
     999900   -1    0    0    0    0 -0.00000000000E+00 -0.00000000000E+00 -0.74505805969E-08  0.93827000000E+00  0.93827000000E+00 0. -1.
     999902    2    1    2    0    0  0.18223982992E-01  0.13244002120E-01  0.60061112982E-02  0.10206149722E+01  0.10203486321E+01 0.  0.
     999903    2    3    3    0    0 -0.22894402727E-01  0.91324362500E-01 -0.88523166771E-01  0.13116399057E+00  0.22435429661E-01 0.  0.
         14    1    1    2    0    0 -0.18223982992E-01 -0.13244002120E-01 -0.60061112982E-02  0.23315027797E-01  0.00000000000E+00 0.  1.
     999901    1    3    3    0    0  0.41118385718E-01 -0.78080360380E-01  0.94529278070E-01  0.88945098164E+00  0.88000000000E+00 0.  1.
        -11    1    4    4    0    0 -0.63495128284E-02  0.36945451668E-02 -0.44581544513E-02  0.86082657521E-02  0.51100000000E-03 0.  1.
         11    1    4    4    0    0 -0.16544889898E-01  0.87629817333E-01 -0.84065012320E-01  0.12255572482E+00  0.51100000000E-03 0. -1.
</event>
<event>
 8    1  0.1143506E+005  0.1043930E+01  0.7957747E-01            NaN
         13   -1    0    0    0    0  0.00000000000E+00  0.00000000000E+00  0.74505805969E-08  0.10566000000E+00  0.10566000000E+00 0. -1.
     999900   -1    0    0    0    0 -0.00000000000E+00 -0.00000000000E+00 -0.74505805969E-08  0.93827000000E+00  0.93827000000E+00 0. -1.
     999902    2    1    2    0    0  0.49529882936E-03 -0.24488760319E-01  0.99045266066E-02  0.10175094710E+01  0.10171663971E+01 0.  0.
     999903    2    3    3    0    0  0.74935380728E-01  0.92766862497E-01 -0.33378717948E-01  0.12556572499E+00  0.20775235678E-01 0.  0.
         14    1    1    2    0    0 -0.49529882936E-03  0.24488760319E-01 -0.99045266066E-02  0.26420528953E-01  0.00000000000E+00 0. -1.
     999901    1    3    3    0    0 -0.74440081898E-01 -0.11725562282E+00  0.43283244555E-01  0.89194374606E+00  0.88000000000E+00 0.  1.
        -11    1    4    4    0    0  0.36354000225E-01  0.60108427105E-01 -0.23367765428E-01  0.74033437874E-01  0.51100000000E-03 0.  1.
         11    1    4    4    0    0  0.38581380503E-01  0.32658435392E-01 -0.10010952520E-01  0.51532287113E-01  0.51100000000E-03 0. -1.
</event>
<event>
 8    1  0.1143506E+005  0.1043930E+01  0.7957747E-01            NaN
         13   -1    0    0    0    0  0.00000000000E+00  0.00000000000E+00  0.74505805969E-08  0.10566000000E+00  0.10566000000E+00 0.  1.
     999900   -1    0    0    0    0 -0.00000000000E+00 -0.00000000000E+00 -0.74505805969E-08  0.93827000000E+00  0.93827000000E+00 0.  1.
     999902    2    1    2    0    0 -0.76063638087E-02 -0.22657963877E-01  0.70483838327E-02  0.10190117374E+01  0.10187070242E+01 0.  0.
     999903    2    3    3    0    0  0.10392234888E+00  0.68418451239E-01 -0.15504772668E-01  0.12702395046E+00  0.20340770580E-01 0.  0.
         14    1    1    2    0    0  0.76063638087E-02  0.22657963877E-01 -0.70483838327E-02  0.24918262622E-01  0.00000000000E+00 0. -1.
     999901    1    3    3    0    0 -0.11152871269E+00 -0.91076415115E-01  0.22553156501E-01  0.89198778692E+00  0.88000000000E+00 0. -1.
        -11    1    4    4    0    0  0.56750864085E-01  0.25469452403E-01 -0.97878016712E-02  0.62971547247E-01  0.51100000000E-03 0. -1.
         11    1    4    4    0    0  0.47171484797E-01  0.42948998835E-01 -0.57169709968E-02  0.64052403213E-01  0.51100000000E-03 0.  1.
</event>
<event>
 8    1  0.1143506E+005  0.1043930E+01  0.7957747E-01            NaN
         13   -1    0    0    0    0  0.00000000000E+00  0.00000000000E+00  0.74505805969E-08  0.10566000000E+00  0.10566000000E+00 0.  1.
     999900   -1    0    0    0    0 -0.00000000000E+00 -0.00000000000E+00 -0.74505805969E-08  0.93827000000E+00  0.93827000000E+00 0.  1.
     999902    2    1    2    0    0  0.11251338230E-01 -0.18487516724E-01  0.74447367580E-02  0.10210432136E+01  0.10207866766E+01 0.  0.
     999903    2    3    3    0    0 -0.77484350199E-01  0.24661685784E-02 -0.10205818670E+00  0.12958150966E+00  0.19120346782E-01 0.  0.
         14    1    1    2    0    0 -0.11251338230E-01  0.18487516724E-01 -0.74447367580E-02  0.22886786406E-01  0.00000000000E+00 0. -1.
     999901    1    3    3    0    0  0.88735688429E-01 -0.20953685303E-01  0.10950292346E+00  0.89146170393E+00  0.88000000000E+00 0. -1.
        -11    1    4    4    0    0 -0.58057731622E-01  0.10124566625E-01 -0.76694247278E-01  0.96723708246E-01  0.51100000000E-03 0.  1.
         11    1    4    4    0    0 -0.19426618577E-01 -0.76583980467E-02 -0.25363939422E-01  0.32857801417E-01  0.51100000000E-03 0. -1.
</event>
<event>
 7    1  0.1143506E+005  0.1043930E+01  0.7957747E-01            NaN
         13   -1    0    0    0    0  0.00000000000E+00  0.00000000000E+00  0.74505805969E-08  0.10566000000E+00  0.10566000000E+00 0.  1.
     999900   -1    0    0    0    0 -0.00000000000E+00 -0.00000000000E+00 -0.74505805969E-08  0.93827000000E+00  0.93827000000E+00 0. -1.
     999903    2    1    2    0    0  0.74238945390E-01 -0.19493442290E-01  0.87990356097E-02  0.80190139752E-01  0.21485348053E-01 0.  0.
         14    1    1    2    0    0  0.18872493781E-01  0.73900813561E-01 -0.11616652569E-01  0.77152108743E-01  0.00000000000E+00 0.  1.
     999901    1    1    2    0    0 -0.93111439171E-01 -0.54407371272E-01  0.28176169590E-02  0.88658775150E+00  0.88000000000E+00 0. -1.
        -11    1    3    3    0    0  0.67755123294E-01 -0.12013139951E-01  0.11833158401E-01  0.69823756865E-01  0.51100000000E-03 0. -1.
         11    1    3    3    0    0  0.64838220960E-02 -0.74803023388E-02 -0.30341227909E-02  0.10366382887E-01  0.51100000000E-03 0.  1.
</event>
<event>
 8    1  0.1143506E+005  0.1043930E+01  0.7957747E-01            NaN
         13   -1    0    0    0    0  0.00000000000E+00  0.00000000000E+00  0.74505805969E-08  0.10566000000E+00  0.10566000000E+00 0.  1.
     999900   -1    0    0    0    0 -0.00000000000E+00 -0.00000000000E+00 -0.74505805969E-08  0.93827000000E+00  0.93827000000E+00 0.  1.
     999902    2    1    2    0    0  0.20963337295E-01 -0.13383418506E-02  0.11234753469E-01  0.10201083217E+01  0.10198301406E+01 0.  0.
     999903    2    3    3    0    0 -0.65683126198E-02 -0.46459248189E-01  0.12139477448E+00  0.13166636069E+00  0.19943289446E-01 0.  0.
         14    1    1    2    0    0 -0.20963337295E-01  0.13383418506E-02 -0.11234753469E-01  0.23821678257E-01  0.00000000000E+00 0. -1.
     999901    1    3    3    0    0  0.27531649915E-01  0.45120906338E-01 -0.11016002101E+00  0.88844196106E+00  0.88000000000E+00 0.  1.
        -11    1    4    4    0    0  0.69394935975E-02 -0.19354094092E-01  0.53728565655E-01  0.57530491201E-01  0.51100000000E-03 0.  1.
         11    1    4    4    0    0 -0.13507806217E-01 -0.27105154097E-01  0.67666208820E-01  0.74135869487E-01  0.51100000000E-03 0. -1.
</event>
<event>
 8    1  0.1143506E+005  0.1043930E+01  0.7957747E-01            NaN
         13   -1    0    0    0    0  0.00000000000E+00  0.00000000000E+00  0.74505805969E-08  0.10566000000E+00  0.10566000000E+00 0.  1.
     999900   -1    0    0    0    0 -0.00000000000E+00 -0.00000000000E+00 -0.74505805969E-08  0.93827000000E+00  0.93827000000E+00 0.  1.
     999902    2    1    2    0    0  0.14451394259E-01 -0.17460840017E-01 -0.20373700055E-02  0.10211731415E+01  0.10209195416E+01 0.  0.
     999903    2    3    3    0    0  0.19694007342E-01  0.85871666868E-01 -0.94082858106E-01  0.13034349237E+00  0.19391872478E-01 0.  0.
         14    1    1    2    0    0 -0.14451394259E-01  0.17460840017E-01  0.20373700055E-02  0.22756858453E-01  0.00000000000E+00 0. -1.
     999901    1    3    3    0    0 -0.52426130826E-02 -0.10333250688E+00  0.92045488100E-01  0.89082964918E+00  0.88000000000E+00 0.  1.
        -11    1    4    4    0    0  0.12451790428E-01  0.64877297493E-01 -0.57692350536E-01  0.87708490160E-01  0.51100000000E-03 0.  1.
         11    1    4    4    0    0  0.72422169141E-02  0.20994369375E-01 -0.36390507570E-01  0.42635002210E-01  0.51100000000E-03 0. -1.
</event>
<event>
 8    1  0.1143506E+005  0.1043930E+01  0.7957747E-01            NaN
         13   -1    0    0    0    0  0.00000000000E+00  0.00000000000E+00  0.74505805969E-08  0.10566000000E+00  0.10566000000E+00 0. -1.
     999900   -1    0    0    0    0 -0.00000000000E+00 -0.00000000000E+00 -0.74505805969E-08  0.93827000000E+00  0.93827000000E+00 0.  1.
     999902    2    1    2    0    0  0.22959228802E-01  0.23115281034E-02  0.75706208076E-02  0.10196445383E+01  0.10193552869E+01 0.  0.
     999903    2    3    3    0    0  0.11611758052E+00 -0.40955080794E-01 -0.43792900118E-01  0.13218260155E+00  0.19844669421E-01 0.  0.
         14    1    1    2    0    0 -0.22959228802E-01 -0.23115281034E-02 -0.75706208076E-02  0.24285461675E-01  0.00000000000E+00 0.  1.
     999901    1    3    3    0    0 -0.93158351714E-01  0.43266608897E-01  0.51363520925E-01  0.88746193677E+00  0.88000000000E+00 0.  1.
        -11    1    4    4    0    0  0.93285477297E-01 -0.40627507228E-01 -0.38048490236E-01  0.10863113434E+00  0.51100000000E-03 0. -1.
         11    1    4    4    0    0  0.22832103219E-01 -0.32757356577E-03 -0.57444098817E-02  0.23551467210E-01  0.51100000000E-03 0.  1.
</event>
<event>
 8    1  0.1143506E+005  0.1043930E+01  0.7957747E-01            NaN
         13   -1    0    0    0    0  0.00000000000E+00  0.00000000000E+00  0.74505805969E-08  0.10566000000E+00  0.10566000000E+00 0.  1.
     999900   -1    0    0    0    0 -0.00000000000E+00 -0.00000000000E+00 -0.74505805969E-08  0.93827000000E+00  0.93827000000E+00 0.  1.
     999902    2    1    2    0    0 -0.26885950775E-02  0.16611916037E-01  0.90719989868E-02  0.10248123259E+01  0.10246339921E+01 0.  0.
     999903    2    3    3    0    0  0.18697178309E-01  0.11619360706E+00  0.66455905603E-01  0.13708107307E+00  0.22897475995E-01 0.  0.
         14    1    1    2    0    0  0.26885950775E-02 -0.16611916037E-01 -0.90719989868E-02  0.19117674114E-01  0.00000000000E+00 0. -1.
     999901    1    3    3    0    0 -0.21385773386E-01 -0.99581691019E-01 -0.57383906616E-01  0.88773125282E+00  0.88000000000E+00 0.  1.
        -11    1    4    4    0    0  0.12669382484E-01  0.70992031745E-01  0.53116429556E-01  0.89565607426E-01  0.51100000000E-03 0. -1.
         11    1    4    4    0    0  0.60277958244E-02  0.45201575311E-01  0.13339476047E-01  0.47515465643E-01  0.51100000000E-03 0.  1.
</event>
<event>
 8    1  0.1143506E+005  0.1043930E+01  0.7957747E-01            NaN
         13   -1    0    0    0    0  0.00000000000E+00  0.00000000000E+00  0.74505805969E-08  0.10566000000E+00  0.10566000000E+00 0.  1.
     999900   -1    0    0    0    0 -0.00000000000E+00 -0.00000000000E+00 -0.74505805969E-08  0.93827000000E+00  0.93827000000E+00 0.  1.
     999902    2    1    2    0    0 -0.39933081859E-02 -0.22871063266E-01 -0.66221021193E-02  0.10197870035E+01  0.10195011761E+01 0.  0.
     999903    2    3    3    0    0 -0.63674669391E-01 -0.88478649916E-01 -0.73115727109E-01  0.13283287699E+00  0.20389424879E-01 0.  0.
         14    1    1    2    0    0  0.39933081859E-02  0.22871063266E-01  0.66221021193E-02  0.24142996534E-01  0.00000000000E+00 0.  1.
     999901    1    3    3    0    0  0.59681361205E-01  0.65607586650E-01  0.66493624990E-01  0.88695412647E+00  0.88000000000E+00 0. -1.
        -11    1    4    4    0    0 -0.12984437707E-01 -0.19517063215E-01 -0.26458418029E-01  0.35352798824E-01  0.51100000000E-03 0. -1.
         11    1    4    4    0    0 -0.50690231684E-01 -0.68961586701E-01 -0.46657309080E-01  0.97480078170E-01  0.51100000000E-03 0.  1.
</event>
<event>
 8    1  0.1143506E+005  0.1043930E+01  0.7957747E-01            NaN
         13   -1    0    0    0    0  0.00000000000E+00  0.00000000000E+00  0.74505805969E-08  0.10566000000E+00  0.10566000000E+00 0. -1.
     999900   -1    0    0    0    0 -0.00000000000E+00 -0.00000000000E+00 -0.74505805969E-08  0.93827000000E+00  0.93827000000E+00 0.  1.
     999902    2    1    2    0    0  0.55376992660E-02  0.17812398470E-01  0.15160850128E-01  0.10198925494E+01  0.10196092454E+01 0.  0.
     999903    2    3    3    0    0  0.39681600139E-01 -0.11795106631E+00  0.26255792646E-01  0.12875809153E+00  0.20054826194E-01 0.  0.
         14    1    1    2    0    0 -0.55376992660E-02 -0.17812398470E-01 -0.15160850128E-01  0.24037450551E-01  0.00000000000E+00 0.  1.
     999901    1    3    3    0    0 -0.34143900873E-01  0.13576346478E+00 -0.11094942518E-01  0.89113445792E+00  0.88000000000E+00 0.  1.
        -11    1    4    4    0    0  0.23667575628E-01 -0.40072066067E-01  0.98366854436E-02  0.47570433218E-01  0.51100000000E-03 0.  1.
         11    1    4    4    0    0  0.16014024511E-01 -0.77879000246E-01  0.16419107202E-01  0.81187658315E-01  0.51100000000E-03 0. -1.
</event>
<event>
 8    1  0.1143506E+005  0.1043930E+01  0.7957747E-01            NaN
         13   -1    0    0    0    0  0.00000000000E+00  0.00000000000E+00  0.74505805969E-08  0.10566000000E+00  0.10566000000E+00 0. -1.
     999900   -1    0    0    0    0 -0.00000000000E+00 -0.00000000000E+00 -0.74505805969E-08  0.93827000000E+00  0.93827000000E+00 0. -1.
     999902    2    1    2    0    0 -0.13347521248E-01 -0.17932680465E-01 -0.86805147202E-02  0.10199489932E+01  0.10196670339E+01 0.  0.
     999903    2    3    3    0    0 -0.61904360710E-02  0.10884444300E+00 -0.66007262626E-01  0.12898882632E+00  0.19892820961E-01 0.  0.
         14    1    1    2    0    0  0.13347521248E-01  0.17932680465E-01  0.86805147202E-02  0.23981006817E-01  0.00000000000E+00 0. -1.
     999901    1    3    3    0    0 -0.71570851773E-02 -0.12677712347E+00  0.57326747906E-01  0.89096016686E+00  0.88000000000E+00 0.  1.
        -11    1    4    4    0    0 -0.87675924388E-03  0.10925292707E-01 -0.14610192178E-01  0.18271550672E-01  0.51100000000E-03 0.  1.
         11    1    4    4    0    0 -0.53136768271E-02  0.97919150296E-01 -0.51397070449E-01  0.11071727565E+00  0.51100000000E-03 0. -1.
</event>
<event>
 8    1  0.1143506E+005  0.1043930E+01  0.7957747E-01            NaN
         13   -1    0    0    0    0  0.00000000000E+00  0.00000000000E+00  0.74505805969E-08  0.10566000000E+00  0.10566000000E+00 0. -1.
     999900   -1    0    0    0    0 -0.00000000000E+00 -0.00000000000E+00 -0.74505805969E-08  0.93827000000E+00  0.93827000000E+00 0.  1.
     999902    2    1    2    0    0 -0.72275498550E-02 -0.19933624193E-01  0.15930226373E-01  0.10174090844E+01  0.10170633639E+01 0.  0.
     999903    2    3    3    0    0  0.95029480625E-01  0.79835190560E-01  0.24023648068E-03  0.12574968059E+00  0.20215454836E-01 0.  0.
         14    1    1    2    0    0  0.72275498550E-02  0.19933624193E-01 -0.15930226373E-01  0.26520915570E-01  0.00000000000E+00 0. -1.
     999901    1    3    3    0    0 -0.10225703048E+00 -0.99768814754E-01  0.15689989892E-01  0.89165940384E+00  0.88000000000E+00 0.  1.
        -11    1    4    4    0    0  0.42705496203E-01  0.40527336694E-01  0.95452156540E-02  0.59645592363E-01  0.51100000000E-03 0.  1.
         11    1    4    4    0    0  0.52323984422E-01  0.39307853866E-01 -0.93049791733E-02  0.66104088223E-01  0.51100000000E-03 0. -1.
</event>
<event>
 8    1  0.1143506E+005  0.1043930E+01  0.7957747E-01            NaN
         13   -1    0    0    0    0  0.00000000000E+00  0.00000000000E+00  0.74505805969E-08  0.10566000000E+00  0.10566000000E+00 0. -1.
     999900   -1    0    0    0    0 -0.00000000000E+00 -0.00000000000E+00 -0.74505805969E-08  0.93827000000E+00  0.93827000000E+00 0.  1.
     999902    2    1    2    0    0 -0.29114546602E-02 -0.51789452970E-02 -0.21047783793E-01  0.10220597635E+01  0.10218257449E+01 0.  0.
     999903    2    3    3    0    0 -0.11742885855E+00  0.50555584378E-01  0.25377154170E-01  0.13168015430E+00  0.18715211727E-01 0.  0.
         14    1    1    2    0    0  0.29114546602E-02  0.51789452970E-02  0.21047783793E-01  0.21870236516E-01  0.00000000000E+00 0. -1.
     999901    1    3    3    0    0  0.11451740389E+00 -0.55734529675E-01 -0.46424937964E-01  0.89037960919E+00  0.88000000000E+00 0.  1.
        -11    1    4    4    0    0 -0.36863166538E-01  0.15930341447E-01 -0.78212290509E-03  0.40168914139E-01  0.51100000000E-03 0.  1.
         11    1    4    4    0    0 -0.80565692011E-01  0.34625242931E-01  0.26159277075E-01  0.91511240158E-01  0.51100000000E-03 0. -1.
</event>
<event>
 8    1  0.1143506E+005  0.1043930E+01  0.7957747E-01            NaN
         13   -1    0    0    0    0  0.00000000000E+00  0.00000000000E+00  0.74505805969E-08  0.10566000000E+00  0.10566000000E+00 0. -1.
     999900   -1    0    0    0    0 -0.00000000000E+00 -0.00000000000E+00 -0.74505805969E-08  0.93827000000E+00  0.93827000000E+00 0.  1.
     999902    2    1    2    0    0  0.19819452271E-01  0.11445924434E-01  0.53302222205E-02  0.10204304012E+01  0.10201597780E+01 0.  0.
     999903    2    3    3    0    0 -0.12592114470E+00  0.75497079768E-02  0.14401966137E-01  0.12838903521E+00  0.19057674564E-01 0.  0.
         14    1    1    2    0    0 -0.19819452271E-01 -0.11445924434E-01 -0.53302222205E-02  0.23499598792E-01  0.00000000000E+00 0. -1.
     999901    1    3    3    0    0  0.14574059698E+00  0.38962164576E-02 -0.90717439163E-02  0.89204136600E+00  0.88000000000E+00 0.  1.
        -11    1    4    4    0    0 -0.90301699828E-01 -0.11239813682E-02  0.45505246308E-02  0.90424713001E-01  0.51100000000E-03 0.  1.
         11    1    4    4    0    0 -0.35619444877E-01  0.86736893450E-02  0.98514415061E-02  0.37964322211E-01  0.51100000000E-03 0. -1.
</event>
<event>
 8    1  0.1143506E+005  0.1043930E+01  0.7957747E-01            NaN
         13   -1    0    0    0    0  0.00000000000E+00  0.00000000000E+00  0.74505805969E-08  0.10566000000E+00  0.10566000000E+00 0. -1.
     999900   -1    0    0    0    0 -0.00000000000E+00 -0.00000000000E+00 -0.74505805969E-08  0.93827000000E+00  0.93827000000E+00 0.  1.
     999902    2    1    2    0    0  0.17935237199E-01 -0.58771847792E-02 -0.14259589998E-01  0.10202751920E+01  0.10200009399E+01 0.  0.
     999903    2    3    3    0    0 -0.40788351465E-01 -0.12141853996E+00 -0.16890555615E-01  0.13077803822E+00  0.20284303053E-01 0.  0.
         14    1    1    2    0    0 -0.17935237199E-01  0.58771847792E-02  0.14259589998E-01  0.23654807994E-01  0.00000000000E+00 0. -1.
     999901    1    3    3    0    0  0.58723588664E-01  0.11554135518E+00  0.26309656173E-02  0.88949715379E+00  0.88000000000E+00 0. -1.
        -11    1    4    4    0    0 -0.14314325197E-01 -0.71456972891E-01 -0.54036195692E-02  0.73078444880E-01  0.51100000000E-03 0.  1.
         11    1    4    4    0    0 -0.26474026268E-01 -0.49961567065E-01 -0.11486936046E-01  0.57699593336E-01  0.51100000000E-03 0. -1.
</event>
<event>
 8    1  0.1143506E+005  0.1043930E+01  0.7957747E-01            NaN
         13   -1    0    0    0    0  0.00000000000E+00  0.00000000000E+00  0.74505805969E-08  0.10566000000E+00  0.10566000000E+00 0. -1.
     999900   -1    0    0    0    0 -0.00000000000E+00 -0.00000000000E+00 -0.74505805969E-08  0.93827000000E+00  0.93827000000E+00 0.  1.
     999902    2    1    2    0    0  0.44017033625E-02  0.15879747311E-01 -0.17421559545E-01  0.10199497560E+01  0.10196678148E+01 0.  0.
     999903    2    3    3    0    0  0.58024281725E-02 -0.11361867298E+00  0.54080014872E-01  0.12760213422E+00  0.20366286494E-01 0.  0.
         14    1    1    2    0    0 -0.44017033625E-02 -0.15879747311E-01  0.17421559545E-01  0.23980244039E-01  0.00000000000E+00 0. -1.
     999901    1    3    3    0    0 -0.14007248100E-02  0.12949842029E+00 -0.71501574418E-01  0.89234762174E+00  0.88000000000E+00 0.  1.
        -11    1    4    4    0    0  0.10569959348E-01 -0.40485183870E-01  0.14362315719E-01  0.44241512038E-01  0.51100000000E-03 0. -1.
         11    1    4    4    0    0 -0.47675311753E-02 -0.73133489111E-01  0.39717699154E-01  0.83360622179E-01  0.51100000000E-03 0.  1.
</event>
<event>
 8    1  0.1143506E+005  0.1043930E+01  0.7957747E-01            NaN
         13   -1    0    0    0    0  0.00000000000E+00  0.00000000000E+00  0.74505805969E-08  0.10566000000E+00  0.10566000000E+00 0. -1.
     999900   -1    0    0    0    0 -0.00000000000E+00 -0.00000000000E+00 -0.74505805969E-08  0.93827000000E+00  0.93827000000E+00 0. -1.
     999902    2    1    2    0    0 -0.96851710242E-02  0.73975068151E-02  0.17079926997E-01  0.10229478754E+01  0.10227326661E+01 0.  0.
     999903    2    3    3    0    0 -0.82365583917E-01  0.87655036156E-01  0.58761130139E-01  0.13533251047E+00  0.19862608023E-01 0.  0.
         14    1    1    2    0    0  0.96851710242E-02 -0.73975068151E-02 -0.17079926997E-01  0.20982124560E-01  0.00000000000E+00 0.  1.
     999901    1    3    3    0    0  0.72680412893E-01 -0.80257529341E-01 -0.41681203142E-01  0.88761536497E+00  0.88000000000E+00 0. -1.
        -11    1    4    4    0    0 -0.60616137803E-01  0.69023009139E-01  0.53195530232E-01  0.10615327367E+00  0.51100000000E-03 0. -1.
         11    1    4    4    0    0 -0.21749446114E-01  0.18632027018E-01  0.55655999066E-02  0.29179236803E-01  0.51100000000E-03 0.  1.
</event>
<event>
 8    1  0.1143506E+005  0.1043930E+01  0.7957747E-01            NaN
         13   -1    0    0    0    0  0.00000000000E+00  0.00000000000E+00  0.74505805969E-08  0.10566000000E+00  0.10566000000E+00 0. -1.
     999900   -1    0    0    0    0 -0.00000000000E+00 -0.00000000000E+00 -0.74505805969E-08  0.93827000000E+00  0.93827000000E+00 0. -1.
     999902    2    1    2    0    0 -0.11438929839E-01  0.57600074413E-02 -0.21266261791E-01  0.10191049986E+01  0.10188025901E+01 0.  0.
     999903    2    3    3    0    0 -0.84759135543E-01 -0.95537699939E-01 -0.15790604637E-01  0.13024783301E+00  0.20089590367E-01 0.  0.
         14    1    1    2    0    0  0.11438929839E-01 -0.57600074413E-02  0.21266261791E-01  0.24825001352E-01  0.00000000000E+00 0.  1.
     999901    1    3    3    0    0  0.73320205704E-01  0.10129770738E+00 -0.54756571536E-02  0.88885716564E+00  0.88000000000E+00 0. -1.
        -11    1    4    4    0    0 -0.64398468751E-01 -0.59117180250E-01 -0.13501740266E-01  0.88456553682E-01  0.51100000000E-03 0. -1.
         11    1    4    4    0    0 -0.20360666792E-01 -0.36420519690E-01 -0.22888643709E-02  0.41791279327E-01  0.51100000000E-03 0.  1.
</event>
<event>
 8    1  0.1143506E+005  0.1043930E+01  0.7957747E-01            NaN
         13   -1    0    0    0    0  0.00000000000E+00  0.00000000000E+00  0.74505805969E-08  0.10566000000E+00  0.10566000000E+00 0. -1.
     999900   -1    0    0    0    0 -0.00000000000E+00 -0.00000000000E+00 -0.74505805969E-08  0.93827000000E+00  0.93827000000E+00 0. -1.
     999902    2    1    2    0    0 -0.11116185303E-01 -0.19163065948E-01 -0.25308473711E-02  0.10216320660E+01  0.10213887019E+01 0.  0.
     999903    2    3    3    0    0 -0.31792240350E-01  0.96756449262E-01 -0.79137620065E-01  0.13049042132E+00  0.19809849234E-01 0.  0.
         14    1    1    2    0    0  0.11116185303E-01  0.19163065948E-01  0.25308473711E-02  0.22297934000E-01  0.00000000000E+00 0.  1.
     999901    1    3    3    0    0  0.20676055046E-01 -0.11591951521E+00  0.76606772694E-01  0.89114164468E+00  0.88000000000E+00 0.  1.
        -11    1    4    4    0    0 -0.15932273292E-01  0.73206251966E-01 -0.51900102401E-01  0.91142056206E-01  0.51100000000E-03 0. -1.
         11    1    4    4    0    0 -0.15859967057E-01  0.23550197296E-01 -0.27237517664E-01  0.39348365115E-01  0.51100000000E-03 0.  1.
</event>
<event>
 8    1  0.1143506E+005  0.1043930E+01  0.7957747E-01            NaN
         13   -1    0    0    0    0  0.00000000000E+00  0.00000000000E+00  0.74505805969E-08  0.10566000000E+00  0.10566000000E+00 0.  1.
     999900   -1    0    0    0    0 -0.00000000000E+00 -0.00000000000E+00 -0.74505805969E-08  0.93827000000E+00  0.93827000000E+00 0.  1.
     999902    2    1    2    0    0  0.99097048234E-02  0.13200522640E-01 -0.13975152146E-01  0.10223022187E+01  0.10220734149E+01 0.  0.
     999903    2    3    3    0    0  0.98464249583E-01  0.73249398783E-01 -0.52463191659E-01  0.13498654536E+00  0.20206387123E-01 0.  0.
         14    1    1    2    0    0 -0.99097048234E-02 -0.13200522640E-01  0.13975152146E-01  0.21627781328E-01  0.00000000000E+00 0.  1.
     999901    1    3    3    0    0 -0.88554544759E-01 -0.60048876143E-01  0.38488039513E-01  0.88731567331E+00  0.88000000000E+00 0. -1.
        -11    1    4    4    0    0  0.32138677497E-01  0.36150141422E-01 -0.19954459372E-01  0.52327515572E-01  0.51100000000E-03 0.  1.
         11    1    4    4    0    0  0.66325572085E-01  0.37099257361E-01 -0.32508732287E-01  0.82659029786E-01  0.51100000000E-03 0. -1.
</event>
<event>
 8    1  0.1143506E+005  0.1043930E+01  0.7957747E-01            NaN
         13   -1    0    0    0    0  0.00000000000E+00  0.00000000000E+00  0.74505805969E-08  0.10566000000E+00  0.10566000000E+00 0.  1.
     999900   -1    0    0    0    0 -0.00000000000E+00 -0.00000000000E+00 -0.74505805969E-08  0.93827000000E+00  0.93827000000E+00 0.  1.
     999902    2    1    2    0    0 -0.12022812635E-03  0.21269864831E-01  0.10143834886E-01  0.10203647928E+01  0.10200926386E+01 0.  0.
     999903    2    3    3    0    0  0.10887285746E+00  0.28743716769E-01  0.65710471997E-01  0.13186999690E+00  0.19807311936E-01 0.  0.
         14    1    1    2    0    0  0.12022812635E-03 -0.21269864831E-01 -0.10143834886E-01  0.23565207211E-01  0.00000000000E+00 0. -1.
     999901    1    3    3    0    0 -0.10899308559E+00 -0.74738519377E-02 -0.55566637111E-01  0.88849479589E+00  0.88000000000E+00 0.  1.
        -11    1    4    4    0    0  0.52558288661E-01  0.19842891607E-01  0.23352420615E-01  0.60841685742E-01  0.51100000000E-03 0. -1.
         11    1    4    4    0    0  0.56314568799E-01  0.89008251620E-02  0.42358051382E-01  0.71028311154E-01  0.51100000000E-03 0.  1.
</event>
<event>
 8    1  0.1143506E+005  0.1043930E+01  0.7957747E-01            NaN
         13   -1    0    0    0    0  0.00000000000E+00  0.00000000000E+00  0.74505805969E-08  0.10566000000E+00  0.10566000000E+00 0.  1.
     999900   -1    0    0    0    0 -0.00000000000E+00 -0.00000000000E+00 -0.74505805969E-08  0.93827000000E+00  0.93827000000E+00 0.  1.
     999902    2    1    2    0    0 -0.15513309588E-01  0.11639517534E-01 -0.14472613470E-01  0.10197308743E+01  0.10194437004E+01 0.  0.
     999903    2    3    3    0    0 -0.81861872437E-01 -0.31418520904E-01 -0.97062816941E-01  0.13233171488E+00  0.20050005412E-01 0.  0.
         14    1    1    2    0    0  0.15513309588E-01 -0.11639517534E-01  0.14472613470E-01  0.24199125675E-01  0.00000000000E+00 0.  1.
     999901    1    3    3    0    0  0.66348562850E-01  0.43058038438E-01  0.82590203471E-01  0.88739915944E+00  0.88000000000E+00 0. -1.
        -11    1    4    4    0    0 -0.54165740795E-01 -0.18484826347E-01 -0.76279010731E-01  0.95364379513E-01  0.51100000000E-03 0.  1.
         11    1    4    4    0    0 -0.27696131643E-01 -0.12933694557E-01 -0.20783806210E-01  0.36967335371E-01  0.51100000000E-03 0. -1.
</event>
<event>
 7    1  0.1143506E+005  0.1043930E+01  0.7957747E-01            NaN
         13   -1    0    0    0    0  0.00000000000E+00  0.00000000000E+00  0.74505805969E-08  0.10566000000E+00  0.10566000000E+00 0. -1.
     999900   -1    0    0    0    0 -0.00000000000E+00 -0.00000000000E+00 -0.74505805969E-08  0.93827000000E+00  0.93827000000E+00 0.  1.
     999903    2    1    2    0    0  0.48703088926E-01  0.66493214364E-01 -0.27495392693E-01  0.89112983727E-01  0.19793656106E-01 0.  0.
         14    1    1    2    0    0 -0.50904188014E-01  0.19949588065E-01 -0.40392919147E-01  0.67976542561E-01  0.00000000000E+00 0.  1.
     999901    1    1    2    0    0  0.22010990882E-02 -0.86442802429E-01  0.67888311840E-01  0.88684047371E+00  0.88000000000E+00 0. -1.
        -11    1    3    3    0    0  0.49486639557E-02  0.97425595669E-02  0.28297440864E-02  0.11299350179E-01  0.51100000000E-03 0. -1.
         11    1    3    3    0    0  0.43754424970E-01  0.56750654797E-01 -0.30325136780E-01  0.77813633549E-01  0.51100000000E-03 0.  1.
</event>
<event>
 8    1  0.1143506E+005  0.1043930E+01  0.7957747E-01            NaN
         13   -1    0    0    0    0  0.00000000000E+00  0.00000000000E+00  0.74505805969E-08  0.10566000000E+00  0.10566000000E+00 0.  1.
     999900   -1    0    0    0    0 -0.00000000000E+00 -0.00000000000E+00 -0.74505805969E-08  0.93827000000E+00  0.93827000000E+00 0. -1.
     999902    2    1    2    0    0  0.62254628847E-02 -0.19154180447E-01  0.12820833940E-01  0.10200550592E+01  0.10197756179E+01 0.  0.
     999903    2    3    3    0    0 -0.15709346919E-01  0.12506707127E+00 -0.69201830113E-02  0.12782716615E+00  0.20083315869E-01 0.  0.
         14    1    1    2    0    0 -0.62254628847E-02  0.19154180447E-01 -0.12820833940E-01  0.23874940831E-01  0.00000000000E+00 0.  1.
     999901    1    3    3    0    0  0.21934809804E-01 -0.14422125172E+00  0.19741016951E-01  0.89222789302E+00  0.88000000000E+00 0. -1.
        -11    1    4    4    0    0  0.12803138937E-02  0.57027543036E-01 -0.85285746925E-02  0.57678224450E-01  0.51100000000E-03 0. -1.
         11    1    4    4    0    0 -0.16989660813E-01  0.68039528236E-01  0.16083916812E-02  0.70148941702E-01  0.51100000000E-03 0.  1.
</event>
<event>
 8    1  0.1143506E+005  0.1043930E+01  0.7957747E-01            NaN
         13   -1    0    0    0    0  0.00000000000E+00  0.00000000000E+00  0.74505805969E-08  0.10566000000E+00  0.10566000000E+00 0. -1.
     999900   -1    0    0    0    0 -0.00000000000E+00 -0.00000000000E+00 -0.74505805969E-08  0.93827000000E+00  0.93827000000E+00 0. -1.
     999902    2    1    2    0    0  0.12675648347E-01  0.19072653418E-01 -0.45530546754E-02  0.10205811569E+01  0.10203140346E+01 0.  0.
     999903    2    3    3    0    0  0.54660958028E-01 -0.72402289853E-01 -0.91602923172E-01  0.13057660008E+00  0.20718133255E-01 0.  0.
         14    1    1    2    0    0 -0.12675648347E-01 -0.19072653418E-01  0.45530546754E-02  0.23348843147E-01  0.00000000000E+00 0.  1.
     999901    1    3    3    0    0 -0.41985309681E-01  0.91474943271E-01  0.87049868497E-01  0.89000455678E+00  0.88000000000E+00 0. -1.
        -11    1    4    4    0    0  0.39059502313E-01 -0.43939019771E-01 -0.70765844808E-01  0.92001891783E-01  0.51100000000E-03 0.  1.
         11    1    4    4    0    0  0.15601455715E-01 -0.28463270082E-01 -0.20837078365E-01  0.38574708294E-01  0.51100000000E-03 0. -1.
</event>
<event>
 7    1  0.1143506E+005  0.1043930E+01  0.7957747E-01            NaN
         13   -1    0    0    0    0  0.00000000000E+00  0.00000000000E+00  0.74505805969E-08  0.10566000000E+00  0.10566000000E+00 0.  1.
     999900   -1    0    0    0    0 -0.00000000000E+00 -0.00000000000E+00 -0.74505805969E-08  0.93827000000E+00  0.93827000000E+00 0. -1.
     999903    2    1    2    0    0  0.39328655467E-01 -0.47180856300E-01 -0.13721119820E-01  0.66044363245E-01  0.20020300828E-01 0.  0.
         14    1    1    2    0    0  0.70170043683E-01  0.56633232937E-01  0.12594543452E-01  0.91048232428E-01  0.00000000000E+00 0. -1.
     999901    1    1    2    0    0 -0.10949869915E+00 -0.94523766373E-02  0.11265763677E-02  0.88683740433E+00  0.88000000000E+00 0.  1.
        -11    1    3    3    0    0  0.20749710431E-01 -0.13980736475E-01  0.14858604011E-02  0.25069510915E-01  0.51100000000E-03 0.  1.
         11    1    3    3    0    0  0.18578945036E-01 -0.33200119825E-01 -0.15206980221E-01  0.40974852331E-01  0.51100000000E-03 0. -1.
</event>
<event>
 8    1  0.1143506E+005  0.1043930E+01  0.7957747E-01            NaN
         13   -1    0    0    0    0  0.00000000000E+00  0.00000000000E+00  0.74505805969E-08  0.10566000000E+00  0.10566000000E+00 0.  1.
     999900   -1    0    0    0    0 -0.00000000000E+00 -0.00000000000E+00 -0.74505805969E-08  0.93827000000E+00  0.93827000000E+00 0.  1.
     999902    2    1    2    0    0 -0.85452079943E-02 -0.21090973221E-01 -0.60445647053E-02  0.10203845866E+01  0.10201128947E+01 0.  0.
     999903    2    3    3    0    0  0.10215439501E+00 -0.51102391838E-01  0.57806645912E-01  0.13064751055E+00  0.26080430017E-01 0.  0.
         14    1    1    2    0    0  0.85452079943E-02  0.21090973221E-01  0.60445647053E-02  0.23545413429E-01  0.00000000000E+00 0.  1.
     999901    1    3    3    0    0 -0.11069960300E+00  0.30011418617E-01 -0.63851210618E-01  0.88973707602E+00  0.88000000000E+00 0.  1.
        -11    1    4    4    0    0  0.23753220248E-01 -0.19400300437E-01  0.53677173282E-02  0.31139374424E-01  0.51100000000E-03 0. -1.
         11    1    4    4    0    0  0.78401174759E-01 -0.31702091401E-01  0.52438928584E-01  0.99508136124E-01  0.51100000000E-03 0.  1.
</event>
<event>
 8    1  0.1143506E+005  0.1043930E+01  0.7957747E-01            NaN
         13   -1    0    0    0    0  0.00000000000E+00  0.00000000000E+00  0.74505805969E-08  0.10566000000E+00  0.10566000000E+00 0. -1.
     999900   -1    0    0    0    0 -0.00000000000E+00 -0.00000000000E+00 -0.74505805969E-08  0.93827000000E+00  0.93827000000E+00 0. -1.
     999902    2    1    2    0    0  0.42025876981E-02 -0.21819953462E-01  0.82911137550E-02  0.10202126081E+01  0.10199368858E+01 0.  0.
     999903    2    3    3    0    0 -0.64221356380E-01  0.10637377382E+00  0.23867005545E-01  0.12815987631E+00  0.20385229224E-01 0.  0.
         14    1    1    2    0    0 -0.42025876981E-02  0.21819953462E-01 -0.82911137550E-02  0.23717391926E-01  0.00000000000E+00 0.  1.
     999901    1    3    3    0    0  0.68423944078E-01 -0.12819372728E+00 -0.15575891790E-01  0.89205273176E+00  0.88000000000E+00 0. -1.
        -11    1    4    4    0    0 -0.30789455179E-01  0.32231009007E-01  0.91343455877E-02  0.45503031571E-01  0.51100000000E-03 0.  1.
         11    1    4    4    0    0 -0.33431901201E-01  0.74142764814E-01  0.14732659958E-01  0.82656844741E-01  0.51100000000E-03 0. -1.
</event>
<event>
 8    1  0.1143506E+005  0.1043930E+01  0.7957747E-01            NaN
         13   -1    0    0    0    0  0.00000000000E+00  0.00000000000E+00  0.74505805969E-08  0.10566000000E+00  0.10566000000E+00 0. -1.
     999900   -1    0    0    0    0 -0.00000000000E+00 -0.00000000000E+00 -0.74505805969E-08  0.93827000000E+00  0.93827000000E+00 0.  1.
     999902    2    1    2    0    0  0.32888295319E-02  0.23432568414E-01 -0.11902235944E-01  0.10174429299E+01  0.10170981028E+01 0.  0.
     999903    2    3    3    0    0 -0.94502860262E-01 -0.55665135759E-01 -0.61142733298E-01  0.12713720264E+00  0.19900666436E-01 0.  0.
         14    1    1    2    0    0 -0.32888295319E-02 -0.23432568414E-01  0.11902235944E-01  0.26487070103E-01  0.00000000000E+00 0. -1.
     999901    1    3    3    0    0  0.97791689794E-01  0.79097704173E-01  0.49240497353E-01  0.89030572725E+00  0.88000000000E+00 0. -1.
        -11    1    4    4    0    0 -0.18189460246E-01 -0.20567512346E-01 -0.15754242861E-01  0.31659695470E-01  0.51100000000E-03 0. -1.
         11    1    4    4    0    0 -0.76313400016E-01 -0.35097623413E-01 -0.45388490436E-01  0.95477507175E-01  0.51100000000E-03 0.  1.
</event>
<event>
 8    1  0.1143506E+005  0.1043930E+01  0.7957747E-01            NaN
         13   -1    0    0    0    0  0.00000000000E+00  0.00000000000E+00  0.74505805969E-08  0.10566000000E+00  0.10566000000E+00 0. -1.
     999900   -1    0    0    0    0 -0.00000000000E+00 -0.00000000000E+00 -0.74505805969E-08  0.93827000000E+00  0.93827000000E+00 0. -1.
     999902    2    1    2    0    0  0.14029339576E-01  0.29047868192E-02 -0.18236818551E-01  0.10207385855E+01  0.10204750944E+01 0.  0.
     999903    2    3    3    0    0  0.10898461787E+00 -0.23513790929E-01 -0.70858211492E-01  0.13367406862E+00  0.20428538576E-01 0.  0.
         14    1    1    2    0    0 -0.14029339576E-01 -0.29047868192E-02  0.18236818551E-01  0.23191414494E-01  0.00000000000E+00 0. -1.
     999901    1    3    3    0    0 -0.94955278297E-01  0.26418577748E-01  0.52621392941E-01  0.88706451689E+00  0.88000000000E+00 0.  1.
        -11    1    4    4    0    0  0.30216454384E-01 -0.35839264955E-03 -0.11394266093E-01  0.32299426955E-01  0.51100000000E-03 0.  1.
         11    1    4    4    0    0  0.78768163489E-01 -0.23155398279E-01 -0.59463945399E-01  0.10137464166E+00  0.51100000000E-03 0. -1.
</event>
<event>
 8    1  0.1143506E+005  0.1043930E+01  0.7957747E-01            NaN
         13   -1    0    0    0    0  0.00000000000E+00  0.00000000000E+00  0.74505805969E-08  0.10566000000E+00  0.10566000000E+00 0. -1.
     999900   -1    0    0    0    0 -0.00000000000E+00 -0.00000000000E+00 -0.74505805969E-08  0.93827000000E+00  0.93827000000E+00 0.  1.
     999902    2    1    2    0    0  0.11734760327E-01 -0.42592220881E-02 -0.18913688339E-01  0.10212678470E+01  0.10210163770E+01 0.  0.
     999903    2    3    3    0    0  0.10413543350E+00  0.69859545925E-01  0.34870834765E-01  0.13170376773E+00  0.20133619906E-01 0.  0.
         14    1    1    2    0    0 -0.11734760327E-01  0.42592220881E-02  0.18913688339E-01  0.22662153016E-01  0.00000000000E+00 0. -1.
     999901    1    3    3    0    0 -0.92400673169E-01 -0.74118768013E-01 -0.53784523104E-01  0.88956407925E+00  0.88000000000E+00 0.  1.
        -11    1    4    4    0    0  0.75880102555E-01  0.55517921893E-01  0.34062289441E-01  0.10000265145E+00  0.51100000000E-03 0. -1.
         11    1    4    4    0    0  0.28255330942E-01  0.14341624033E-01  0.80854532404E-03  0.31701116275E-01  0.51100000000E-03 0.  1.
</event>
<event>
 8    1  0.1143506E+005  0.1043930E+01  0.7957747E-01            NaN
         13   -1    0    0    0    0  0.00000000000E+00  0.00000000000E+00  0.74505805969E-08  0.10566000000E+00  0.10566000000E+00 0. -1.
     999900   -1    0    0    0    0 -0.00000000000E+00 -0.00000000000E+00 -0.74505805969E-08  0.93827000000E+00  0.93827000000E+00 0. -1.
     999902    2    1    2    0    0 -0.12875124462E-01 -0.19593211465E-01 -0.43584961438E-02  0.10200834226E+01  0.10198046528E+01 0.  0.
     999903    2    3    3    0    0 -0.11515726402E+00 -0.63525913178E-01 -0.24716059112E-03  0.13306108836E+00  0.20210270776E-01 0.  0.
         14    1    1    2    0    0  0.12875124462E-01  0.19593211465E-01  0.43584961438E-02  0.23846577408E-01  0.00000000000E+00 0.  1.
     999901    1    3    3    0    0  0.10228213956E+00  0.43932701713E-01 -0.41113355527E-02  0.88702233424E+00  0.88000000000E+00 0.  1.
        -11    1    4    4    0    0 -0.31128455431E-01 -0.21920325128E-01 -0.82325749587E-02  0.38955330863E-01  0.51100000000E-03 0. -1.
         11    1    4    4    0    0 -0.84028808589E-01 -0.41605588049E-01  0.79854143676E-02  0.94105757493E-01  0.51100000000E-03 0.  1.
</event>
<event>
 8    1  0.1143506E+005  0.1043930E+01  0.7957747E-01            NaN
         13   -1    0    0    0    0  0.00000000000E+00  0.00000000000E+00  0.74505805969E-08  0.10566000000E+00  0.10566000000E+00 0.  1.
     999900   -1    0    0    0    0 -0.00000000000E+00 -0.00000000000E+00 -0.74505805969E-08  0.93827000000E+00  0.93827000000E+00 0.  1.
     999902    2    1    2    0    0 -0.77829821123E-02 -0.20814708560E-01  0.55726638695E-02  0.10210197079E+01  0.10207626376E+01 0.  0.
     999903    2    3    3    0    0 -0.76413721432E-02  0.10533769415E+00  0.72242099022E-01  0.12952699206E+00  0.20097274031E-01 0.  0.
         14    1    1    2    0    0  0.77829821123E-02  0.20814708560E-01 -0.55726638695E-02  0.22910292133E-01  0.00000000000E+00 0. -1.
     999901    1    3    3    0    0 -0.14160996910E-03 -0.12615240271E+00 -0.66669435152E-01  0.89149271581E+00  0.88000000000E+00 0.  1.
        -11    1    4    4    0    0 -0.70208141377E-02  0.39290659837E-01  0.38065602148E-01  0.55157039165E-01  0.51100000000E-03 0. -1.
         11    1    4    4    0    0 -0.62055800549E-03  0.66047034309E-01  0.34176496874E-01  0.74369952890E-01  0.51100000000E-03 0.  1.
</event>
<event>
 8    1  0.1143506E+005  0.1043930E+01  0.7957747E-01            NaN
         13   -1    0    0    0    0  0.00000000000E+00  0.00000000000E+00  0.74505805969E-08  0.10566000000E+00  0.10566000000E+00 0. -1.
     999900   -1    0    0    0    0 -0.00000000000E+00 -0.00000000000E+00 -0.74505805969E-08  0.93827000000E+00  0.93827000000E+00 0.  1.
     999902    2    1    2    0    0  0.11203425969E-01  0.53484849625E-02  0.19022603340E-01  0.10212147522E+01  0.10209620892E+01 0.  0.
     999903    2    3    3    0    0  0.92795732876E-01 -0.88211341258E-01 -0.22466889523E-01  0.13153384106E+00  0.20102274805E-01 0.  0.
         14    1    1    2    0    0 -0.11203425969E-01 -0.53484849625E-02 -0.19022603340E-01  0.22715247801E-01  0.00000000000E+00 0.  1.
     999901    1    3    3    0    0 -0.81592306908E-01  0.93559826220E-01  0.41489492863E-01  0.88968091114E+00  0.88000000000E+00 0. -1.
        -11    1    4    4    0    0  0.55263444777E-01 -0.60326087873E-01 -0.62944372916E-02  0.82055872846E-01  0.51100000000E-03 0.  1.
         11    1    4    4    0    0  0.37532288100E-01 -0.27885253384E-01 -0.16172452231E-01  0.49477968213E-01  0.51100000000E-03 0. -1.
</event>
<event>
 8    1  0.1143506E+005  0.1043930E+01  0.7957747E-01            NaN
         13   -1    0    0    0    0  0.00000000000E+00  0.00000000000E+00  0.74505805969E-08  0.10566000000E+00  0.10566000000E+00 0. -1.
     999900   -1    0    0    0    0 -0.00000000000E+00 -0.00000000000E+00 -0.74505805969E-08  0.93827000000E+00  0.93827000000E+00 0. -1.
     999902    2    1    2    0    0  0.13990267800E-01 -0.17833002545E-01 -0.54495991460E-02  0.10206181639E+01  0.10203518975E+01 0.  0.
     999903    2    3    3    0    0 -0.53856885829E-01  0.47582925264E-01  0.10461072217E+00  0.12876853854E+00  0.21753951315E-01 0.  0.
         14    1    1    2    0    0 -0.13990267800E-01  0.17833002545E-01  0.54495991460E-02  0.23311836130E-01  0.00000000000E+00 0. -1.
     999901    1    3    3    0    0  0.67847153629E-01 -0.65415927810E-01 -0.11006032132E+00  0.89184962533E+00  0.88000000000E+00 0. -1.
        -11    1    4    4    0    0 -0.36257718821E-01  0.23313493164E-01  0.75717348535E-01  0.87129324155E-01  0.51100000000E-03 0. -1.
         11    1    4    4    0    0 -0.17599167008E-01  0.24269432101E-01  0.28893373635E-01  0.41639214388E-01  0.51100000000E-03 0.  1.
</event>
<event>
 8    1  0.1143506E+005  0.1043930E+01  0.7957747E-01            NaN
         13   -1    0    0    0    0  0.00000000000E+00  0.00000000000E+00  0.74505805969E-08  0.10566000000E+00  0.10566000000E+00 0. -1.
     999900   -1    0    0    0    0 -0.00000000000E+00 -0.00000000000E+00 -0.74505805969E-08  0.93827000000E+00  0.93827000000E+00 0.  1.
     999902    2    1    2    0    0 -0.59702241175E-02 -0.35748248267E-02 -0.22691938130E-01  0.10201950678E+01  0.10199189328E+01 0.  0.
     999903    2    3    3    0    0  0.16010214589E-01  0.10695922482E+00 -0.72345778766E-01  0.13161956755E+00  0.19829173280E-01 0.  0.
         14    1    1    2    0    0  0.59702241175E-02  0.35748248267E-02  0.22691938130E-01  0.23734932160E-01  0.00000000000E+00 0. -1.
     999901    1    3    3    0    0 -0.21980438706E-01 -0.11053404965E+00  0.49653840636E-01  0.88857550029E+00  0.88000000000E+00 0. -1.
        -11    1    4    4    0    0  0.41471062157E-02  0.64350205265E-02 -0.90703457696E-03  0.77260476225E-02  0.51100000000E-03 0. -1.
         11    1    4    4    0    0  0.11863108373E-01  0.10052420429E+00 -0.71438744189E-01  0.12389351993E+00  0.51100000000E-03 0.  1.
</event>
<event>
 8    1  0.1143506E+005  0.1043930E+01  0.7957747E-01            NaN
         13   -1    0    0    0    0  0.00000000000E+00  0.00000000000E+00  0.74505805969E-08  0.10566000000E+00  0.10566000000E+00 0. -1.
     999900   -1    0    0    0    0 -0.00000000000E+00 -0.00000000000E+00 -0.74505805969E-08  0.93827000000E+00  0.93827000000E+00 0.  1.
     999902    2    1    2    0    0 -0.15326026100E-01  0.22362983712E-01 -0.93335618411E-02  0.10152576179E+01  0.10148526619E+01 0.  0.
     999903    2    3    3    0    0  0.85758439256E-02 -0.11662771068E+00 -0.29835738765E-01  0.12379250265E+00  0.27547130659E-01 0.  0.
         14    1    1    2    0    0  0.15326026100E-01 -0.22362983712E-01  0.93335618411E-02  0.28672382063E-01  0.00000000000E+00 0. -1.
     999901    1    3    3    0    0 -0.23901870025E-01  0.13899069439E+00  0.20502176924E-01  0.89146511529E+00  0.88000000000E+00 0.  1.
        -11    1    4    4    0    0  0.37189611266E-02 -0.60798221503E-01 -0.13572819719E-02  0.60929120666E-01  0.51100000000E-03 0.  1.
         11    1    4    4    0    0  0.48568827990E-02 -0.55829489174E-01 -0.28478456793E-01  0.62863381983E-01  0.51100000000E-03 0. -1.
</event>
<event>
 8    1  0.1143506E+005  0.1043930E+01  0.7957747E-01            NaN
         13   -1    0    0    0    0  0.00000000000E+00  0.00000000000E+00  0.74505805969E-08  0.10566000000E+00  0.10566000000E+00 0.  1.
     999900   -1    0    0    0    0 -0.00000000000E+00 -0.00000000000E+00 -0.74505805969E-08  0.93827000000E+00  0.93827000000E+00 0. -1.
     999902    2    1    2    0    0 -0.20247554599E-01  0.12055033971E-01 -0.39108148944E-02  0.10200431462E+01  0.10197634227E+01 0.  0.
     999903    2    3    3    0    0  0.21163849369E-01  0.12755651023E+00  0.12248197540E-01  0.13138313862E+00  0.19822687704E-01 0.  0.
         14    1    1    2    0    0  0.20247554599E-01 -0.12055033971E-01  0.39108148944E-02  0.23886853799E-01  0.00000000000E+00 0. -1.
     999901    1    3    3    0    0 -0.41411403968E-01 -0.11550147626E+00 -0.16159012435E-01  0.88866000758E+00  0.88000000000E+00 0.  1.
        -11    1    4    4    0    0  0.16524169684E-01  0.49262109157E-01  0.10011645317E-01  0.52917839575E-01  0.51100000000E-03 0.  1.
         11    1    4    4    0    0  0.46396796856E-02  0.78294401073E-01  0.22365522230E-02  0.78465299042E-01  0.51100000000E-03 0. -1.
</event>
<event>
 8    1  0.1143506E+005  0.1043930E+01  0.7957747E-01            NaN
         13   -1    0    0    0    0  0.00000000000E+00  0.00000000000E+00  0.74505805969E-08  0.10566000000E+00  0.10566000000E+00 0.  1.
     999900   -1    0    0    0    0 -0.00000000000E+00 -0.00000000000E+00 -0.74505805969E-08  0.93827000000E+00  0.93827000000E+00 0.  1.
     999902    2    1    2    0    0  0.15495394069E-01  0.14320982233E-01  0.10493707142E-01  0.10203648635E+01  0.10200927110E+01 0.  0.
     999903    2    3    3    0    0 -0.72894119857E-02  0.79913516748E-01 -0.10109258439E+00  0.13060476749E+00  0.19964693456E-01 0.  0.
         14    1    1    2    0    0 -0.15495394069E-01 -0.14320982233E-01 -0.10493707142E-01  0.23565136517E-01  0.00000000000E+00 0. -1.
     999901    1    3    3    0    0  0.22784806055E-01 -0.65592534515E-01  0.11158629153E+00  0.88976009600E+00  0.88000000000E+00 0. -1.
        -11    1    4    4    0    0 -0.68196268378E-02  0.51594929651E-01 -0.49929268664E-01  0.72123068891E-01  0.51100000000E-03 0.  1.
         11    1    4    4    0    0 -0.46978514796E-03  0.28318587097E-01 -0.51163315728E-01  0.58481698595E-01  0.51100000000E-03 0. -1.
</event>
<event>
 8    1  0.1143506E+005  0.1043930E+01  0.7957747E-01            NaN
         13   -1    0    0    0    0  0.00000000000E+00  0.00000000000E+00  0.74505805969E-08  0.10566000000E+00  0.10566000000E+00 0.  1.
     999900   -1    0    0    0    0 -0.00000000000E+00 -0.00000000000E+00 -0.74505805969E-08  0.93827000000E+00  0.93827000000E+00 0. -1.
     999902    2    1    2    0    0 -0.62977990211E-02  0.18958228473E-01 -0.11806981480E-01  0.10207247956E+01  0.10204609874E+01 0.  0.
     999903    2    3    3    0    0 -0.49909303650E-01  0.71991393313E-02 -0.12128229756E+00  0.13279175514E+00  0.19531726337E-01 0.  0.
         14    1    1    2    0    0  0.62977990211E-02 -0.18958228473E-01  0.11806981480E-01  0.23205204395E-01  0.00000000000E+00 0. -1.
     999901    1    3    3    0    0  0.43611504628E-01  0.11759089141E-01  0.10947531608E+00  0.88793304046E+00  0.88000000000E+00 0.  1.
        -11    1    4    4    0    0 -0.13118228809E-01 -0.39777032321E-02 -0.49407174871E-01  0.51276116271E-01  0.51100000000E-03 0. -1.
         11    1    4    4    0    0 -0.36791074841E-01  0.11176842563E-01 -0.71875122693E-01  0.81515638872E-01  0.51100000000E-03 0.  1.
</event>
<event>
 8    1  0.1143506E+005  0.1043930E+01  0.7957747E-01            NaN
         13   -1    0    0    0    0  0.00000000000E+00  0.00000000000E+00  0.74505805969E-08  0.10566000000E+00  0.10566000000E+00 0. -1.
     999900   -1    0    0    0    0 -0.00000000000E+00 -0.00000000000E+00 -0.74505805969E-08  0.93827000000E+00  0.93827000000E+00 0.  1.
     999902    2    1    2    0    0  0.18443264456E-01 -0.16915777017E-01  0.20482190489E-02  0.10188203860E+01  0.10185109161E+01 0.  0.
     999903    2    3    3    0    0  0.12417565782E+00 -0.39260575956E-01  0.99543508476E-02  0.13217438221E+00  0.20248244191E-01 0.  0.
         14    1    1    2    0    0 -0.18443264456E-01  0.16915777017E-01 -0.20482190489E-02  0.25109614038E-01  0.00000000000E+00 0.  1.
     999901    1    3    3    0    0 -0.10573239336E+00  0.22344798940E-01 -0.79061317987E-02  0.88664600375E+00  0.88000000000E+00 0. -1.
        -11    1    4    4    0    0  0.83861321403E-01 -0.32450870221E-01  0.14311909134E-01  0.91054225984E-01  0.51100000000E-03 0.  1.
         11    1    4    4    0    0  0.40314336417E-01 -0.68097057353E-02 -0.43575582864E-02  0.41120156228E-01  0.51100000000E-03 0. -1.
</event>
<event>
 8    1  0.1143506E+005  0.1043930E+01  0.7957747E-01            NaN
         13   -1    0    0    0    0  0.00000000000E+00  0.00000000000E+00  0.74505805969E-08  0.10566000000E+00  0.10566000000E+00 0. -1.
     999900   -1    0    0    0    0 -0.00000000000E+00 -0.00000000000E+00 -0.74505805969E-08  0.93827000000E+00  0.93827000000E+00 0. -1.
     999902    2    1    2    0    0 -0.88522202254E-02 -0.15628159831E-01 -0.14722555398E-01  0.10207059861E+01  0.10204417452E+01 0.  0.
     999903    2    3    3    0    0 -0.11795735494E+00  0.53819956118E-01 -0.18224687758E-03  0.13113395881E+00  0.19635597221E-01 0.  0.
         14    1    1    2    0    0  0.88522202254E-02  0.15628159831E-01  0.14722555398E-01  0.23224013866E-01  0.00000000000E+00 0. -1.
     999901    1    3    3    0    0  0.10910513471E+00 -0.69448115949E-01 -0.14540308520E-01  0.88957202733E+00  0.88000000000E+00 0. -1.
        -11    1    4    4    0    0 -0.22273219068E-01  0.18397663657E-01 -0.31099104572E-02  0.29060333442E-01  0.51100000000E-03 0. -1.
         11    1    4    4    0    0 -0.95684135870E-01  0.35422292461E-01  0.29276635797E-02  0.10207362537E+00  0.51100000000E-03 0.  1.
</event>
<event>
 8    1  0.1143506E+005  0.1043930E+01  0.7957747E-01            NaN
         13   -1    0    0    0    0  0.00000000000E+00  0.00000000000E+00  0.74505805969E-08  0.10566000000E+00  0.10566000000E+00 0. -1.
     999900   -1    0    0    0    0 -0.00000000000E+00 -0.00000000000E+00 -0.74505805969E-08  0.93827000000E+00  0.93827000000E+00 0. -1.
     999902    2    1    2    0    0 -0.16573635883E-01  0.11323067645E-01  0.13571217271E-01  0.10197003651E+01  0.10194124580E+01 0.  0.
     999903    2    3    3    0    0 -0.86895720916E-01 -0.92404607003E-01  0.24471793558E-01  0.13075523258E+00  0.20213472213E-01 0.  0.
         14    1    1    2    0    0  0.16573635883E-01 -0.11323067645E-01 -0.13571217271E-01  0.24229634861E-01  0.00000000000E+00 0. -1.
     999901    1    3    3    0    0  0.70322085033E-01  0.10372767465E+00 -0.10900576287E-01  0.88894513256E+00  0.88000000000E+00 0. -1.
        -11    1    4    4    0    0 -0.71387321011E-01 -0.85518301588E-01  0.22681694214E-01  0.11368487094E+00  0.51100000000E-03 0.  1.
         11    1    4    4    0    0 -0.15508399905E-01 -0.68863054147E-02  0.17900993441E-02  0.17070361641E-01  0.51100000000E-03 0. -1.
</event>
<event>
 8    1  0.1143506E+005  0.1043930E+01  0.7957747E-01            NaN
         13   -1    0    0    0    0  0.00000000000E+00  0.00000000000E+00  0.74505805969E-08  0.10566000000E+00  0.10566000000E+00 0. -1.
     999900   -1    0    0    0    0 -0.00000000000E+00 -0.00000000000E+00 -0.74505805969E-08  0.93827000000E+00  0.93827000000E+00 0.  1.
     999902    2    1    2    0    0  0.22483569835E-01  0.31723903471E-02 -0.57015921161E-02  0.10205188248E+01  0.10202502578E+01 0.  0.
     999903    2    3    3    0    0 -0.55132894121E-01 -0.10876034944E+00  0.37096495082E-01  0.12901171320E+00  0.19985559037E-01 0.  0.
         14    1    1    2    0    0 -0.22483569835E-01 -0.31723903471E-02  0.57015921161E-02  0.23411175231E-01  0.00000000000E+00 0. -1.
     999901    1    3    3    0    0  0.77616463956E-01  0.11193273979E+00 -0.42798087198E-01  0.89150711157E+00  0.88000000000E+00 0.  1.
        -11    1    4    4    0    0 -0.19729624531E-01 -0.46877367766E-01  0.59515920467E-02  0.51209650084E-01  0.51100000000E-03 0. -1.
         11    1    4    4    0    0 -0.35403269589E-01 -0.61882981676E-01  0.31144903036E-01  0.77802063114E-01  0.51100000000E-03 0.  1.
</event>
<event>
 8    1  0.1143506E+005  0.1043930E+01  0.7957747E-01            NaN
         13   -1    0    0    0    0  0.00000000000E+00  0.00000000000E+00  0.74505805969E-08  0.10566000000E+00  0.10566000000E+00 0. -1.
     999900   -1    0    0    0    0 -0.00000000000E+00 -0.00000000000E+00 -0.74505805969E-08  0.93827000000E+00  0.93827000000E+00 0. -1.
     999902    2    1    2    0    0 -0.68776339398E-02 -0.17058430891E-01 -0.16401496899E-01  0.10192865219E+01  0.10189885734E+01 0.  0.
     999903    2    3    3    0    0 -0.69768093935E-01  0.10177344229E+00  0.27184524107E-01  0.12800880688E+00  0.20538641618E-01 0.  0.
         14    1    1    2    0    0  0.68776339398E-02  0.17058430891E-01  0.16401496899E-01  0.24643478115E-01  0.00000000000E+00 0. -1.
     999901    1    3    3    0    0  0.62890459995E-01 -0.11883187318E+00 -0.43586021007E-01  0.89127771501E+00  0.88000000000E+00 0.  1.
        -11    1    4    4    0    0 -0.14782307162E-01  0.16313236508E-01  0.12528014271E-01  0.25334769645E-01  0.51100000000E-03 0.  1.
         11    1    4    4    0    0 -0.54985786772E-01  0.85460205785E-01  0.14656509837E-01  0.10267403723E+00  0.51100000000E-03 0. -1.
</event>
<event>
 8    1  0.1143506E+005  0.1043930E+01  0.7957747E-01            NaN
         13   -1    0    0    0    0  0.00000000000E+00  0.00000000000E+00  0.74505805969E-08  0.10566000000E+00  0.10566000000E+00 0.  1.
     999900   -1    0    0    0    0 -0.00000000000E+00 -0.00000000000E+00 -0.74505805969E-08  0.93827000000E+00  0.93827000000E+00 0.  1.
     999902    2    1    2    0    0 -0.23466016967E-01  0.11241303031E-02  0.24198722855E-03  0.10204358267E+01  0.10201653299E+01 0.  0.
     999903    2    3    3    0    0 -0.50571031450E-01 -0.28388302866E-01 -0.11667027893E+00  0.13179971248E+00  0.19896865625E-01 0.  0.
         14    1    1    2    0    0  0.23466016967E-01 -0.11241303031E-02 -0.24198722855E-03  0.23494173300E-01  0.00000000000E+00 0.  1.
     999901    1    3    3    0    0  0.27105014483E-01  0.29512433169E-01  0.11691226616E+00  0.88863611422E+00  0.88000000000E+00 0. -1.
        -11    1    4    4    0    0 -0.50270168546E-01 -0.30127491804E-01 -0.10741902602E+00  0.12236774036E+00  0.51100000000E-03 0. -1.
         11    1    4    4    0    0 -0.30086290470E-03  0.17391889383E-02 -0.92512529116E-02  0.94319721207E-02  0.51100000000E-03 0.  1.
</event>
<event>
 8    1  0.1143506E+005  0.1043930E+01  0.7957747E-01            NaN
         13   -1    0    0    0    0  0.00000000000E+00  0.00000000000E+00  0.74505805969E-08  0.10566000000E+00  0.10566000000E+00 0. -1.
     999900   -1    0    0    0    0 -0.00000000000E+00 -0.00000000000E+00 -0.74505805969E-08  0.93827000000E+00  0.93827000000E+00 0.  1.
     999902    2    1    2    0    0 -0.60126608987E-02  0.22653464148E-01 -0.79842404782E-03  0.10204785819E+01  0.10202090801E+01 0.  0.
     999903    2    3    3    0    0  0.36966895117E-01  0.75469672826E-01  0.10002730837E+00  0.13210781335E+00  0.19616041348E-01 0.  0.
         14    1    1    2    0    0  0.60126608987E-02 -0.22653464148E-01  0.79842404782E-03  0.23451418080E-01  0.00000000000E+00 0. -1.
     999901    1    3    3    0    0 -0.42979556015E-01 -0.52816208678E-01 -0.10082573241E+00  0.88837076857E+00  0.88000000000E+00 0.  1.
        -11    1    4    4    0    0  0.53402463725E-02  0.14875261365E-01  0.31884138143E-01  0.35590040997E-01  0.51100000000E-03 0.  1.
         11    1    4    4    0    0  0.31626648744E-01  0.60594411461E-01  0.68143170222E-01  0.96517772353E-01  0.51100000000E-03 0. -1.
</event>
<event>
 8    1  0.1143506E+005  0.1043930E+01  0.7957747E-01            NaN
         13   -1    0    0    0    0  0.00000000000E+00  0.00000000000E+00  0.74505805969E-08  0.10566000000E+00  0.10566000000E+00 0.  1.
     999900   -1    0    0    0    0 -0.00000000000E+00 -0.00000000000E+00 -0.74505805969E-08  0.93827000000E+00  0.93827000000E+00 0. -1.
     999902    2    1    2    0    0  0.11683283881E-01 -0.20917098968E-01 -0.21630152854E-02  0.10198737578E+01  0.10195900054E+01 0.  0.
     999903    2    3    3    0    0  0.35732742529E-04  0.38329342617E-01  0.12160048296E+00  0.12916437214E+00  0.20678921424E-01 0.  0.
         14    1    1    2    0    0 -0.11683283881E-01  0.20917098968E-01  0.21630152854E-02  0.24056242155E-01  0.00000000000E+00 0.  1.
     999901    1    3    3    0    0  0.11647551138E-01 -0.59246441585E-01 -0.12376349825E+00  0.89070938571E+00  0.88000000000E+00 0. -1.
        -11    1    4    4    0    0  0.10282610755E-01  0.18091369637E-01  0.61156266658E-01  0.64601701307E-01  0.51100000000E-03 0. -1.
         11    1    4    4    0    0 -0.10246878012E-01  0.20237972980E-01  0.60444216304E-01  0.64562670831E-01  0.51100000000E-03 0.  1.
</event>
<event>
 8    1  0.1143506E+005  0.1043930E+01  0.7957747E-01            NaN
         13   -1    0    0    0    0  0.00000000000E+00  0.00000000000E+00  0.74505805969E-08  0.10566000000E+00  0.10566000000E+00 0.  1.
     999900   -1    0    0    0    0 -0.00000000000E+00 -0.00000000000E+00 -0.74505805969E-08  0.93827000000E+00  0.93827000000E+00 0.  1.
     999902    2    1    2    0    0 -0.97137252028E-02 -0.11426760159E-01  0.18320000252E-01  0.10202540689E+01  0.10199793210E+01 0.  0.
     999903    2    3    3    0    0 -0.42582555593E-01 -0.65335939799E-01  0.10661525058E+00  0.13358467678E+00  0.19899626733E-01 0.  0.
         14    1    1    2    0    0  0.97137252028E-02  0.11426760159E-01 -0.18320000252E-01  0.23675931118E-01  0.00000000000E+00 0. -1.
     999901    1    3    3    0    0  0.32868830391E-01  0.53909179640E-01 -0.88295250327E-01  0.88666939210E+00  0.88000000000E+00 0.  1.
        -11    1    4    4    0    0 -0.91778976321E-02 -0.41214278073E-02  0.83292483807E-02  0.13071245989E-01  0.51100000000E-03 0. -1.
         11    1    4    4    0    0 -0.33404657961E-01 -0.61214511992E-01  0.98286002198E-01  0.12051343079E+00  0.51100000000E-03 0.  1.
</event>
<event>
 8    1  0.1143506E+005  0.1043930E+01  0.7957747E-01            NaN
         13   -1    0    0    0    0  0.00000000000E+00  0.00000000000E+00  0.74505805969E-08  0.10566000000E+00  0.10566000000E+00 0. -1.
     999900   -1    0    0    0    0 -0.00000000000E+00 -0.00000000000E+00 -0.74505805969E-08  0.93827000000E+00  0.93827000000E+00 0. -1.
     999902    2    1    2    0    0  0.19985057114E-02 -0.26271052147E-01  0.91279255214E-03  0.10175672347E+01  0.10172256788E+01 0.  0.
     999903    2    3    3    0    0  0.67074087824E-01  0.26500854995E-01 -0.10332806542E+00  0.12746282391E+00  0.19205567004E-01 0.  0.
         14    1    1    2    0    0 -0.19985057114E-02  0.26271052147E-01 -0.91279255214E-03  0.26362765337E-01  0.00000000000E+00 0.  1.
     999901    1    3    3    0    0 -0.65075582112E-01 -0.52771907142E-01  0.10424085797E+00  0.89010441075E+00  0.88000000000E+00 0. -1.
        -11    1    4    4    0    0  0.28163003912E-01  0.16905044897E-01 -0.33305510863E-01  0.46780909644E-01  0.51100000000E-03 0. -1.
         11    1    4    4    0    0  0.38911083912E-01  0.95958100979E-02 -0.70022554553E-01  0.80681914267E-01  0.51100000000E-03 0.  1.
</event>
<event>
 8    1  0.1143506E+005  0.1043930E+01  0.7957747E-01            NaN
         13   -1    0    0    0    0  0.00000000000E+00  0.00000000000E+00  0.74505805969E-08  0.10566000000E+00  0.10566000000E+00 0. -1.
     999900   -1    0    0    0    0 -0.00000000000E+00 -0.00000000000E+00 -0.74505805969E-08  0.93827000000E+00  0.93827000000E+00 0. -1.
     999902    2    1    2    0    0  0.12693605626E-01 -0.21720361257E-01  0.64994242073E-04  0.10187723781E+01  0.10184617088E+01 0.  0.
     999903    2    3    3    0    0  0.33736553440E-02 -0.12815329549E+00  0.24513186314E-01  0.13197333372E+00  0.19529869834E-01 0.  0.
         14    1    1    2    0    0 -0.12693605626E-01  0.21720361257E-01 -0.64994242073E-04  0.25157621930E-01  0.00000000000E+00 0. -1.
     999901    1    3    3    0    0  0.93199502819E-02  0.10643293423E+00 -0.24448192072E-01  0.88679904435E+00  0.88000000000E+00 0.  1.
        -11    1    4    4    0    0  0.60349563958E-03 -0.60994200492E-01  0.18151995643E-02  0.61026328507E-01  0.51100000000E-03 0. -1.
         11    1    4    4    0    0  0.27701597044E-02 -0.67159094995E-01  0.22697986750E-01  0.70947005214E-01  0.51100000000E-03 0.  1.
</event>
<event>
 8    1  0.1143506E+005  0.1043930E+01  0.7957747E-01            NaN
         13   -1    0    0    0    0  0.00000000000E+00  0.00000000000E+00  0.74505805969E-08  0.10566000000E+00  0.10566000000E+00 0. -1.
     999900   -1    0    0    0    0 -0.00000000000E+00 -0.00000000000E+00 -0.74505805969E-08  0.93827000000E+00  0.93827000000E+00 0.  1.
     999902    2    1    2    0    0  0.19612702696E-01  0.10954889465E-01 -0.11262861069E-01  0.10187999433E+01  0.10184899630E+01 0.  0.
     999903    2    3    3    0    0  0.49970545353E-01  0.97823106091E-01 -0.70381481373E-01  0.13202900504E+00  0.20290139587E-01 0.  0.
         14    1    1    2    0    0 -0.19612702696E-01 -0.10954889465E-01  0.11262861069E-01  0.25130056699E-01  0.00000000000E+00 0. -1.
     999901    1    3    3    0    0 -0.30357842657E-01 -0.86868216627E-01  0.59118620304E-01  0.88677093826E+00  0.88000000000E+00 0. -1.
        -11    1    4    4    0    0  0.45808479521E-01  0.70793880974E-01 -0.51831411961E-01  0.98979527006E-01  0.51100000000E-03 0. -1.
         11    1    4    4    0    0  0.41620658320E-02  0.27029225117E-01 -0.18550069412E-01  0.33049478038E-01  0.51100000000E-03 0.  1.
</event>
<event>
 8    1  0.1143506E+005  0.1043930E+01  0.7957747E-01            NaN
         13   -1    0    0    0    0  0.00000000000E+00  0.00000000000E+00  0.74505805969E-08  0.10566000000E+00  0.10566000000E+00 0.  1.
     999900   -1    0    0    0    0 -0.00000000000E+00 -0.00000000000E+00 -0.74505805969E-08  0.93827000000E+00  0.93827000000E+00 0.  1.
     999902    2    1    2    0    0 -0.10461669892E-03 -0.24411937036E-01  0.15028760872E-02  0.10194716221E+01  0.10191781866E+01 0.  0.
     999903    2    3    3    0    0  0.43823731272E-01 -0.11401225604E+00 -0.47416526847E-01  0.13248175465E+00  0.19590159424E-01 0.  0.
         14    1    1    2    0    0  0.10461669892E-03  0.24411937036E-01 -0.15028760872E-02  0.24458377932E-01  0.00000000000E+00 0.  1.
     999901    1    3    3    0    0 -0.43928347971E-01  0.89600319006E-01  0.48919402934E-01  0.88698986742E+00  0.88000000000E+00 0. -1.
        -11    1    4    4    0    0  0.33618083486E-01 -0.77646986034E-01 -0.41515946780E-01  0.94250012921E-01  0.51100000000E-03 0.  1.
         11    1    4    4    0    0  0.10205647786E-01 -0.36365270007E-01 -0.59005800667E-02  0.38231741728E-01  0.51100000000E-03 0. -1.
</event>
<event>
 8    1  0.1143506E+005  0.1043930E+01  0.7957747E-01            NaN
         13   -1    0    0    0    0  0.00000000000E+00  0.00000000000E+00  0.74505805969E-08  0.10566000000E+00  0.10566000000E+00 0.  1.
     999900   -1    0    0    0    0 -0.00000000000E+00 -0.00000000000E+00 -0.74505805969E-08  0.93827000000E+00  0.93827000000E+00 0. -1.
     999902    2    1    2    0    0 -0.47844958102E-02  0.10503743412E-01  0.20238612171E-01  0.10206314711E+01  0.10203655121E+01 0.  0.
     999903    2    3    3    0    0 -0.38453437098E-01 -0.80393574155E-01  0.95746157207E-01  0.13209485999E+00  0.18437240169E-01 0.  0.
         14    1    1    2    0    0  0.47844958102E-02 -0.10503743412E-01 -0.20238612171E-01  0.23298528890E-01  0.00000000000E+00 0. -1.
     999901    1    3    3    0    0  0.33668941288E-01  0.90897317567E-01 -0.75507545036E-01  0.88853661112E+00  0.88000000000E+00 0. -1.
        -11    1    4    4    0    0 -0.18767087952E-01 -0.36029329796E-01  0.56952663912E-01  0.69958439401E-01  0.51100000000E-03 0.  1.
         11    1    4    4    0    0 -0.19686349147E-01 -0.44364244359E-01  0.38793493295E-01  0.62136420587E-01  0.51100000000E-03 0. -1.
</event>
<event>
 8    1  0.1143506E+005  0.1043930E+01  0.7957747E-01            NaN
         13   -1    0    0    0    0  0.00000000000E+00  0.00000000000E+00  0.74505805969E-08  0.10566000000E+00  0.10566000000E+00 0.  1.
     999900   -1    0    0    0    0 -0.00000000000E+00 -0.00000000000E+00 -0.74505805969E-08  0.93827000000E+00  0.93827000000E+00 0. -1.
     999902    2    1    2    0    0  0.49234231860E-02  0.59397271541E-02 -0.21447807152E-01  0.10211368237E+01  0.10208824045E+01 0.  0.
     999903    2    3    3    0    0 -0.80778289237E-01 -0.71417925658E-02  0.97427379395E-01  0.12892204033E+00  0.23508743365E-01 0.  0.
         14    1    1    2    0    0 -0.49234231860E-02 -0.59397271541E-02  0.21447807152E-01  0.22793176307E-01  0.00000000000E+00 0.  1.
     999901    1    3    3    0    0  0.85701712423E-01  0.13081519720E-01 -0.11887518655E+00  0.89221478336E+00  0.88000000000E+00 0. -1.
        -11    1    4    4    0    0 -0.28673142791E-01  0.55202594956E-02  0.22921406477E-01  0.37125117889E-01  0.51100000000E-03 0.  1.
         11    1    4    4    0    0 -0.52105146446E-01 -0.12662052061E-01  0.74505972918E-01  0.91796922443E-01  0.51100000000E-03 0. -1.
</event>
<event>
 8    1  0.1143506E+005  0.1043930E+01  0.7957747E-01            NaN
         13   -1    0    0    0    0  0.00000000000E+00  0.00000000000E+00  0.74505805969E-08  0.10566000000E+00  0.10566000000E+00 0.  1.
     999900   -1    0    0    0    0 -0.00000000000E+00 -0.00000000000E+00 -0.74505805969E-08  0.93827000000E+00  0.93827000000E+00 0.  1.
     999902    2    1    2    0    0 -0.20299374326E-01  0.39869578883E-02  0.69076079869E-02  0.10221200142E+01  0.10218872971E+01 0.  0.
     999903    2    3    3    0    0 -0.11580241339E+00 -0.56625057859E-02  0.65954450750E-01  0.13493318370E+00  0.20364468361E-01 0.  0.
         14    1    1    2    0    0  0.20299374326E-01 -0.39869578883E-02 -0.69076079869E-02  0.21809985771E-01  0.00000000000E+00 0. -1.
     999901    1    3    3    0    0  0.95503039063E-01  0.96494636742E-02 -0.59046842763E-01  0.88718683053E+00  0.88000000000E+00 0.  1.
        -11    1    4    4    0    0 -0.23861562544E-01 -0.57110478236E-02  0.63095347826E-02  0.25338934162E-01  0.51100000000E-03 0.  1.
         11    1    4    4    0    0 -0.91940850845E-01  0.48542037749E-04  0.59644915967E-01  0.10959424954E+00  0.51100000000E-03 0. -1.
</event>
<event>
 8    1  0.1143506E+005  0.1043930E+01  0.7957747E-01            NaN
         13   -1    0    0    0    0  0.00000000000E+00  0.00000000000E+00  0.74505805969E-08  0.10566000000E+00  0.10566000000E+00 0.  1.
     999900   -1    0    0    0    0 -0.00000000000E+00 -0.00000000000E+00 -0.74505805969E-08  0.93827000000E+00  0.93827000000E+00 0.  1.
     999902    2    1    2    0    0  0.14481167134E-01 -0.12078333974E-01  0.15292270374E-01  0.10196515345E+01  0.10193624517E+01 0.  0.
     999903    2    3    3    0    0 -0.10895324771E+00 -0.66408564166E-01 -0.38684333688E-02  0.12917134874E+00  0.19732333347E-01 0.  0.
         14    1    1    2    0    0 -0.14481167134E-01  0.12078333974E-01 -0.15292270374E-01  0.24278465486E-01  0.00000000000E+00 0. -1.
     999901    1    3    3    0    0  0.12343441484E+00  0.54330230192E-01  0.19160703743E-01  0.89048018577E+00  0.88000000000E+00 0.  1.
        -11    1    4    4    0    0 -0.43295279251E-01 -0.24373779358E-01  0.79464271191E-02  0.50318675962E-01  0.51100000000E-03 0.  1.
         11    1    4    4    0    0 -0.65657968456E-01 -0.42034784808E-01 -0.11814860488E-01  0.78852672783E-01  0.51100000000E-03 0. -1.
</event>
<event>
 8    1  0.1143506E+005  0.1043930E+01  0.7957747E-01            NaN
         13   -1    0    0    0    0  0.00000000000E+00  0.00000000000E+00  0.74505805969E-08  0.10566000000E+00  0.10566000000E+00 0.  1.
     999900   -1    0    0    0    0 -0.00000000000E+00 -0.00000000000E+00 -0.74505805969E-08  0.93827000000E+00  0.93827000000E+00 0.  1.
     999902    2    1    2    0    0  0.86807704723E-02  0.12316564547E-01  0.18287138990E-01  0.10202345787E+01  0.10199593730E+01 0.  0.
     999903    2    3    3    0    0 -0.95819790614E-01  0.60629172772E-01  0.63630058427E-01  0.13157803327E+00  0.20165952512E-01 0.  0.
         14    1    1    2    0    0 -0.86807704723E-02 -0.12316564547E-01 -0.18287138990E-01  0.23695421302E-01  0.00000000000E+00 0. -1.
     999901    1    3    3    0    0  0.10450056109E+00 -0.48312608225E-01 -0.45342919437E-01  0.88865654542E+00  0.88000000000E+00 0. -1.
        -11    1    4    4    0    0 -0.63096284162E-01  0.34646905698E-01  0.49915861342E-01  0.87597965068E-01  0.51100000000E-03 0. -1.
         11    1    4    4    0    0 -0.32723506452E-01  0.25982267074E-01  0.13714197085E-01  0.43980068207E-01  0.51100000000E-03 0.  1.
</event>
<event>
 8    1  0.1143506E+005  0.1043930E+01  0.7957747E-01            NaN
         13   -1    0    0    0    0  0.00000000000E+00  0.00000000000E+00  0.74505805969E-08  0.10566000000E+00  0.10566000000E+00 0.  1.
     999900   -1    0    0    0    0 -0.00000000000E+00 -0.00000000000E+00 -0.74505805969E-08  0.93827000000E+00  0.93827000000E+00 0. -1.
     999902    2    1    2    0    0  0.21587775696E-01  0.92899246119E-02  0.11579204317E-01  0.10177305204E+01  0.10173932374E+01 0.  0.
     999903    2    3    3    0    0 -0.55717637877E-01 -0.10417449070E+00 -0.38206856434E-01  0.12569411287E+00  0.19556749431E-01 0.  0.
         14    1    1    2    0    0 -0.21587775696E-01 -0.92899246119E-02 -0.11579204317E-01  0.26199479602E-01  0.00000000000E+00 0. -1.
     999901    1    3    3    0    0  0.77305413573E-01  0.11346441531E+00  0.49786060751E-01  0.89203640753E+00  0.88000000000E+00 0.  1.
        -11    1    4    4    0    0 -0.19635909279E-01 -0.29533234064E-01 -0.29142422227E-02  0.35588407891E-01  0.51100000000E-03 0.  1.
         11    1    4    4    0    0 -0.36081728599E-01 -0.74641256637E-01 -0.35292614211E-01  0.90105704980E-01  0.51100000000E-03 0. -1.
</event>
<event>
 8    1  0.1143506E+005  0.1043930E+01  0.7957747E-01            NaN
         13   -1    0    0    0    0  0.00000000000E+00  0.00000000000E+00  0.74505805969E-08  0.10566000000E+00  0.10566000000E+00 0. -1.
     999900   -1    0    0    0    0 -0.00000000000E+00 -0.00000000000E+00 -0.74505805969E-08  0.93827000000E+00  0.93827000000E+00 0.  1.
     999902    2    1    2    0    0  0.24317674481E-01  0.26353410891E-02  0.13341383394E-01  0.10160680757E+01  0.10156859985E+01 0.  0.
     999903    2    3    3    0    0 -0.10006908967E+00  0.62725805970E-01  0.35947980228E-01  0.12500467207E+00  0.19635715319E-01 0.  0.
         14    1    1    2    0    0 -0.24317674481E-01 -0.26353410891E-02 -0.13341383394E-01  0.27861924299E-01  0.00000000000E+00 0.  1.
     999901    1    3    3    0    0  0.12438676415E+00 -0.60090464881E-01 -0.22606596835E-01  0.89106340363E+00  0.88000000000E+00 0.  1.
        -11    1    4    4    0    0 -0.69044412916E-01  0.46287799791E-01  0.16105316165E-01  0.84671917979E-01  0.51100000000E-03 0. -1.
         11    1    4    4    0    0 -0.31024676751E-01  0.16438006179E-01  0.19842664064E-01  0.40332754093E-01  0.51100000000E-03 0.  1.
</event>
<event>
 8    1  0.1143506E+005  0.1043930E+01  0.7957747E-01            NaN
         13   -1    0    0    0    0  0.00000000000E+00  0.00000000000E+00  0.74505805969E-08  0.10566000000E+00  0.10566000000E+00 0.  1.
     999900   -1    0    0    0    0 -0.00000000000E+00 -0.00000000000E+00 -0.74505805969E-08  0.93827000000E+00  0.93827000000E+00 0. -1.
     999902    2    1    2    0    0  0.38248474697E-02 -0.21745065939E-01  0.11560336356E-01  0.10190077463E+01  0.10187029343E+01 0.  0.
     999903    2    3    3    0    0  0.32486429547E-01  0.11976355119E+00 -0.15484350848E-01  0.12683198444E+00  0.21163904633E-01 0.  0.
         14    1    1    2    0    0 -0.38248474697E-02  0.21745065939E-01 -0.11560336356E-01  0.24922253661E-01  0.00000000000E+00 0. -1.
     999901    1    3    3    0    0 -0.28661582077E-01 -0.14150861713E+00  0.27044687205E-01  0.89217576190E+00  0.88000000000E+00 0. -1.
        -11    1    4    4    0    0  0.13039676312E-01  0.17888523226E-01 -0.17656313512E-02  0.22212856561E-01  0.51100000000E-03 0. -1.
         11    1    4    4    0    0  0.19446753235E-01  0.10187502796E+00 -0.13718719497E-01  0.10461912788E+00  0.51100000000E-03 0.  1.
</event>
<event>
 8    1  0.1143506E+005  0.1043930E+01  0.7957747E-01            NaN
         13   -1    0    0    0    0  0.00000000000E+00  0.00000000000E+00  0.74505805969E-08  0.10566000000E+00  0.10566000000E+00 0. -1.
     999900   -1    0    0    0    0 -0.00000000000E+00 -0.00000000000E+00 -0.74505805969E-08  0.93827000000E+00  0.93827000000E+00 0. -1.
     999902    2    1    2    0    0 -0.20617712468E-01  0.84938797383E-03  0.11275493670E-01  0.10204151476E+01  0.10201441688E+01 0.  0.
     999903    2    3    3    0    0  0.95471806331E-01 -0.78300920905E-01  0.31654064713E-01  0.12903597240E+00  0.20059968626E-01 0.  0.
         14    1    1    2    0    0  0.20617712468E-01 -0.84938797383E-03 -0.11275493670E-01  0.23514852431E-01  0.00000000000E+00 0. -1.
     999901    1    3    3    0    0 -0.11608951880E+00  0.79150308879E-01 -0.20378571042E-01  0.89137917517E+00  0.88000000000E+00 0.  1.
        -11    1    4    4    0    0  0.66259869462E-01 -0.46575948893E-01  0.12933448894E-01  0.82019659459E-01  0.51100000000E-03 0. -1.
         11    1    4    4    0    0  0.29211936869E-01 -0.31724972012E-01  0.18720615819E-01  0.47016312939E-01  0.51100000000E-03 0.  1.
</event>
<event>
 8    1  0.1143506E+005  0.1043930E+01  0.7957747E-01            NaN
         13   -1    0    0    0    0  0.00000000000E+00  0.00000000000E+00  0.74505805969E-08  0.10566000000E+00  0.10566000000E+00 0. -1.
     999900   -1    0    0    0    0 -0.00000000000E+00 -0.00000000000E+00 -0.74505805969E-08  0.93827000000E+00  0.93827000000E+00 0.  1.
     999902    2    1    2    0    0  0.56510651577E-02  0.66440014437E-02  0.22471611232E-01  0.10198250087E+01  0.10195400913E+01 0.  0.
     999903    2    3    3    0    0  0.11421573746E+00 -0.47620038702E-01 -0.33660335939E-01  0.12972295300E+00  0.19547980732E-01 0.  0.
         14    1    1    2    0    0 -0.56510651577E-02 -0.66440014437E-02 -0.22471611232E-01  0.24104991266E-01  0.00000000000E+00 0.  1.
     999901    1    3    3    0    0 -0.10856467230E+00  0.54264040146E-01  0.56131947170E-01  0.89010205573E+00  0.88000000000E+00 0. -1.
        -11    1    4    4    0    0  0.78191774399E-01 -0.37945768419E-01 -0.15701151143E-01  0.88321131066E-01  0.51100000000E-03 0.  1.
         11    1    4    4    0    0  0.36023963060E-01 -0.96742702825E-02 -0.17959184796E-01  0.41401821936E-01  0.51100000000E-03 0. -1.
</event>
<event>
 8    1  0.1143506E+005  0.1043930E+01  0.7957747E-01            NaN
         13   -1    0    0    0    0  0.00000000000E+00  0.00000000000E+00  0.74505805969E-08  0.10566000000E+00  0.10566000000E+00 0.  1.
     999900   -1    0    0    0    0 -0.00000000000E+00 -0.00000000000E+00 -0.74505805969E-08  0.93827000000E+00  0.93827000000E+00 0. -1.
     999902    2    1    2    0    0  0.62348875014E-02 -0.10036308153E-01 -0.19446495709E-01  0.10211754950E+01  0.10209219481E+01 0.  0.
     999903    2    3    3    0    0 -0.11416691723E+00 -0.42654093622E-01  0.41276723472E-01  0.13030635539E+00  0.20555331732E-01 0.  0.
         14    1    1    2    0    0 -0.62348875014E-02  0.10036308153E-01  0.19446495709E-01  0.22754505023E-01  0.00000000000E+00 0.  1.
     999901    1    3    3    0    0  0.12040180473E+00  0.32617785469E-01 -0.60723219181E-01  0.89086913958E+00  0.88000000000E+00 0.  1.
        -11    1    4    4    0    0 -0.32254332849E-01 -0.64285900189E-02  0.19095558148E-01  0.38033803637E-01  0.51100000000E-03 0. -1.
         11    1    4    4    0    0 -0.81912584383E-01 -0.36225503603E-01  0.22181165325E-01  0.92272551757E-01  0.51100000000E-03 0.  1.
</event>
<event>
 8    1  0.1143506E+005  0.1043930E+01  0.7957747E-01            NaN
         13   -1    0    0    0    0  0.00000000000E+00  0.00000000000E+00  0.74505805969E-08  0.10566000000E+00  0.10566000000E+00 0.  1.
     999900   -1    0    0    0    0 -0.00000000000E+00 -0.00000000000E+00 -0.74505805969E-08  0.93827000000E+00  0.93827000000E+00 0.  1.
     999902    2    1    2    0    0  0.11795766345E-03  0.22882033600E-01  0.35136560301E-02  0.10207794675E+01  0.10205169152E+01 0.  0.
     999903    2    3    3    0    0  0.99808595703E-01  0.82428061061E-01 -0.21888474023E-01  0.13278778911E+00  0.19933655357E-01 0.  0.
         14    1    1    2    0    0 -0.11795766345E-03 -0.22882033600E-01 -0.35136560301E-02  0.23150532486E-01  0.00000000000E+00 0.  1.
     999901    1    3    3    0    0 -0.99690638040E-01 -0.59546027461E-01  0.25402130053E-01  0.88799167840E+00  0.88000000000E+00 0. -1.
        -11    1    4    4    0    0  0.55857549181E-01  0.50781327374E-01 -0.21977419293E-01  0.78626185779E-01  0.51100000000E-03 0.  1.
         11    1    4    4    0    0  0.43951046522E-01  0.31646733686E-01  0.88945269246E-04  0.54161603334E-01  0.51100000000E-03 0. -1.
</event>
<event>
 8    1  0.1143506E+005  0.1043930E+01  0.7957747E-01            NaN
         13   -1    0    0    0    0  0.00000000000E+00  0.00000000000E+00  0.74505805969E-08  0.10566000000E+00  0.10566000000E+00 0. -1.
     999900   -1    0    0    0    0 -0.00000000000E+00 -0.00000000000E+00 -0.74505805969E-08  0.93827000000E+00  0.93827000000E+00 0. -1.
     999902    2    1    2    0    0  0.47969733135E-02  0.22913538471E-01  0.49874408167E-02  0.10199943412E+01  0.10197134599E+01 0.  0.
     999903    2    3    3    0    0  0.40724428776E-01 -0.89695594009E-01 -0.79190579544E-01  0.12811007855E+00  0.20910897982E-01 0.  0.
         14    1    1    2    0    0 -0.47969733135E-02 -0.22913538471E-01 -0.49874408167E-02  0.23935658841E-01  0.00000000000E+00 0.  1.
     999901    1    3    3    0    0 -0.35927455462E-01  0.11260913248E+00  0.84178020361E-01  0.89188426261E+00  0.88000000000E+00 0. -1.
        -11    1    4    4    0    0  0.22204589949E-01 -0.54637126904E-01 -0.34354214354E-01  0.68254909098E-01  0.51100000000E-03 0. -1.
         11    1    4    4    0    0  0.18519838827E-01 -0.35058467105E-01 -0.44836365190E-01  0.59855169454E-01  0.51100000000E-03 0.  1.
</event>
<event>
 8    1  0.1143506E+005  0.1043930E+01  0.7957747E-01            NaN
         13   -1    0    0    0    0  0.00000000000E+00  0.00000000000E+00  0.74505805969E-08  0.10566000000E+00  0.10566000000E+00 0. -1.
     999900   -1    0    0    0    0 -0.00000000000E+00 -0.00000000000E+00 -0.74505805969E-08  0.93827000000E+00  0.93827000000E+00 0. -1.
     999902    2    1    2    0    0  0.58950642932E-02  0.20723095265E-01  0.10718500483E-01  0.10198658210E+01  0.10195818790E+01 0.  0.
     999903    2    3    3    0    0 -0.65325301672E-02  0.13081726693E+00  0.98753614607E-02  0.13291831258E+00  0.20345116806E-01 0.  0.
         14    1    1    2    0    0 -0.58950642932E-02 -0.20723095265E-01 -0.10718500483E-01  0.24064179042E-01  0.00000000000E+00 0.  1.
     999901    1    3    3    0    0  0.12427594460E-01 -0.11009417166E+00  0.84313902193E-03  0.88694750838E+00  0.88000000000E+00 0.  1.
        -11    1    4    4    0    0 -0.11076035116E-01  0.47871925225E-01  0.82788029395E-02  0.49831711568E-01  0.51100000000E-03 0. -1.
         11    1    4    4    0    0  0.45435049487E-02  0.82945341702E-01  0.15965585212E-02  0.83086601010E-01  0.51100000000E-03 0.  1.
</event>
<event>
 8    1  0.1143506E+005  0.1043930E+01  0.7957747E-01            NaN
         13   -1    0    0    0    0  0.00000000000E+00  0.00000000000E+00  0.74505805969E-08  0.10566000000E+00  0.10566000000E+00 0. -1.
     999900   -1    0    0    0    0 -0.00000000000E+00 -0.00000000000E+00 -0.74505805969E-08  0.93827000000E+00  0.93827000000E+00 0.  1.
     999902    2    1    2    0    0  0.14275619989E-01 -0.14792619179E-01  0.94401818614E-02  0.10213085071E+01  0.10210579487E+01 0.  0.
     999903    2    3    3    0    0 -0.58973416231E-01  0.78409725554E-01  0.83559506027E-01  0.13027215957E+00  0.19044569528E-01 0.  0.
         14    1    1    2    0    0 -0.14275619989E-01  0.14792619179E-01 -0.94401818614E-02  0.22621492917E-01  0.00000000000E+00 0.  1.
     999901    1    3    3    0    0  0.73249036220E-01 -0.93202344733E-01 -0.74119324165E-01  0.89103634751E+00  0.88000000000E+00 0. -1.
        -11    1    4    4    0    0 -0.24098449127E-01  0.31743019276E-01  0.46406288652E-01  0.61173190782E-01  0.51100000000E-03 0. -1.
         11    1    4    4    0    0 -0.34874967105E-01  0.46666706278E-01  0.37153217375E-01  0.69098968789E-01  0.51100000000E-03 0.  1.
</event>
<event>
 8    1  0.1143506E+005  0.1043930E+01  0.7957747E-01            NaN
         13   -1    0    0    0    0  0.00000000000E+00  0.00000000000E+00  0.74505805969E-08  0.10566000000E+00  0.10566000000E+00 0.  1.
     999900   -1    0    0    0    0 -0.00000000000E+00 -0.00000000000E+00 -0.74505805969E-08  0.93827000000E+00  0.93827000000E+00 0.  1.
     999902    2    1    2    0    0  0.15905481164E-01  0.67825567148E-02  0.17481478005E-01  0.10193415987E+01  0.10190449967E+01 0.  0.
     999903    2    3    3    0    0 -0.22267994099E-01 -0.10631416941E+00  0.68241028240E-01  0.12983352360E+00  0.20033465407E-01 0.  0.
         14    1    1    2    0    0 -0.15905481164E-01 -0.67825567148E-02 -0.17481478005E-01  0.24588401329E-01  0.00000000000E+00 0. -1.
     999901    1    3    3    0    0  0.38173475263E-01  0.11309672613E+00 -0.50759550235E-01  0.88950807507E+00  0.88000000000E+00 0.  1.
        -11    1    4    4    0    0 -0.20945369271E-01 -0.78914662433E-01  0.59535469971E-01  0.10104932334E+00  0.51100000000E-03 0. -1.
         11    1    4    4    0    0 -0.13226248281E-02 -0.27399506980E-01  0.87055582699E-02  0.28784200266E-01  0.51100000000E-03 0.  1.
</event>
<event>
 8    1  0.1143506E+005  0.1043930E+01  0.7957747E-01            NaN
         13   -1    0    0    0    0  0.00000000000E+00  0.00000000000E+00  0.74505805969E-08  0.10566000000E+00  0.10566000000E+00 0.  1.
     999900   -1    0    0    0    0 -0.00000000000E+00 -0.00000000000E+00 -0.74505805969E-08  0.93827000000E+00  0.93827000000E+00 0.  1.
     999902    2    1    2    0    0  0.15526025778E-01  0.17205631022E-01  0.62909042240E-02  0.10199161146E+01  0.10196333724E+01 0.  0.
     999903    2    3    3    0    0  0.10819740254E+00 -0.10588980702E-01 -0.70734012374E-01  0.13126918682E+00  0.20235969756E-01 0.  0.
         14    1    1    2    0    0 -0.15526025778E-01 -0.17205631022E-01 -0.62909042240E-02  0.24013885385E-01  0.00000000000E+00 0. -1.
     999901    1    3    3    0    0 -0.92671376762E-01  0.27794611723E-01  0.77024916598E-01  0.88864692780E+00  0.88000000000E+00 0. -1.
        -11    1    4    4    0    0  0.57864090707E-01 -0.96286936242E-02 -0.26983602251E-01  0.64570431667E-01  0.51100000000E-03 0. -1.
         11    1    4    4    0    0  0.50333311832E-01 -0.96028707734E-03 -0.43750410124E-01  0.66698755148E-01  0.51100000000E-03 0.  1.
</event>
<event>
 8    1  0.1143506E+005  0.1043930E+01  0.7957747E-01            NaN
         13   -1    0    0    0    0  0.00000000000E+00  0.00000000000E+00  0.74505805969E-08  0.10566000000E+00  0.10566000000E+00 0.  1.
     999900   -1    0    0    0    0 -0.00000000000E+00 -0.00000000000E+00 -0.74505805969E-08  0.93827000000E+00  0.93827000000E+00 0.  1.
     999902    2    1    2    0    0 -0.23284333435E-01 -0.23617415979E-02 -0.23801078994E-02  0.10204054826E+01  0.10201342784E+01 0.  0.
     999903    2    3    3    0    0  0.12203133405E+00 -0.25449270344E-01  0.19568787903E-01  0.12791938675E+00  0.21002861589E-01 0.  0.
         14    1    1    2    0    0  0.23284333435E-01  0.23617415979E-02  0.23801078994E-02  0.23524517434E-01  0.00000000000E+00 0.  1.
     999901    1    3    3    0    0 -0.14531566749E+00  0.23087528746E-01 -0.21948895802E-01  0.89248609582E+00  0.88000000000E+00 0.  1.
        -11    1    4    4    0    0  0.10848943222E+00 -0.15488507664E-01  0.16593839381E-01  0.11083982768E+00  0.51100000000E-03 0.  1.
         11    1    4    4    0    0  0.13541901829E-01 -0.99607626803E-02  0.29749485215E-02  0.17079559070E-01  0.51100000000E-03 0. -1.
</event>
<event>
 8    1  0.1143506E+005  0.1043930E+01  0.7957747E-01            NaN
         13   -1    0    0    0    0  0.00000000000E+00  0.00000000000E+00  0.74505805969E-08  0.10566000000E+00  0.10566000000E+00 0.  1.
     999900   -1    0    0    0    0 -0.00000000000E+00 -0.00000000000E+00 -0.74505805969E-08  0.93827000000E+00  0.93827000000E+00 0.  1.
     999902    2    1    2    0    0 -0.18860515817E-01 -0.14838836615E-01  0.11736748487E-02  0.10199031891E+01  0.10196201388E+01 0.  0.
     999903    2    3    3    0    0 -0.94701771137E-01  0.87670507651E-01 -0.33363286999E-02  0.13070107384E+00  0.20422934287E-01 0.  0.
         14    1    1    2    0    0  0.18860515817E-01  0.14838836615E-01 -0.11736748487E-02  0.24026810891E-01  0.00000000000E+00 0.  1.
     999901    1    3    3    0    0  0.75841255320E-01 -0.10250934427E+00  0.45100035486E-02  0.88920211527E+00  0.88000000000E+00 0. -1.
        -11    1    4    4    0    0 -0.58972996266E-01  0.50999149477E-01  0.76235654494E-02  0.78339692411E-01  0.51100000000E-03 0. -1.
         11    1    4    4    0    0 -0.35728774871E-01  0.36671358175E-01 -0.10959894149E-01  0.52361381427E-01  0.51100000000E-03 0.  1.
</event>
<event>
 7    1  0.1143506E+005  0.1043930E+01  0.7957747E-01            NaN
         13   -1    0    0    0    0  0.00000000000E+00  0.00000000000E+00  0.74505805969E-08  0.10566000000E+00  0.10566000000E+00 0.  1.
     999900   -1    0    0    0    0 -0.00000000000E+00 -0.00000000000E+00 -0.74505805969E-08  0.93827000000E+00  0.93827000000E+00 0.  1.
     999903    2    1    2    0    0  0.55005991694E-02  0.89088005507E-01 -0.11146287102E+00  0.14428712319E+00  0.20685090899E-01 0.  0.
         14    1    1    2    0    0  0.68782247479E-02 -0.51739578633E-02  0.17461460232E-02  0.87823027498E-02  0.00000000000E+00 0.  1.
     999901    1    1    2    0    0 -0.12378823917E-01 -0.83914047644E-01  0.10971672500E+00  0.89086057406E+00  0.88000000000E+00 0. -1.
        -11    1    3    3    0    0  0.20026999300E-04  0.38687115756E-01 -0.32913405409E-01  0.50796128821E-01  0.51100000000E-03 0.  1.
         11    1    3    3    0    0  0.54805721701E-02  0.50400889751E-01 -0.78549465611E-01  0.93490994367E-01  0.51100000000E-03 0. -1.
</event>
<event>
 8    1  0.1143506E+005  0.1043930E+01  0.7957747E-01            NaN
         13   -1    0    0    0    0  0.00000000000E+00  0.00000000000E+00  0.74505805969E-08  0.10566000000E+00  0.10566000000E+00 0.  1.
     999900   -1    0    0    0    0 -0.00000000000E+00 -0.00000000000E+00 -0.74505805969E-08  0.93827000000E+00  0.93827000000E+00 0.  1.
     999902    2    1    2    0    0  0.10064915318E-01 -0.16075279017E-01  0.11225557323E-01  0.10218907111E+01  0.10216530210E+01 0.  0.
     999903    2    3    3    0    0 -0.62292365236E-01  0.29705172752E-01 -0.10803602769E+00  0.12972774875E+00  0.19868806277E-01 0.  0.
         14    1    1    2    0    0 -0.10064915318E-01  0.16075279017E-01 -0.11225557323E-01  0.22039288851E-01  0.00000000000E+00 0.  1.
     999901    1    3    3    0    0  0.72357280554E-01 -0.45780451770E-01  0.11926158501E+00  0.89216296240E+00  0.88000000000E+00 0. -1.
        -11    1    4    4    0    0 -0.31772501944E-01  0.14381538632E-01 -0.72418963003E-01  0.80380892360E-01  0.51100000000E-03 0. -1.
         11    1    4    4    0    0 -0.30519863292E-01  0.15323634120E-01 -0.35617064684E-01  0.49346856392E-01  0.51100000000E-03 0.  1.
</event>
<event>
 8    1  0.1143506E+005  0.1043930E+01  0.7957747E-01            NaN
         13   -1    0    0    0    0  0.00000000000E+00  0.00000000000E+00  0.74505805969E-08  0.10566000000E+00  0.10566000000E+00 0.  1.
     999900   -1    0    0    0    0 -0.00000000000E+00 -0.00000000000E+00 -0.74505805969E-08  0.93827000000E+00  0.93827000000E+00 0. -1.
     999902    2    1    2    0    0  0.29217228294E-01 -0.22313615176E-02 -0.14010765601E-01  0.10114503609E+01  0.10109287342E+01 0.  0.
     999903    2    3    3    0    0  0.12387456962E+00 -0.96508502244E-02  0.81531323696E-02  0.12606552962E+00  0.19697621235E-01 0.  0.
         14    1    1    2    0    0 -0.29217228294E-01  0.22313615176E-02  0.14010765601E-01  0.32479639101E-01  0.00000000000E+00 0.  1.
     999901    1    3    3    0    0 -0.94657341330E-01  0.74194887068E-02 -0.22163897970E-01  0.88538483128E+00  0.88000000000E+00 0.  1.
        -11    1    4    4    0    0  0.41276124820E-01 -0.11154747621E-01 -0.21379887608E-02  0.42813303908E-01  0.51100000000E-03 0. -1.
         11    1    4    4    0    0  0.82598444804E-01  0.15038973963E-02  0.10291121130E-01  0.83252225715E-01  0.51100000000E-03 0.  1.
</event>
<event>
 8    1  0.1143506E+005  0.1043930E+01  0.7957747E-01            NaN
         13   -1    0    0    0    0  0.00000000000E+00  0.00000000000E+00  0.74505805969E-08  0.10566000000E+00  0.10566000000E+00 0.  1.
     999900   -1    0    0    0    0 -0.00000000000E+00 -0.00000000000E+00 -0.74505805969E-08  0.93827000000E+00  0.93827000000E+00 0.  1.
     999902    2    1    2    0    0  0.50077591155E-02  0.63950461674E-02  0.26745910530E-01  0.10159779339E+01  0.10155933459E+01 0.  0.
     999903    2    3    3    0    0  0.70402823149E-01 -0.56100962471E-01  0.90283267168E-01  0.12906234541E+00  0.20053557648E-01 0.  0.
         14    1    1    2    0    0 -0.50077591155E-02 -0.63950461674E-02 -0.26745910530E-01  0.27952066058E-01  0.00000000000E+00 0. -1.
     999901    1    3    3    0    0 -0.65395064033E-01  0.62496008639E-01 -0.63537356638E-01  0.88691558853E+00  0.88000000000E+00 0.  1.
        -11    1    4    4    0    0  0.33036948275E-01 -0.28168044375E-01  0.57452714452E-01  0.72013569514E-01  0.51100000000E-03 0. -1.
         11    1    4    4    0    0  0.37365874873E-01 -0.27932918097E-01  0.32830552716E-01  0.57048775895E-01  0.51100000000E-03 0.  1.
</event>
<event>
 7    1  0.1143506E+005  0.1043930E+01  0.7957747E-01            NaN
         13   -1    0    0    0    0  0.00000000000E+00  0.00000000000E+00  0.74505805969E-08  0.10566000000E+00  0.10566000000E+00 0.  1.
     999900   -1    0    0    0    0 -0.00000000000E+00 -0.00000000000E+00 -0.74505805969E-08  0.93827000000E+00  0.93827000000E+00 0.  1.
     999903    2    1    2    0    0  0.10494837668E+00 -0.15572658631E-01 -0.51360215335E-01  0.11946959612E+00  0.19453617019E-01 0.  0.
         14    1    1    2    0    0 -0.25317463511E-01  0.24501853788E-01 -0.15083361431E-01  0.38325221327E-01  0.00000000000E+00 0.  1.
     999901    1    1    2    0    0 -0.79630913164E-01 -0.89291951570E-02  0.66443576766E-01  0.88613518255E+00  0.88000000000E+00 0. -1.
        -11    1    3    3    0    0  0.54548202565E-01 -0.15919768804E-01 -0.20733762425E-01  0.60490457653E-01  0.51100000000E-03 0. -1.
         11    1    3    3    0    0  0.50400174111E-01  0.34711017363E-03 -0.30626452911E-01  0.58979138471E-01  0.51100000000E-03 0.  1.
</event>
<event>
 8    1  0.1143506E+005  0.1043930E+01  0.7957747E-01            NaN
         13   -1    0    0    0    0  0.00000000000E+00  0.00000000000E+00  0.74505805969E-08  0.10566000000E+00  0.10566000000E+00 0.  1.
     999900   -1    0    0    0    0 -0.00000000000E+00 -0.00000000000E+00 -0.74505805969E-08  0.93827000000E+00  0.93827000000E+00 0.  1.
     999902    2    1    2    0    0  0.17369242081E-01 -0.82079945453E-02 -0.13469034660E-01  0.10204677614E+01  0.10201980080E+01 0.  0.
     999903    2    3    3    0    0  0.82322062493E-02 -0.11174292347E+00  0.64678432121E-01  0.13091169601E+00  0.20008058474E-01 0.  0.
         14    1    1    2    0    0 -0.17369242081E-01  0.82079945453E-02  0.13469034660E-01  0.23462238589E-01  0.00000000000E+00 0.  1.
     999901    1    3    3    0    0  0.91370358315E-02  0.10353492893E+00 -0.78147466781E-01  0.88955606540E+00  0.88000000000E+00 0.  1.
        -11    1    4    4    0    0 -0.23239459789E-02 -0.81363843547E-01  0.42351553265E-01  0.91757239206E-01  0.51100000000E-03 0. -1.
         11    1    4    4    0    0  0.10556152228E-01 -0.30379079926E-01  0.22326878856E-01  0.39154456802E-01  0.51100000000E-03 0.  1.
</event>
<event>
 8    1  0.1143506E+005  0.1043930E+01  0.7957747E-01            NaN
         13   -1    0    0    0    0  0.00000000000E+00  0.00000000000E+00  0.74505805969E-08  0.10566000000E+00  0.10566000000E+00 0. -1.
     999900   -1    0    0    0    0 -0.00000000000E+00 -0.00000000000E+00 -0.74505805969E-08  0.93827000000E+00  0.93827000000E+00 0.  1.
     999902    2    1    2    0    0  0.57916203913E-02 -0.12495347298E-01 -0.17004887183E-01  0.10220475239E+01  0.10218132405E+01 0.  0.
     999903    2    3    3    0    0  0.25968055661E-01 -0.17686801289E-01  0.12480181249E+00  0.13045166268E+00  0.21330284571E-01 0.  0.
         14    1    1    2    0    0 -0.57916203913E-02  0.12495347298E-01  0.17004887183E-01  0.21882476070E-01  0.00000000000E+00 0. -1.
     999901    1    3    3    0    0 -0.20176435269E-01  0.51914539913E-02 -0.14180669967E+00  0.89159586125E+00  0.88000000000E+00 0.  1.
        -11    1    4    4    0    0  0.27859275107E-01 -0.10223843847E-01  0.88683460292E-01  0.93518358855E-01  0.51100000000E-03 0.  1.
         11    1    4    4    0    0 -0.18912194463E-02 -0.74629574417E-02  0.36118352196E-01  0.36933303821E-01  0.51100000000E-03 0. -1.
</event>
<event>
 8    1  0.1143506E+005  0.1043930E+01  0.7957747E-01            NaN
         13   -1    0    0    0    0  0.00000000000E+00  0.00000000000E+00  0.74505805969E-08  0.10566000000E+00  0.10566000000E+00 0.  1.
     999900   -1    0    0    0    0 -0.00000000000E+00 -0.00000000000E+00 -0.74505805969E-08  0.93827000000E+00  0.93827000000E+00 0. -1.
     999902    2    1    2    0    0  0.21255604172E-01 -0.58331821774E-02 -0.10538689230E-01  0.10194986535E+01  0.10192058741E+01 0.  0.
     999903    2    3    3    0    0  0.54128095954E-01  0.11408924028E-02 -0.11901128350E+00  0.13220189243E+00  0.19557667414E-01 0.  0.
         14    1    1    2    0    0 -0.21255604172E-01  0.58331821774E-02  0.10538689230E-01  0.24431346539E-01  0.00000000000E+00 0.  1.
     999901    1    3    3    0    0 -0.32872491783E-01 -0.69740745802E-02  0.10847259427E+00  0.88729676103E+00  0.88000000000E+00 0.  1.
        -11    1    4    4    0    0  0.97942370433E-02  0.77670847429E-02 -0.21401096375E-01  0.24789569010E-01  0.51100000000E-03 0.  1.
         11    1    4    4    0    0  0.44333858911E-01 -0.66261923402E-02 -0.97610187123E-01  0.10741232342E+00  0.51100000000E-03 0. -1.
</event>
<event>
 8    1  0.1143506E+005  0.1043930E+01  0.7957747E-01            NaN
         13   -1    0    0    0    0  0.00000000000E+00  0.00000000000E+00  0.74505805969E-08  0.10566000000E+00  0.10566000000E+00 0. -1.
     999900   -1    0    0    0    0 -0.00000000000E+00 -0.00000000000E+00 -0.74505805969E-08  0.93827000000E+00  0.93827000000E+00 0.  1.
     999902    2    1    2    0    0  0.23804355044E-01 -0.40296181253E-02 -0.10182010502E-01  0.10177277390E+01  0.10173903835E+01 0.  0.
     999903    2    3    3    0    0 -0.92819458825E-01 -0.43916303232E-01  0.69398496738E-01  0.12558138404E+00  0.20259295215E-01 0.  0.
         14    1    1    2    0    0 -0.23804355044E-01  0.40296181253E-02  0.10182010502E-01  0.26202260955E-01  0.00000000000E+00 0.  1.
     999901    1    3    3    0    0  0.11662381387E+00  0.39886685107E-01 -0.79580507239E-01  0.89214635500E+00  0.88000000000E+00 0.  1.
        -11    1    4    4    0    0 -0.13304447877E-01 -0.19030491401E-02  0.16338435526E-01  0.21162124794E-01  0.51100000000E-03 0.  1.
         11    1    4    4    0    0 -0.79515010947E-01 -0.42013254092E-01  0.53060061212E-01  0.10441925925E+00  0.51100000000E-03 0. -1.
</event>
<event>
 8    1  0.1143506E+005  0.1043930E+01  0.7957747E-01            NaN
         13   -1    0    0    0    0  0.00000000000E+00  0.00000000000E+00  0.74505805969E-08  0.10566000000E+00  0.10566000000E+00 0.  1.
     999900   -1    0    0    0    0 -0.00000000000E+00 -0.00000000000E+00 -0.74505805969E-08  0.93827000000E+00  0.93827000000E+00 0. -1.
     999902    2    1    2    0    0 -0.20277158886E-01 -0.42219426473E-02 -0.12388720832E-01  0.10197956184E+01  0.10195099974E+01 0.  0.
     999903    2    3    3    0    0  0.11795181529E+00  0.35455250987E-01 -0.28119586827E-01  0.12798342451E+00  0.20477798549E-01 0.  0.
         14    1    1    2    0    0  0.20277158886E-01  0.42219426473E-02  0.12388720832E-01  0.24134381617E-01  0.00000000000E+00 0.  1.
     999901    1    3    3    0    0 -0.13822897417E+00 -0.39677193634E-01  0.15730865995E-01  0.89181219387E+00  0.88000000000E+00 0.  1.
        -11    1    4    4    0    0  0.88112880240E-01  0.16950803341E-01 -0.20989556228E-01  0.92152221839E-01  0.51100000000E-03 0. -1.
         11    1    4    4    0    0  0.29838935049E-01  0.18504447646E-01 -0.71300305993E-02  0.35831202671E-01  0.51100000000E-03 0.  1.
</event>
<event>
 8    1  0.1143506E+005  0.1043930E+01  0.7957747E-01            NaN
         13   -1    0    0    0    0  0.00000000000E+00  0.00000000000E+00  0.74505805969E-08  0.10566000000E+00  0.10566000000E+00 0.  1.
     999900   -1    0    0    0    0 -0.00000000000E+00 -0.00000000000E+00 -0.74505805969E-08  0.93827000000E+00  0.93827000000E+00 0. -1.
     999902    2    1    2    0    0  0.19182913849E-01  0.27256251920E-01 -0.64674875442E-02  0.10099783307E+01  0.10094075057E+01 0.  0.
     999903    2    3    3    0    0 -0.45539041533E-01  0.28116471259E-01 -0.10773821790E+00  0.12180862152E+00  0.19117437631E-01 0.  0.
         14    1    1    2    0    0 -0.19182913849E-01 -0.27256251920E-01  0.64674875442E-02  0.33951669291E-01  0.00000000000E+00 0. -1.
     999901    1    3    3    0    0  0.64721955382E-01 -0.86021933898E-03  0.10127073036E+00  0.88816970918E+00  0.88000000000E+00 0.  1.
        -11    1    4    4    0    0 -0.26675525495E-01  0.17072472576E-01 -0.82749561974E-01  0.88604763462E-01  0.51100000000E-03 0.  1.
         11    1    4    4    0    0 -0.18863516038E-01  0.11043998683E-01 -0.24988655927E-01  0.33203858063E-01  0.51100000000E-03 0. -1.
</event>
<event>
 8    1  0.1143506E+005  0.1043930E+01  0.7957747E-01            NaN
         13   -1    0    0    0    0  0.00000000000E+00  0.00000000000E+00  0.74505805969E-08  0.10566000000E+00  0.10566000000E+00 0.  1.
     999900   -1    0    0    0    0 -0.00000000000E+00 -0.00000000000E+00 -0.74505805969E-08  0.93827000000E+00  0.93827000000E+00 0. -1.
     999902    2    1    2    0    0 -0.12219777409E-01 -0.85177947517E-02  0.10564329242E-01  0.10256685422E+01  0.10255059618E+01 0.  0.
     999903    2    3    3    0    0 -0.97231070700E-01  0.49318761916E-01 -0.77589683814E-01  0.13530731369E+00  0.20042173487E-01 0.  0.
         14    1    1    2    0    0  0.12219777409E-01  0.85177947517E-02 -0.10564329242E-01  0.18261457765E-01  0.00000000000E+00 0.  1.
     999901    1    3    3    0    0  0.85011293291E-01 -0.57836556667E-01  0.88154013055E-01  0.89036122854E+00  0.88000000000E+00 0.  1.
        -11    1    4    4    0    0 -0.35720908853E-01  0.81068149995E-02 -0.22133964695E-01  0.42800435661E-01  0.51100000000E-03 0. -1.
         11    1    4    4    0    0 -0.61510161847E-01  0.41211946916E-01 -0.55455719119E-01  0.92506878031E-01  0.51100000000E-03 0.  1.
</event>
<event>
 8    1  0.1143506E+005  0.1043930E+01  0.7957747E-01            NaN
         13   -1    0    0    0    0  0.00000000000E+00  0.00000000000E+00  0.74505805969E-08  0.10566000000E+00  0.10566000000E+00 0. -1.
     999900   -1    0    0    0    0 -0.00000000000E+00 -0.00000000000E+00 -0.74505805969E-08  0.93827000000E+00  0.93827000000E+00 0. -1.
     999902    2    1    2    0    0  0.12952572332E-01 -0.16705174386E-01  0.11240501156E-01  0.10199888044E+01  0.10197077916E+01 0.  0.
     999903    2    3    3    0    0  0.11523564198E+00  0.57269367075E-01  0.14455322152E-01  0.13097564689E+00  0.19662913122E-01 0.  0.
         14    1    1    2    0    0 -0.12952572332E-01  0.16705174386E-01 -0.11240501156E-01  0.23941195615E-01  0.00000000000E+00 0.  1.
     999901    1    3    3    0    0 -0.10228306965E+00 -0.73974541461E-01 -0.32148209961E-02  0.88901315749E+00  0.88000000000E+00 0.  1.
        -11    1    4    4    0    0  0.96572641594E-01  0.41101709251E-01  0.70553900300E-02  0.10519346585E+00  0.51100000000E-03 0. -1.
         11    1    4    4    0    0  0.18663000386E-01  0.16167657824E-01  0.73999321219E-02  0.25782181043E-01  0.51100000000E-03 0.  1.
</event>
<event>
 8    1  0.1143506E+005  0.1043930E+01  0.7957747E-01            NaN
         13   -1    0    0    0    0  0.00000000000E+00  0.00000000000E+00  0.74505805969E-08  0.10566000000E+00  0.10566000000E+00 0.  1.
     999900   -1    0    0    0    0 -0.00000000000E+00 -0.00000000000E+00 -0.74505805969E-08  0.93827000000E+00  0.93827000000E+00 0.  1.
     999902    2    1    2    0    0  0.14824697894E-01  0.89785798184E-02 -0.15684295871E-01  0.10205551481E+01  0.10202874236E+01 0.  0.
     999903    2    3    3    0    0 -0.84039722436E-01  0.93668089258E-01  0.25952048392E-01  0.13000471621E+00  0.19782101237E-01 0.  0.
         14    1    1    2    0    0 -0.14824697894E-01 -0.89785798184E-02  0.15684295871E-01  0.23374851875E-01  0.00000000000E+00 0.  1.
     999901    1    3    3    0    0  0.98864420330E-01 -0.84689509439E-01 -0.41636344263E-01  0.89055043191E+00  0.88000000000E+00 0. -1.
        -11    1    4    4    0    0 -0.38014927702E-01  0.57060068787E-01  0.14851272034E-01  0.70155595501E-01  0.51100000000E-03 0.  1.
         11    1    4    4    0    0 -0.46024794734E-01  0.36608020471E-01  0.11100776359E-01  0.59849120711E-01  0.51100000000E-03 0. -1.
</event>
<event>
 8    1  0.1143506E+005  0.1043930E+01  0.7957747E-01            NaN
         13   -1    0    0    0    0  0.00000000000E+00  0.00000000000E+00  0.74505805969E-08  0.10566000000E+00  0.10566000000E+00 0. -1.
     999900   -1    0    0    0    0 -0.00000000000E+00 -0.00000000000E+00 -0.74505805969E-08  0.93827000000E+00  0.93827000000E+00 0. -1.
     999902    2    1    2    0    0 -0.45180466610E-02 -0.14973378479E-01 -0.18030259968E-01  0.10200615044E+01  0.10197822158E+01 0.  0.
     999903    2    3    3    0    0 -0.37864558289E-01  0.82415026991E-03 -0.12562158391E+00  0.13274113115E+00  0.20125147408E-01 0.  0.
         14    1    1    2    0    0  0.45180466610E-02  0.14973378479E-01  0.18030259968E-01  0.23868495621E-01  0.00000000000E+00 0. -1.
     999901    1    3    3    0    0  0.33346511628E-01 -0.15797528749E-01  0.10759132394E+00  0.88732037322E+00  0.88000000000E+00 0.  1.
        -11    1    4    4    0    0 -0.25491372368E-01 -0.76957140761E-02 -0.94474761850E-01  0.98156893940E-01  0.51100000000E-03 0. -1.
         11    1    4    4    0    0 -0.12373185921E-01  0.85198643460E-02 -0.31146822059E-01  0.34584237214E-01  0.51100000000E-03 0.  1.
</event>
<event>
 8    1  0.1143506E+005  0.1043930E+01  0.7957747E-01            NaN
         13   -1    0    0    0    0  0.00000000000E+00  0.00000000000E+00  0.74505805969E-08  0.10566000000E+00  0.10566000000E+00 0. -1.
     999900   -1    0    0    0    0 -0.00000000000E+00 -0.00000000000E+00 -0.74505805969E-08  0.93827000000E+00  0.93827000000E+00 0.  1.
     999902    2    1    2    0    0 -0.21288959742E-01  0.84077188364E-02 -0.51674111873E-02  0.10204648837E+01  0.10201950633E+01 0.  0.
     999903    2    3    3    0    0 -0.88988293042E-01 -0.62604780497E-01  0.71079593642E-01  0.13173568958E+00  0.21533890460E-01 0.  0.
         14    1    1    2    0    0  0.21288959742E-01 -0.84077188364E-02  0.51674111873E-02  0.23465116264E-01  0.00000000000E+00 0. -1.
     999901    1    3    3    0    0  0.67699333300E-01  0.71012499334E-01 -0.76247004829E-01  0.88872919415E+00  0.88000000000E+00 0.  1.
        -11    1    4    4    0    0 -0.57776544804E-01 -0.46396383653E-01  0.37262353759E-01  0.82942737321E-01  0.51100000000E-03 0. -1.
         11    1    4    4    0    0 -0.31211748238E-01 -0.16208396845E-01  0.33817239883E-01  0.48792952264E-01  0.51100000000E-03 0.  1.
</event>
<event>
 8    1  0.1143506E+005  0.1043930E+01  0.7957747E-01            NaN
         13   -1    0    0    0    0  0.00000000000E+00  0.00000000000E+00  0.74505805969E-08  0.10566000000E+00  0.10566000000E+00 0. -1.
     999900   -1    0    0    0    0 -0.00000000000E+00 -0.00000000000E+00 -0.74505805969E-08  0.93827000000E+00  0.93827000000E+00 0. -1.
     999902    2    1    2    0    0  0.17780894833E-01 -0.13218907013E-01  0.10628510133E-01  0.10193563362E+01  0.10190600940E+01 0.  0.
     999903    2    3    3    0    0  0.12667540688E+00  0.25367303728E-01 -0.13851832148E-01  0.13146771845E+00  0.20043176778E-01 0.  0.
         14    1    1    2    0    0 -0.17780894833E-01  0.13218907013E-01 -0.10628510133E-01  0.24573663775E-01  0.00000000000E+00 0.  1.
     999901    1    3    3    0    0 -0.10889451204E+00 -0.38586210741E-01  0.24480342282E-01  0.88788861777E+00  0.88000000000E+00 0. -1.
        -11    1    4    4    0    0  0.32025723182E-02  0.24842980767E-02 -0.36487857488E-02  0.54774962189E-02  0.51100000000E-03 0. -1.
         11    1    4    4    0    0  0.12347283456E+00  0.22883005651E-01 -0.10203046400E-01  0.12599022223E+00  0.51100000000E-03 0.  1.
</event>
<event>
 8    1  0.1143506E+005  0.1043930E+01  0.7957747E-01            NaN
         13   -1    0    0    0    0  0.00000000000E+00  0.00000000000E+00  0.74505805969E-08  0.10566000000E+00  0.10566000000E+00 0. -1.
     999900   -1    0    0    0    0 -0.00000000000E+00 -0.00000000000E+00 -0.74505805969E-08  0.93827000000E+00  0.93827000000E+00 0.  1.
     999902    2    1    2    0    0  0.22687930965E-02  0.17941283124E-01 -0.13338669212E-01  0.10214587482E+01  0.10212115437E+01 0.  0.
     999903    2    3    3    0    0  0.37544761239E-01  0.53356543281E-02 -0.12671418997E+00  0.13339495288E+00  0.17310378667E-01 0.  0.
         14    1    1    2    0    0 -0.22687930965E-02 -0.17941283124E-01  0.13338669212E-01  0.22471251825E-01  0.00000000000E+00 0. -1.
     999901    1    3    3    0    0 -0.35275968143E-01  0.12605628796E-01  0.11337552076E+00  0.88806379530E+00  0.88000000000E+00 0. -1.
        -11    1    4    4    0    0  0.29350697398E-01 -0.20747127934E-02 -0.10472319743E+00  0.10877948828E+00  0.51100000000E-03 0. -1.
         11    1    4    4    0    0  0.81940638415E-02  0.74103671215E-02 -0.21990992546E-01  0.24615464596E-01  0.51100000000E-03 0.  1.
</event>
<event>
 8    1  0.1143506E+005  0.1043930E+01  0.7957747E-01            NaN
         13   -1    0    0    0    0  0.00000000000E+00  0.00000000000E+00  0.74505805969E-08  0.10566000000E+00  0.10566000000E+00 0. -1.
     999900   -1    0    0    0    0 -0.00000000000E+00 -0.00000000000E+00 -0.74505805969E-08  0.93827000000E+00  0.93827000000E+00 0. -1.
     999902    2    1    2    0    0 -0.11895590468E-01 -0.20545014018E-01 -0.30686046965E-02  0.10199921846E+01  0.10197112520E+01 0.  0.
     999903    2    3    3    0    0  0.70596034418E-01 -0.39788821650E-01 -0.10036066249E+00  0.13058736288E+00  0.20343214217E-01 0.  0.
         14    1    1    2    0    0  0.11895590468E-01  0.20545014018E-01  0.30686046965E-02  0.23937815447E-01  0.00000000000E+00 0. -1.
     999901    1    3    3    0    0 -0.82491624885E-01  0.19243807632E-01  0.97292057792E-01  0.88940482167E+00  0.88000000000E+00 0.  1.
        -11    1    4    4    0    0  0.54155369323E-01 -0.20293965764E-01 -0.73803672878E-01  0.93765091181E-01  0.51100000000E-03 0. -1.
         11    1    4    4    0    0  0.16440665094E-01 -0.19494855887E-01 -0.26556989611E-01  0.36822271698E-01  0.51100000000E-03 0.  1.
</event>
<event>
 8    1  0.1143506E+005  0.1043930E+01  0.7957747E-01            NaN
         13   -1    0    0    0    0  0.00000000000E+00  0.00000000000E+00  0.74505805969E-08  0.10566000000E+00  0.10566000000E+00 0.  1.
     999900   -1    0    0    0    0 -0.00000000000E+00 -0.00000000000E+00 -0.74505805969E-08  0.93827000000E+00  0.93827000000E+00 0.  1.
     999902    2    1    2    0    0  0.11991211091E-01  0.15619965926E-01 -0.12289460059E-01  0.10207178629E+01  0.10204538953E+01 0.  0.
     999903    2    3    3    0    0  0.60273751420E-01  0.75008936580E-01 -0.90766462949E-01  0.13391636681E+00  0.20875268282E-01 0.  0.
         14    1    1    2    0    0 -0.11991211091E-01 -0.15619965926E-01  0.12289460059E-01  0.23212137073E-01  0.00000000000E+00 0.  1.
     999901    1    3    3    0    0 -0.48282540329E-01 -0.59388970653E-01  0.78477002890E-01  0.88680149612E+00  0.88000000000E+00 0. -1.
        -11    1    4    4    0    0  0.24345517619E-01  0.46745354765E-01 -0.46700040891E-01  0.70420077822E-01  0.51100000000E-03 0. -1.
         11    1    4    4    0    0  0.35928233801E-01  0.28263581815E-01 -0.44066422058E-01  0.63496288986E-01  0.51100000000E-03 0.  1.
</event>
<event>
 8    1  0.1143506E+005  0.1043930E+01  0.7957747E-01            NaN
         13   -1    0    0    0    0  0.00000000000E+00  0.00000000000E+00  0.74505805969E-08  0.10566000000E+00  0.10566000000E+00 0. -1.
     999900   -1    0    0    0    0 -0.00000000000E+00 -0.00000000000E+00 -0.74505805969E-08  0.93827000000E+00  0.93827000000E+00 0.  1.
     999902    2    1    2    0    0  0.10054247478E-01  0.21740005876E-01  0.82718069322E-02  0.10185895474E+01  0.10182742890E+01 0.  0.
     999903    2    3    3    0    0  0.11339974320E+00  0.61565320422E-01 -0.13106471804E-01  0.13138980779E+00  0.21016934905E-01 0.  0.
         14    1    1    2    0    0 -0.10054247478E-01 -0.21740005876E-01 -0.82718069322E-02  0.25340452596E-01  0.00000000000E+00 0.  1.
     999901    1    3    3    0    0 -0.10334549572E+00 -0.39825314545E-01  0.21378278736E-01  0.88719973961E+00  0.88000000000E+00 0.  1.
        -11    1    4    4    0    0  0.25543170915E-01  0.67183904924E-02 -0.83625416446E-02  0.27708907863E-01  0.51100000000E-03 0. -1.
         11    1    4    4    0    0  0.87856572283E-01  0.54846929929E-01 -0.47439301597E-02  0.10368089993E+00  0.51100000000E-03 0.  1.
</event>
<event>
 8    1  0.1143506E+005  0.1043930E+01  0.7957747E-01            NaN
         13   -1    0    0    0    0  0.00000000000E+00  0.00000000000E+00  0.74505805969E-08  0.10566000000E+00  0.10566000000E+00 0.  1.
     999900   -1    0    0    0    0 -0.00000000000E+00 -0.00000000000E+00 -0.74505805969E-08  0.93827000000E+00  0.93827000000E+00 0. -1.
     999902    2    1    2    0    0 -0.23385491039E-02  0.22582360395E-01  0.31199693226E-02  0.10210134989E+01  0.10207562877E+01 0.  0.
     999903    2    3    3    0    0  0.73710493748E-01 -0.62693522658E-02  0.10650595995E+00  0.13123569447E+00  0.20167953114E-01 0.  0.
         14    1    1    2    0    0  0.23385491039E-02 -0.22582360395E-01 -0.31199693226E-02  0.22916501074E-01  0.00000000000E+00 0.  1.
     999901    1    3    3    0    0 -0.76049042852E-01  0.28851712661E-01 -0.10338599062E+00  0.88977780445E+00  0.88000000000E+00 0. -1.
        -11    1    4    4    0    0  0.15883477800E-01  0.69401045871E-02  0.25252496283E-01  0.30633308803E-01  0.51100000000E-03 0.  1.
         11    1    4    4    0    0  0.57827015948E-01 -0.13209456853E-01  0.81253463664E-01  0.10060238567E+00  0.51100000000E-03 0. -1.
</event>
<event>
 8    1  0.1143506E+005  0.1043930E+01  0.7957747E-01            NaN
         13   -1    0    0    0    0  0.00000000000E+00  0.00000000000E+00  0.74505805969E-08  0.10566000000E+00  0.10566000000E+00 0. -1.
     999900   -1    0    0    0    0 -0.00000000000E+00 -0.00000000000E+00 -0.74505805969E-08  0.93827000000E+00  0.93827000000E+00 0.  1.
     999902    2    1    2    0    0 -0.21223087404E-01  0.14597895284E-03  0.98037288789E-02  0.10205515088E+01  0.10202836999E+01 0.  0.
     999903    2    3    3    0    0 -0.57640755201E-01 -0.10649333833E+00 -0.47373932733E-01  0.13152537002E+00  0.19782459130E-01 0.  0.
         14    1    1    2    0    0  0.21223087404E-01 -0.14597895284E-03 -0.98037288789E-02  0.23378491156E-01  0.00000000000E+00 0.  1.
     999901    1    3    3    0    0  0.36417667797E-01  0.10663931728E+00  0.57177661612E-01  0.88902613882E+00  0.88000000000E+00 0.  1.
        -11    1    4    4    0    0 -0.27060183316E-01 -0.31612128546E-01 -0.12602775561E-01  0.43481849836E-01  0.51100000000E-03 0. -1.
         11    1    4    4    0    0 -0.30580571885E-01 -0.74881209781E-01 -0.34771157172E-01  0.88043520188E-01  0.51100000000E-03 0.  1.
</event>
<event>
 8    1  0.1143506E+005  0.1043930E+01  0.7957747E-01            NaN
         13   -1    0    0    0    0  0.00000000000E+00  0.00000000000E+00  0.74505805969E-08  0.10566000000E+00  0.10566000000E+00 0.  1.
     999900   -1    0    0    0    0 -0.00000000000E+00 -0.00000000000E+00 -0.74505805969E-08  0.93827000000E+00  0.93827000000E+00 0. -1.
     999902    2    1    2    0    0 -0.68866946633E-02 -0.19350752387E-02 -0.23167443239E-01  0.10196833197E+01  0.10193950024E+01 0.  0.
     999903    2    3    3    0    0  0.84837610350E-01 -0.26287503199E-01 -0.95107356181E-01  0.13166206998E+00  0.20025946083E-01 0.  0.
         14    1    1    2    0    0  0.68866946633E-02  0.19350752387E-02  0.23167443239E-01  0.24246680305E-01  0.00000000000E+00 0.  1.
     999901    1    3    3    0    0 -0.91724305013E-01  0.24352427960E-01  0.71939912942E-01  0.88802124972E+00  0.88000000000E+00 0.  1.
        -11    1    4    4    0    0  0.34867443690E-01 -0.96127544957E-02 -0.53263280972E-01  0.64384640245E-01  0.51100000000E-03 0. -1.
         11    1    4    4    0    0  0.49970166660E-01 -0.16674748703E-01 -0.41844075209E-01  0.67277429732E-01  0.51100000000E-03 0.  1.
</event>
<event>
 8    1  0.1143506E+005  0.1043930E+01  0.7957747E-01            NaN
         13   -1    0    0    0    0  0.00000000000E+00  0.00000000000E+00  0.74505805969E-08  0.10566000000E+00  0.10566000000E+00 0.  1.
     999900   -1    0    0    0    0 -0.00000000000E+00 -0.00000000000E+00 -0.74505805969E-08  0.93827000000E+00  0.93827000000E+00 0. -1.
     999902    2    1    2    0    0  0.10141130458E-01 -0.16053653045E-01  0.14576077177E-01  0.10199920734E+01  0.10197111383E+01 0.  0.
     999903    2    3    3    0    0  0.11124538310E+00  0.62900037380E-01  0.19659077889E-01  0.13067683571E+00  0.18921048672E-01 0.  0.
         14    1    1    2    0    0 -0.10141130458E-01  0.16053653045E-01 -0.14576077177E-01  0.23937926580E-01  0.00000000000E+00 0. -1.
     999901    1    3    3    0    0 -0.10110425264E+00 -0.78953690424E-01 -0.50830007114E-02  0.88931523771E+00  0.88000000000E+00 0. -1.
        -11    1    4    4    0    0  0.91623661603E-01  0.43434309127E-01  0.12876779972E-01  0.10221304789E+00  0.51100000000E-03 0.  1.
         11    1    4    4    0    0  0.19621721500E-01  0.19465728253E-01  0.67822979165E-02  0.28463787820E-01  0.51100000000E-03 0. -1.
</event>
<event>
 8    1  0.1143506E+005  0.1043930E+01  0.7957747E-01            NaN
         13   -1    0    0    0    0  0.00000000000E+00  0.00000000000E+00  0.74505805969E-08  0.10566000000E+00  0.10566000000E+00 0. -1.
     999900   -1    0    0    0    0 -0.00000000000E+00 -0.00000000000E+00 -0.74505805969E-08  0.93827000000E+00  0.93827000000E+00 0. -1.
     999902    2    1    2    0    0  0.11839738486E-01  0.10180834552E-01 -0.17793906376E-01  0.10202561346E+01  0.10199814352E+01 0.  0.
     999903    2    3    3    0    0 -0.12146475092E+00 -0.36992445740E-01  0.55987614737E-02  0.12866058604E+00  0.20001837720E-01 0.  0.
         14    1    1    2    0    0 -0.11839738486E-01 -0.10180834552E-01  0.17793906376E-01  0.23673865416E-01  0.00000000000E+00 0. -1.
     999901    1    3    3    0    0  0.13330448941E+00  0.47173280292E-01 -0.23392667850E-01  0.89159554854E+00  0.88000000000E+00 0.  1.
        -11    1    4    4    0    0 -0.87718504597E-01 -0.17459960569E-01  0.62681559934E-02  0.89660120301E-01  0.51100000000E-03 0.  1.
         11    1    4    4    0    0 -0.33746246326E-01 -0.19532485171E-01 -0.66939451970E-03  0.39000465742E-01  0.51100000000E-03 0. -1.
</event>
<event>
 8    1  0.1143506E+005  0.1043930E+01  0.7957747E-01            NaN
         13   -1    0    0    0    0  0.00000000000E+00  0.00000000000E+00  0.74505805969E-08  0.10566000000E+00  0.10566000000E+00 0.  1.
     999900   -1    0    0    0    0 -0.00000000000E+00 -0.00000000000E+00 -0.74505805969E-08  0.93827000000E+00  0.93827000000E+00 0.  1.
     999902    2    1    2    0    0  0.14815598227E-01  0.13207465652E-01  0.14696946302E-01  0.10192330502E+01  0.10189337914E+01 0.  0.
     999903    2    3    3    0    0  0.45968664377E-01  0.10014222258E+00  0.70716135212E-01  0.13262924068E+00  0.21169810021E-01 0.  0.
         14    1    1    2    0    0 -0.14815598227E-01 -0.13207465652E-01 -0.14696946302E-01  0.24696949819E-01  0.00000000000E+00 0.  1.
     999901    1    3    3    0    0 -0.31153066151E-01 -0.86934756928E-01 -0.56019188911E-01  0.88660380950E+00  0.88000000000E+00 0. -1.
        -11    1    4    4    0    0  0.28665433950E-01  0.77574519450E-01  0.60250769796E-01  0.10232267370E+00  0.51100000000E-03 0.  1.
         11    1    4    4    0    0  0.17303230427E-01  0.22567703131E-01  0.10465365417E-01  0.30306566980E-01  0.51100000000E-03 0. -1.
</event>
<event>
 8    1  0.1143506E+005  0.1043930E+01  0.7957747E-01            NaN
         13   -1    0    0    0    0  0.00000000000E+00  0.00000000000E+00  0.74505805969E-08  0.10566000000E+00  0.10566000000E+00 0.  1.
     999900   -1    0    0    0    0 -0.00000000000E+00 -0.00000000000E+00 -0.74505805969E-08  0.93827000000E+00  0.93827000000E+00 0. -1.
     999902    2    1    2    0    0 -0.19077510616E-01  0.91863017935E-02 -0.63654207248E-02  0.10218198636E+01  0.10215806260E+01 0.  0.
     999903    2    3    3    0    0 -0.12156813497E+00  0.54208796610E-01  0.60225827793E-02  0.13464185677E+00  0.19358538734E-01 0.  0.
         14    1    1    2    0    0  0.19077510616E-01 -0.91863017935E-02  0.63654207248E-02  0.22110136430E-01  0.00000000000E+00 0.  1.
     999901    1    3    3    0    0  0.10249062435E+00 -0.45022494816E-01 -0.12388003504E-01  0.88717800680E+00  0.88000000000E+00 0. -1.
        -11    1    4    4    0    0 -0.31942274039E-01  0.53417196446E-02  0.16280884833E-03  0.32390283532E-01  0.51100000000E-03 0.  1.
         11    1    4    4    0    0 -0.89625860928E-01  0.48867076965E-01  0.58597739310E-02  0.10225157324E+00  0.51100000000E-03 0. -1.
</event>
<event>
 8    1  0.1143506E+005  0.1043930E+01  0.7957747E-01            NaN
         13   -1    0    0    0    0  0.00000000000E+00  0.00000000000E+00  0.74505805969E-08  0.10566000000E+00  0.10566000000E+00 0.  1.
     999900   -1    0    0    0    0 -0.00000000000E+00 -0.00000000000E+00 -0.74505805969E-08  0.93827000000E+00  0.93827000000E+00 0. -1.
     999902    2    1    2    0    0 -0.10008894143E-01 -0.18314275489E-01 -0.10354751880E-01  0.10206316839E+01  0.10203657298E+01 0.  0.
     999903    2    3    3    0    0  0.64163202633E-01  0.59982251531E-01  0.92802756640E-01  0.12806610215E+00  0.85899830710E-02 0.  0.
         14    1    1    2    0    0  0.10008894143E-01  0.18314275489E-01  0.10354751880E-01  0.23298316144E-01  0.00000000000E+00 0.  1.
     999901    1    3    3    0    0 -0.74172096775E-01 -0.78296527020E-01 -0.10315750852E+00  0.89256558171E+00  0.88000000000E+00 0. -1.
        -11    1    4    4    0    0  0.63543629131E-01  0.59069596265E-01  0.89990086094E-01  0.12500194687E+00  0.51100000000E-03 0.  1.
         11    1    4    4    0    0  0.61957350162E-03  0.91265526630E-03  0.28126705452E-02  0.30641552759E-02  0.51100000000E-03 0. -1.
</event>
<event>
 8    1  0.1143506E+005  0.1043930E+01  0.7957747E-01            NaN
         13   -1    0    0    0    0  0.00000000000E+00  0.00000000000E+00  0.74505805969E-08  0.10566000000E+00  0.10566000000E+00 0. -1.
     999900   -1    0    0    0    0 -0.00000000000E+00 -0.00000000000E+00 -0.74505805969E-08  0.93827000000E+00  0.93827000000E+00 0. -1.
     999902    2    1    2    0    0 -0.10751189432E-01  0.40160703408E-02 -0.16705020079E-01  0.10236624251E+01  0.10234617658E+01 0.  0.
     999903    2    3    3    0    0  0.59667314941E-01  0.92183159208E-01  0.70581576173E-01  0.13217425852E+00  0.20744936916E-01 0.  0.
         14    1    1    2    0    0  0.10751189432E-01 -0.40160703408E-02  0.16705020079E-01  0.20267574867E-01  0.00000000000E+00 0. -1.
     999901    1    3    3    0    0 -0.70418504373E-01 -0.88167088867E-01 -0.87286596251E-01  0.89148816661E+00  0.88000000000E+00 0. -1.
        -11    1    4    4    0    0  0.47948768699E-01  0.60394105773E-01  0.55906761435E-01  0.95248934519E-01  0.51100000000E-03 0. -1.
         11    1    4    4    0    0  0.11718546242E-01  0.31789053435E-01  0.14674814738E-01  0.36925324005E-01  0.51100000000E-03 0.  1.
</event>
<event>
 8    1  0.1143506E+005  0.1043930E+01  0.7957747E-01            NaN
         13   -1    0    0    0    0  0.00000000000E+00  0.00000000000E+00  0.74505805969E-08  0.10566000000E+00  0.10566000000E+00 0. -1.
     999900   -1    0    0    0    0 -0.00000000000E+00 -0.00000000000E+00 -0.74505805969E-08  0.93827000000E+00  0.93827000000E+00 0. -1.
     999902    2    1    2    0    0 -0.23122448295E-01 -0.42101023235E-02  0.70200999927E-02  0.10194013559E+01  0.10191062114E+01 0.  0.
     999903    2    3    3    0    0 -0.18840748618E-02  0.26082382023E-01  0.12623763754E+00  0.13059230760E+00  0.20846325395E-01 0.  0.
         14    1    1    2    0    0  0.23122448295E-01  0.42101023235E-02 -0.70200999927E-02  0.24528644085E-01  0.00000000000E+00 0.  1.
     999901    1    3    3    0    0 -0.21238373433E-01 -0.30292484347E-01 -0.11921753754E+00  0.88880904832E+00  0.88000000000E+00 0. -1.
        -11    1    4    4    0    0  0.70306643057E-02  0.26286340566E-02  0.18518406881E-01  0.19988308382E-01  0.51100000000E-03 0. -1.
         11    1    4    4    0    0 -0.89147391674E-02  0.23453747967E-01  0.10771923066E+00  0.11060399921E+00  0.51100000000E-03 0.  1.
</event>
<event>
 8    1  0.1143506E+005  0.1043930E+01  0.7957747E-01            NaN
         13   -1    0    0    0    0  0.00000000000E+00  0.00000000000E+00  0.74505805969E-08  0.10566000000E+00  0.10566000000E+00 0. -1.
     999900   -1    0    0    0    0 -0.00000000000E+00 -0.00000000000E+00 -0.74505805969E-08  0.93827000000E+00  0.93827000000E+00 0. -1.
     999902    2    1    2    0    0 -0.10822682773E-01  0.45863599281E-02  0.81872423770E-02  0.10296053326E+01  0.10295056798E+01 0.  0.
     999903    2    3    3    0    0  0.41979823747E-01 -0.85499974306E-01 -0.96961454668E-01  0.13721533888E+00  0.18814205401E-01 0.  0.
         14    1    1    2    0    0  0.10822682773E-01 -0.45863599281E-02 -0.81872423770E-02  0.14324667450E-01  0.00000000000E+00 0. -1.
     999901    1    3    3    0    0 -0.52802506520E-01  0.90086334234E-01  0.10514869705E+00  0.89238999367E+00  0.88000000000E+00 0.  1.
        -11    1    4    4    0    0  0.39581599940E-01 -0.79014325345E-01 -0.81280221842E-01  0.12006957253E+00  0.51100000000E-03 0.  1.
         11    1    4    4    0    0  0.23982238069E-02 -0.64856489604E-02 -0.15681232826E-01  0.17145766353E-01  0.51100000000E-03 0. -1.
</event>
<event>
 8    1  0.1143506E+005  0.1043930E+01  0.7957747E-01            NaN
         13   -1    0    0    0    0  0.00000000000E+00  0.00000000000E+00  0.74505805969E-08  0.10566000000E+00  0.10566000000E+00 0. -1.
     999900   -1    0    0    0    0 -0.00000000000E+00 -0.00000000000E+00 -0.74505805969E-08  0.93827000000E+00  0.93827000000E+00 0.  1.
     999902    2    1    2    0    0  0.14063122192E-01  0.71323314859E-02  0.18898116623E-01  0.10193173941E+01  0.10190202007E+01 0.  0.
     999903    2    3    3    0    0 -0.10181757359E+00 -0.39788839387E-01  0.65971958586E-01  0.12923544362E+00  0.19988260001E-01 0.  0.
         14    1    1    2    0    0 -0.14063122192E-01 -0.71323314859E-02 -0.18898116623E-01  0.24612605919E-01  0.00000000000E+00 0.  1.
     999901    1    3    3    0    0  0.11588069578E+00  0.46921170873E-01 -0.47073841963E-01  0.89008195046E+00  0.88000000000E+00 0.  1.
        -11    1    4    4    0    0 -0.48789754368E-01 -0.91730745354E-02  0.25266644235E-01  0.55706820584E-01  0.51100000000E-03 0. -1.
         11    1    4    4    0    0 -0.53027819221E-01 -0.30615764852E-01  0.40705314351E-01  0.73528623041E-01  0.51100000000E-03 0.  1.
</event>
<event>
 8    1  0.1143506E+005  0.1043930E+01  0.7957747E-01            NaN
         13   -1    0    0    0    0  0.00000000000E+00  0.00000000000E+00  0.74505805969E-08  0.10566000000E+00  0.10566000000E+00 0.  1.
     999900   -1    0    0    0    0 -0.00000000000E+00 -0.00000000000E+00 -0.74505805969E-08  0.93827000000E+00  0.93827000000E+00 0. -1.
     999902    2    1    2    0    0  0.18023722245E-01 -0.81989190385E-03  0.15538699668E-01  0.10201187007E+01  0.10198407648E+01 0.  0.
     999903    2    3    3    0    0 -0.57312781407E-01  0.85929818001E-01 -0.73257928585E-01  0.12821851452E+00  0.20114045581E-01 0.  0.
         14    1    1    2    0    0 -0.18023722245E-01  0.81989190385E-03 -0.15538699668E-01  0.23811299286E-01  0.00000000000E+00 0.  1.
     999901    1    3    3    0    0  0.75336503652E-01 -0.86749709905E-01  0.88796628254E-01  0.89190018620E+00  0.88000000000E+00 0.  1.
        -11    1    4    4    0    0 -0.70087764007E-02  0.14498390659E-01 -0.20804703373E-01  0.26313933225E-01  0.51100000000E-03 0.  1.
         11    1    4    4    0    0 -0.50304005006E-01  0.71431427342E-01 -0.52453225212E-01  0.10190458129E+00  0.51100000000E-03 0. -1.
</event>
<event>
 8    1  0.1143506E+005  0.1043930E+01  0.7957747E-01            NaN
         13   -1    0    0    0    0  0.00000000000E+00  0.00000000000E+00  0.74505805969E-08  0.10566000000E+00  0.10566000000E+00 0.  1.
     999900   -1    0    0    0    0 -0.00000000000E+00 -0.00000000000E+00 -0.74505805969E-08  0.93827000000E+00  0.93827000000E+00 0.  1.
     999902    2    1    2    0    0 -0.20236590819E-01  0.69845777997E-02  0.66958547932E-02  0.10214992531E+01  0.10212529489E+01 0.  0.
     999903    2    3    3    0    0  0.52526612157E-01  0.10886455490E+00 -0.45892518430E-01  0.13108387226E+00  0.21594490488E-01 0.  0.
         14    1    1    2    0    0  0.20236590819E-01 -0.69845777997E-02 -0.66958547932E-02  0.22430746899E-01  0.00000000000E+00 0. -1.
     999901    1    3    3    0    0 -0.72763202977E-01 -0.10187997710E+00  0.52588373223E-01  0.89041538084E+00  0.88000000000E+00 0. -1.
        -11    1    4    4    0    0  0.27552585459E-01  0.47305712976E-01 -0.31311991301E-01  0.63068830383E-01  0.51100000000E-03 0.  1.
         11    1    4    4    0    0  0.24974026698E-01  0.61558841928E-01 -0.14580527128E-01  0.68015041876E-01  0.51100000000E-03 0. -1.
</event>
<event>
 8    1  0.1143506E+005  0.1043930E+01  0.7957747E-01            NaN
         13   -1    0    0    0    0  0.00000000000E+00  0.00000000000E+00  0.74505805969E-08  0.10566000000E+00  0.10566000000E+00 0.  1.
     999900   -1    0    0    0    0 -0.00000000000E+00 -0.00000000000E+00 -0.74505805969E-08  0.93827000000E+00  0.93827000000E+00 0.  1.
     999902    2    1    2    0    0  0.20760092021E-01 -0.11105347427E-01 -0.32708475127E-02  0.10201600903E+01  0.10198831312E+01 0.  0.
     999903    2    3    3    0    0 -0.11269117422E+00 -0.12561813475E-01 -0.57236541767E-01  0.12846302411E+00  0.19225684484E-01 0.  0.
         14    1    1    2    0    0 -0.20760092021E-01  0.11105347427E-01  0.32708475127E-02  0.23769909668E-01  0.00000000000E+00 0.  1.
     999901    1    3    3    0    0  0.13345126624E+00  0.14564660479E-02  0.53965694254E-01  0.89169706622E+00  0.88000000000E+00 0.  1.
        -11    1    4    4    0    0 -0.68731343562E-01 -0.11501781769E-01 -0.44481572337E-01  0.82675026279E-01  0.51100000000E-03 0.  1.
         11    1    4    4    0    0 -0.43959830662E-01 -0.10600317060E-02 -0.12754969430E-01  0.45787997829E-01  0.51100000000E-03 0. -1.
</event>
<event>
 8    1  0.1143506E+005  0.1043930E+01  0.7957747E-01            NaN
         13   -1    0    0    0    0  0.00000000000E+00  0.00000000000E+00  0.74505805969E-08  0.10566000000E+00  0.10566000000E+00 0. -1.
     999900   -1    0    0    0    0 -0.00000000000E+00 -0.00000000000E+00 -0.74505805969E-08  0.93827000000E+00  0.93827000000E+00 0.  1.
     999902    2    1    2    0    0  0.87030994297E-02 -0.14210391105E-01 -0.17879610092E-01  0.10194890587E+01  0.10191960465E+01 0.  0.
     999903    2    3    3    0    0 -0.56199710807E-01 -0.92069290988E-01  0.69523155571E-01  0.12936905189E+00  0.16362169405E-01 0.  0.
         14    1    1    2    0    0 -0.87030994297E-02  0.14210391105E-01  0.17879610092E-01  0.24440941309E-01  0.00000000000E+00 0. -1.
     999901    1    3    3    0    0  0.64902810237E-01  0.77858899883E-01 -0.87402765663E-01  0.89012000680E+00  0.88000000000E+00 0.  1.
        -11    1    4    4    0    0 -0.30720613549E-01 -0.63409936495E-01  0.40479402872E-01  0.81261425787E-01  0.51100000000E-03 0.  1.
         11    1    4    4    0    0 -0.25479097258E-01 -0.28659354493E-01  0.29043752700E-01  0.48107626099E-01  0.51100000000E-03 0. -1.
</event>
<event>
 8    1  0.1143506E+005  0.1043930E+01  0.7957747E-01            NaN
         13   -1    0    0    0    0  0.00000000000E+00  0.00000000000E+00  0.74505805969E-08  0.10566000000E+00  0.10566000000E+00 0. -1.
     999900   -1    0    0    0    0 -0.00000000000E+00 -0.00000000000E+00 -0.74505805969E-08  0.93827000000E+00  0.93827000000E+00 0.  1.
     999902    2    1    2    0    0  0.15917931072E-01 -0.14459199458E-01  0.11655141127E-01  0.10194700063E+01  0.10191765315E+01 0.  0.
     999903    2    3    3    0    0  0.54843695914E-01  0.46662845074E-02  0.11885338122E+00  0.13190453714E+00  0.15590878689E-01 0.  0.
         14    1    1    2    0    0 -0.15917931072E-01  0.14459199458E-01 -0.11655141127E-01  0.24459993730E-01  0.00000000000E+00 0.  1.
     999901    1    3    3    0    0 -0.38925764842E-01 -0.19125483966E-01 -0.10719824010E+00  0.88756546913E+00  0.88000000000E+00 0.  1.
        -11    1    4    4    0    0  0.32975905392E-01 -0.40057809292E-02  0.77596208711E-01  0.84409059612E-01  0.51100000000E-03 0. -1.
         11    1    4    4    0    0  0.21867790522E-01  0.86720654366E-02  0.41257172512E-01  0.47495477531E-01  0.51100000000E-03 0.  1.
</event>
<event>
 8    1  0.1143506E+005  0.1043930E+01  0.7957747E-01            NaN
         13   -1    0    0    0    0  0.00000000000E+00  0.00000000000E+00  0.74505805969E-08  0.10566000000E+00  0.10566000000E+00 0.  1.
     999900   -1    0    0    0    0 -0.00000000000E+00 -0.00000000000E+00 -0.74505805969E-08  0.93827000000E+00  0.93827000000E+00 0. -1.
     999902    2    1    2    0    0 -0.14159258495E-01 -0.19743365666E-01  0.44229740897E-02  0.10192349035E+01  0.10189356902E+01 0.  0.
     999903    2    3    3    0    0 -0.20817512944E-01 -0.12878256158E+00 -0.32895252290E-02  0.13244667559E+00  0.22649147560E-01 0.  0.
         14    1    1    2    0    0  0.14159258495E-01  0.19743365666E-01 -0.44229740897E-02  0.24695096452E-01  0.00000000000E+00 0. -1.
     999901    1    3    3    0    0  0.66582544490E-02  0.10903919592E+00  0.77124993187E-02  0.88678822796E+00  0.88000000000E+00 0. -1.
        -11    1    4    4    0    0 -0.14946802286E-01 -0.34051977468E-01 -0.49434626414E-02  0.37518568895E-01  0.51100000000E-03 0. -1.
         11    1    4    4    0    0 -0.58707106574E-02 -0.94730584117E-01  0.16539374124E-02  0.94928106695E-01  0.51100000000E-03 0.  1.
</event>
<event>
 8    1  0.1143506E+005  0.1043930E+01  0.7957747E-01            NaN
         13   -1    0    0    0    0  0.00000000000E+00  0.00000000000E+00  0.74505805969E-08  0.10566000000E+00  0.10566000000E+00 0.  1.
     999900   -1    0    0    0    0 -0.00000000000E+00 -0.00000000000E+00 -0.74505805969E-08  0.93827000000E+00  0.93827000000E+00 0. -1.
     999902    2    1    2    0    0  0.20937425516E-01  0.35363971747E-02 -0.10391754121E-01  0.10202895591E+01  0.10200156440E+01 0.  0.
     999903    2    3    3    0    0 -0.22729213887E-01  0.50729396728E-01 -0.11739428212E+00  0.13147940187E+00  0.20379567805E-01 0.  0.
         14    1    1    2    0    0 -0.20937425516E-01 -0.35363971747E-02  0.10391754121E-01  0.23640440900E-01  0.00000000000E+00 0.  1.
     999901    1    3    3    0    0  0.43666639403E-01 -0.47192999553E-01  0.10700252800E+00  0.88881015723E+00  0.88000000000E+00 0.  1.
        -11    1    4    4    0    0 -0.13040101040E-01  0.79259692345E-02 -0.32680597508E-01  0.36071426336E-01  0.51100000000E-03 0.  1.
         11    1    4    4    0    0 -0.96891128471E-02  0.42803427493E-01 -0.84713684614E-01  0.95407975530E-01  0.51100000000E-03 0. -1.
</event>
<event>
 8    1  0.1143506E+005  0.1043930E+01  0.7957747E-01            NaN
         13   -1    0    0    0    0  0.00000000000E+00  0.00000000000E+00  0.74505805969E-08  0.10566000000E+00  0.10566000000E+00 0.  1.
     999900   -1    0    0    0    0 -0.00000000000E+00 -0.00000000000E+00 -0.74505805969E-08  0.93827000000E+00  0.93827000000E+00 0.  1.
     999902    2    1    2    0    0  0.20170987173E-01 -0.18285200148E-03 -0.12286039722E-01  0.10203111742E+01  0.10200377656E+01 0.  0.
     999903    2    3    3    0    0  0.10852623905E+00  0.68975837935E-01  0.23509740132E-01  0.13246495288E+00  0.21416000528E-01 0.  0.
         14    1    1    2    0    0 -0.20170987173E-01  0.18285200148E-03  0.12286039722E-01  0.23618825763E-01  0.00000000000E+00 0.  1.
     999901    1    3    3    0    0 -0.88355251877E-01 -0.69158689936E-01 -0.35795779854E-01  0.88784622136E+00  0.88000000000E+00 0. -1.
        -11    1    4    4    0    0  0.67485294212E-01  0.45105641658E-01  0.44284211822E-02  0.81293639846E-01  0.51100000000E-03 0.  1.
         11    1    4    4    0    0  0.41040944838E-01  0.23870196277E-01  0.19081318950E-01  0.51171313031E-01  0.51100000000E-03 0. -1.
</event>
<event>
 8    1  0.1143506E+005  0.1043930E+01  0.7957747E-01            NaN
         13   -1    0    0    0    0  0.00000000000E+00  0.00000000000E+00  0.74505805969E-08  0.10566000000E+00  0.10566000000E+00 0. -1.
     999900   -1    0    0    0    0 -0.00000000000E+00 -0.00000000000E+00 -0.74505805969E-08  0.93827000000E+00  0.93827000000E+00 0. -1.
     999902    2    1    2    0    0 -0.21533138577E-01  0.47182296642E-02 -0.92950237355E-02  0.10200064715E+01  0.10197258782E+01 0.  0.
     999903    2    3    3    0    0  0.11909502928E+00  0.34184846982E-01 -0.24136807181E-01  0.12823024306E+00  0.22542848327E-01 0.  0.
         14    1    1    2    0    0  0.21533138577E-01 -0.47182296642E-02  0.92950237355E-02  0.23923528468E-01  0.00000000000E+00 0. -1.
     999901    1    3    3    0    0 -0.14062816786E+00 -0.29466617318E-01  0.14841783445E-01  0.89177622847E+00  0.88000000000E+00 0. -1.
        -11    1    4    4    0    0  0.29632357310E-01 -0.26009248611E-04 -0.80669317052E-03  0.29647751198E-01  0.51100000000E-03 0. -1.
         11    1    4    4    0    0  0.89462671975E-01  0.34210856231E-01 -0.23330114010E-01  0.98582491862E-01  0.51100000000E-03 0.  1.
</event>
<event>
 8    1  0.1143506E+005  0.1043930E+01  0.7957747E-01            NaN
         13   -1    0    0    0    0  0.00000000000E+00  0.00000000000E+00  0.74505805969E-08  0.10566000000E+00  0.10566000000E+00 0. -1.
     999900   -1    0    0    0    0 -0.00000000000E+00 -0.00000000000E+00 -0.74505805969E-08  0.93827000000E+00  0.93827000000E+00 0. -1.
     999902    2    1    2    0    0 -0.56260399649E-02  0.17572313997E-01 -0.15617989443E-01  0.10197564579E+01  0.10194698981E+01 0.  0.
     999903    2    3    3    0    0  0.11404900400E+00  0.27404837435E-01 -0.52997147519E-01  0.13081551713E+00  0.23362393894E-01 0.  0.
         14    1    1    2    0    0  0.56260399649E-02 -0.17572313997E-01  0.15617989443E-01  0.24173542131E-01  0.00000000000E+00 0. -1.
     999901    1    3    3    0    0 -0.11967504396E+00 -0.98325234376E-02  0.37379158075E-01  0.88894094074E+00  0.88000000000E+00 0.  1.
        -11    1    4    4    0    0  0.50333790889E-01  0.22735723056E-01 -0.30417714691E-01  0.63054754746E-01  0.51100000000E-03 0. -1.
         11    1    4    4    0    0  0.63715213111E-01  0.46691143790E-02 -0.22579432828E-01  0.67760762383E-01  0.51100000000E-03 0.  1.
</event>
<event>
 8    1  0.1143506E+005  0.1043930E+01  0.7957747E-01            NaN
         13   -1    0    0    0    0  0.00000000000E+00  0.00000000000E+00  0.74505805969E-08  0.10566000000E+00  0.10566000000E+00 0.  1.
     999900   -1    0    0    0    0 -0.00000000000E+00 -0.00000000000E+00 -0.74505805969E-08  0.93827000000E+00  0.93827000000E+00 0.  1.
     999902    2    1    2    0    0 -0.14045754280E-01 -0.17059810906E-01  0.62684417577E-02  0.10209601562E+01  0.10207017326E+01 0.  0.
     999903    2    3    3    0    0 -0.78613595851E-01 -0.68919692344E-01  0.81716117472E-01  0.13385767891E+00  0.17616268145E-01 0.  0.
         14    1    1    2    0    0  0.14045754280E-01  0.17059810906E-01 -0.62684417577E-02  0.22969843785E-01  0.00000000000E+00 0.  1.
     999901    1    3    3    0    0  0.64567841571E-01  0.51859881438E-01 -0.75447675714E-01  0.88710247730E+00  0.88000000000E+00 0.  1.
        -11    1    4    4    0    0 -0.68415695539E-01 -0.60845288272E-01  0.63320444496E-01  0.11132203876E+00  0.51100000000E-03 0.  1.
         11    1    4    4    0    0 -0.10197900312E-01 -0.80744040720E-02  0.18395672975E-01  0.22535640153E-01  0.51100000000E-03 0. -1.
</event>
<event>
 8    1  0.1143506E+005  0.1043930E+01  0.7957747E-01            NaN
         13   -1    0    0    0    0  0.00000000000E+00  0.00000000000E+00  0.74505805969E-08  0.10566000000E+00  0.10566000000E+00 0.  1.
     999900   -1    0    0    0    0 -0.00000000000E+00 -0.00000000000E+00 -0.74505805969E-08  0.93827000000E+00  0.93827000000E+00 0. -1.
     999902    2    1    2    0    0  0.10891241708E-01  0.20459776151E-01 -0.45295947126E-02  0.10203135055E+01  0.10200401515E+01 0.  0.
     999903    2    3    3    0    0 -0.11906405530E+00  0.84600494887E-02 -0.45458542589E-01  0.12974764522E+00  0.22806811339E-01 0.  0.
         14    1    1    2    0    0 -0.10891241708E-01 -0.20459776151E-01  0.45295947126E-02  0.23616494540E-01  0.00000000000E+00 0.  1.
     999901    1    3    3    0    0  0.12995529701E+00  0.11999726662E-01  0.40928947877E-01  0.89056586025E+00  0.88000000000E+00 0.  1.
        -11    1    4    4    0    0 -0.57101036100E-01  0.96577740378E-02 -0.11387477513E-01  0.59023187716E-01  0.51100000000E-03 0. -1.
         11    1    4    4    0    0 -0.61963019197E-01 -0.11977245491E-02 -0.34071065077E-01  0.70724457499E-01  0.51100000000E-03 0.  1.
</event>
<event>
 8    1  0.1143506E+005  0.1043930E+01  0.7957747E-01            NaN
         13   -1    0    0    0    0  0.00000000000E+00  0.00000000000E+00  0.74505805969E-08  0.10566000000E+00  0.10566000000E+00 0.  1.
     999900   -1    0    0    0    0 -0.00000000000E+00 -0.00000000000E+00 -0.74505805969E-08  0.93827000000E+00  0.93827000000E+00 0.  1.
     999902    2    1    2    0    0 -0.19061477094E-02  0.15620937112E-01  0.18045154594E-01  0.10199868448E+01  0.10197057855E+01 0.  0.
     999903    2    3    3    0    0  0.48508259249E-01 -0.92289668289E-01  0.75243279904E-01  0.13012284582E+00  0.19999243621E-01 0.  0.
         14    1    1    2    0    0  0.19061477094E-02 -0.15620937112E-01 -0.18045154594E-01  0.23943155174E-01  0.00000000000E+00 0.  1.
     999901    1    3    3    0    0 -0.50414406958E-01  0.10791060540E+00 -0.57198125310E-01  0.88986399901E+00  0.88000000000E+00 0. -1.
        -11    1    4    4    0    0  0.44632486529E-01 -0.70542522072E-01  0.53672060621E-01  0.99243425406E-01  0.51100000000E-03 0.  1.
         11    1    4    4    0    0  0.38757727196E-02 -0.21747146217E-01  0.21571219283E-01  0.30879420414E-01  0.51100000000E-03 0. -1.
</event>
<event>
 8    1  0.1143506E+005  0.1043930E+01  0.7957747E-01            NaN
         13   -1    0    0    0    0  0.00000000000E+00  0.00000000000E+00  0.74505805969E-08  0.10566000000E+00  0.10566000000E+00 0. -1.
     999900   -1    0    0    0    0 -0.00000000000E+00 -0.00000000000E+00 -0.74505805969E-08  0.93827000000E+00  0.93827000000E+00 0.  1.
     999902    2    1    2    0    0  0.52114242096E-02 -0.69974513725E-02  0.23000521143E-01  0.10193302593E+01  0.10190333804E+01 0.  0.
     999903    2    3    3    0    0 -0.62122981871E-01 -0.91612297003E-01  0.69801661250E-01  0.13147670099E+00  0.12719007499E-01 0.  0.
         14    1    1    2    0    0 -0.52114242096E-02  0.69974513725E-02 -0.23000521143E-01  0.24599740667E-01  0.00000000000E+00 0.  1.
     999901    1    3    3    0    0  0.67334406081E-01  0.84614845631E-01 -0.46801140107E-01  0.88785355834E+00  0.88000000000E+00 0.  1.
        -11    1    4    4    0    0 -0.22396801814E-01 -0.41021618648E-01  0.34558956876E-01  0.58128930400E-01  0.51100000000E-03 0. -1.
         11    1    4    4    0    0 -0.39726180057E-01 -0.50590678355E-01  0.35242704374E-01  0.73347770593E-01  0.51100000000E-03 0.  1.
</event>
<event>
 8    1  0.1143506E+005  0.1043930E+01  0.7957747E-01            NaN
         13   -1    0    0    0    0  0.00000000000E+00  0.00000000000E+00  0.74505805969E-08  0.10566000000E+00  0.10566000000E+00 0.  1.
     999900   -1    0    0    0    0 -0.00000000000E+00 -0.00000000000E+00 -0.74505805969E-08  0.93827000000E+00  0.93827000000E+00 0.  1.
     999902    2    1    2    0    0 -0.82808610898E-02 -0.18199208691E-01  0.11873505398E-01  0.10206756673E+01  0.10204107280E+01 0.  0.
     999903    2    3    3    0    0  0.45871151988E-01  0.10938395407E+00  0.46663154339E-01  0.12914876162E+00  0.20807226192E-01 0.  0.
         14    1    1    2    0    0  0.82808610898E-02  0.18199208691E-01 -0.11873505398E-01  0.23254332668E-01  0.00000000000E+00 0. -1.
     999901    1    3    3    0    0 -0.54152013078E-01 -0.12758316276E+00 -0.34789648941E-01  0.89152690572E+00  0.88000000000E+00 0.  1.
        -11    1    4    4    0    0  0.22575498678E-01  0.40670870160E-01  0.27751938883E-01  0.54168293797E-01  0.51100000000E-03 0.  1.
         11    1    4    4    0    0  0.23295653310E-01  0.68713083910E-01  0.18911215456E-01  0.74980467820E-01  0.51100000000E-03 0. -1.
</event>
<event>
 8    1  0.1143506E+005  0.1043930E+01  0.7957747E-01            NaN
         13   -1    0    0    0    0  0.00000000000E+00  0.00000000000E+00  0.74505805969E-08  0.10566000000E+00  0.10566000000E+00 0.  1.
     999900   -1    0    0    0    0 -0.00000000000E+00 -0.00000000000E+00 -0.74505805969E-08  0.93827000000E+00  0.93827000000E+00 0.  1.
     999902    2    1    2    0    0  0.42014659637E-02 -0.22309473574E-01  0.58934334823E-02  0.10204758429E+01  0.10202062774E+01 0.  0.
     999903    2    3    3    0    0  0.78996955802E-01 -0.91643058675E-01 -0.48761217996E-01  0.13290125884E+00  0.25418870788E-01 0.  0.
         14    1    1    2    0    0 -0.42014659637E-02  0.22309473574E-01 -0.58934334823E-02  0.23454157107E-01  0.00000000000E+00 0. -1.
     999901    1    3    3    0    0 -0.74795489839E-01  0.69333585101E-01  0.54654651478E-01  0.88757458405E+00  0.88000000000E+00 0.  1.
        -11    1    4    4    0    0  0.19884931347E-01 -0.85834940735E-02 -0.94711723137E-02  0.23644261274E-01  0.51100000000E-03 0. -1.
         11    1    4    4    0    0  0.59112024455E-01 -0.83059564602E-01 -0.39290045682E-01  0.10925699757E+00  0.51100000000E-03 0.  1.
</event>
<event>
 8    1  0.1143506E+005  0.1043930E+01  0.7957747E-01            NaN
         13   -1    0    0    0    0  0.00000000000E+00  0.00000000000E+00  0.74505805969E-08  0.10566000000E+00  0.10566000000E+00 0. -1.
     999900   -1    0    0    0    0 -0.00000000000E+00 -0.00000000000E+00 -0.74505805969E-08  0.93827000000E+00  0.93827000000E+00 0. -1.
     999902    2    1    2    0    0  0.86223787534E-02  0.21245552110E-01 -0.64964083323E-02  0.10200988812E+01  0.10198204770E+01 0.  0.
     999903    2    3    3    0    0  0.91391971140E-01  0.94199942193E-01 -0.54303655376E-02  0.13320864852E+00  0.22111844630E-01 0.  0.
         14    1    1    2    0    0 -0.86223787534E-02 -0.21245552110E-01  0.64964083323E-02  0.23831118753E-01  0.00000000000E+00 0. -1.
     999901    1    3    3    0    0 -0.82769592387E-01 -0.72954390084E-01 -0.10660427947E-02  0.88689023273E+00  0.88000000000E+00 0. -1.
        -11    1    4    4    0    0  0.43422270938E-01  0.37443534777E-01  0.73329292286E-02  0.57806097274E-01  0.51100000000E-03 0. -1.
         11    1    4    4    0    0  0.47969700202E-01  0.56756407417E-01 -0.12763294766E-01  0.75402551248E-01  0.51100000000E-03 0.  1.
</event>
<event>
 8    1  0.1143506E+005  0.1043930E+01  0.7957747E-01            NaN
         13   -1    0    0    0    0  0.00000000000E+00  0.00000000000E+00  0.74505805969E-08  0.10566000000E+00  0.10566000000E+00 0. -1.
     999900   -1    0    0    0    0 -0.00000000000E+00 -0.00000000000E+00 -0.74505805969E-08  0.93827000000E+00  0.93827000000E+00 0. -1.
     999902    2    1    2    0    0 -0.16234674788E-01  0.13169490166E-01 -0.10076728762E-01  0.10207235225E+01  0.10204596850E+01 0.  0.
     999903    2    3    3    0    0 -0.12887700015E+00 -0.57477629596E-02 -0.25824294476E-01  0.13320217526E+00  0.20823240921E-01 0.  0.
         14    1    1    2    0    0  0.16234674788E-01 -0.13169490166E-01  0.10076728762E-01  0.23206477527E-01  0.00000000000E+00 0.  1.
     999901    1    3    3    0    0  0.11264232536E+00  0.18917253125E-01  0.15747565714E-01  0.88752134721E+00  0.88000000000E+00 0.  1.
        -11    1    4    4    0    0 -0.10217409657E+00 -0.26504361698E-02 -0.11831818949E-01  0.10289229263E+00  0.51100000000E-03 0.  1.
         11    1    4    4    0    0 -0.26702903583E-01 -0.30973267898E-02 -0.13992475527E-01  0.30309882636E-01  0.51100000000E-03 0. -1.
</event>
<event>
 8    1  0.1143506E+005  0.1043930E+01  0.7957747E-01            NaN
         13   -1    0    0    0    0  0.00000000000E+00  0.00000000000E+00  0.74505805969E-08  0.10566000000E+00  0.10566000000E+00 0.  1.
     999900   -1    0    0    0    0 -0.00000000000E+00 -0.00000000000E+00 -0.74505805969E-08  0.93827000000E+00  0.93827000000E+00 0. -1.
     999902    2    1    2    0    0  0.70527604540E-02 -0.58197739548E-02 -0.22216839011E-01  0.10199050310E+01  0.10196220247E+01 0.  0.
     999903    2    3    3    0    0 -0.10537377913E+00  0.57219242335E-01  0.41813744030E-01  0.12821362703E+00  0.17682475677E-01 0.  0.
         14    1    1    2    0    0 -0.70527604540E-02  0.58197739548E-02  0.22216839011E-01  0.24024968982E-01  0.00000000000E+00 0.  1.
     999901    1    3    3    0    0  0.11242653958E+00 -0.63039016290E-01 -0.64030583041E-01  0.89169140399E+00  0.88000000000E+00 0.  1.
        -11    1    4    4    0    0 -0.51833670185E-01  0.26969322091E-01  0.29653411655E-01  0.65526022637E-01  0.51100000000E-03 0.  1.
         11    1    4    4    0    0 -0.53540108943E-01  0.30249920244E-01  0.12160332375E-01  0.62687604395E-01  0.51100000000E-03 0. -1.
</event>
<event>
 8    1  0.1143506E+005  0.1043930E+01  0.7957747E-01            NaN
         13   -1    0    0    0    0  0.00000000000E+00  0.00000000000E+00  0.74505805969E-08  0.10566000000E+00  0.10566000000E+00 0.  1.
     999900   -1    0    0    0    0 -0.00000000000E+00 -0.00000000000E+00 -0.74505805969E-08  0.93827000000E+00  0.93827000000E+00 0. -1.
     999902    2    1    2    0    0  0.17270749010E-01 -0.12909612941E-01  0.13676212912E-01  0.10183961856E+01  0.10180760361E+01 0.  0.
     999903    2    3    3    0    0  0.91547952661E-01 -0.30353828659E-01  0.87790093899E-01  0.13199093348E+00  0.20300822256E-01 0.  0.
         14    1    1    2    0    0 -0.17270749010E-01  0.12909612941E-01 -0.13676212912E-01  0.25533814389E-01  0.00000000000E+00 0. -1.
     999901    1    3    3    0    0 -0.74277203651E-01  0.17444215718E-01 -0.74113880987E-01  0.88640525213E+00  0.88000000000E+00 0.  1.
        -11    1    4    4    0    0  0.38568508630E-01 -0.19785578342E-01  0.29050398660E-01  0.52184152303E-01  0.51100000000E-03 0.  1.
         11    1    4    4    0    0  0.52979444031E-01 -0.10568250318E-01  0.58739695239E-01  0.79806781180E-01  0.51100000000E-03 0. -1.
</event>
<event>
 8    1  0.1143506E+005  0.1043930E+01  0.7957747E-01            NaN
         13   -1    0    0    0    0  0.00000000000E+00  0.00000000000E+00  0.74505805969E-08  0.10566000000E+00  0.10566000000E+00 0.  1.
     999900   -1    0    0    0    0 -0.00000000000E+00 -0.00000000000E+00 -0.74505805969E-08  0.93827000000E+00  0.93827000000E+00 0. -1.
     999902    2    1    2    0    0  0.11545739176E-01 -0.22918251049E-01 -0.61473888409E-02  0.10175417315E+01  0.10171995058E+01 0.  0.
     999903    2    3    3    0    0  0.10509069659E+00  0.67974161397E-02  0.71142732285E-01  0.12871810291E+00  0.20415736195E-01 0.  0.
         14    1    1    2    0    0 -0.11545739176E-01  0.22918251049E-01  0.61473888409E-02  0.26388268489E-01  0.00000000000E+00 0.  1.
     999901    1    3    3    0    0 -0.93544957413E-01 -0.29715667189E-01 -0.77290121126E-01  0.88882362860E+00  0.88000000000E+00 0. -1.
        -11    1    4    4    0    0  0.42110772840E-01 -0.54700168677E-02  0.21556326111E-01  0.47625356588E-01  0.51100000000E-03 0.  1.
         11    1    4    4    0    0  0.62979923749E-01  0.12267433007E-01  0.49586406174E-01  0.81092746324E-01  0.51100000000E-03 0. -1.
</event>
<event>
 8    1  0.1143506E+005  0.1043930E+01  0.7957747E-01            NaN
         13   -1    0    0    0    0  0.00000000000E+00  0.00000000000E+00  0.74505805969E-08  0.10566000000E+00  0.10566000000E+00 0.  1.
     999900   -1    0    0    0    0 -0.00000000000E+00 -0.00000000000E+00 -0.74505805969E-08  0.93827000000E+00  0.93827000000E+00 0.  1.
     999902    2    1    2    0    0  0.14536841164E-01  0.59129933329E-02  0.17640048743E-01  0.10203195243E+01  0.10200463113E+01 0.  0.
     999903    2    3    3    0    0 -0.10818455447E+00  0.65141313750E-01 -0.18523224879E-01  0.12909771287E+00  0.19386103946E-01 0.  0.
         14    1    1    2    0    0 -0.14536841164E-01 -0.59129933329E-02 -0.17640048743E-01  0.23610475659E-01  0.00000000000E+00 0. -1.
     999901    1    3    3    0    0  0.12272139563E+00 -0.59228320417E-01  0.36163273621E-01  0.89122181147E+00  0.88000000000E+00 0. -1.
        -11    1    4    4    0    0 -0.32016342965E-01  0.28781372396E-01 -0.10484701467E-01  0.44312568191E-01  0.51100000000E-03 0.  1.
         11    1    4    4    0    0 -0.76168211500E-01  0.36359941354E-01 -0.80385234119E-02  0.84785144678E-01  0.51100000000E-03 0. -1.
</event>
<event>
 8    1  0.1143506E+005  0.1043930E+01  0.7957747E-01            NaN
         13   -1    0    0    0    0  0.00000000000E+00  0.00000000000E+00  0.74505805969E-08  0.10566000000E+00  0.10566000000E+00 0. -1.
     999900   -1    0    0    0    0 -0.00000000000E+00 -0.00000000000E+00 -0.74505805969E-08  0.93827000000E+00  0.93827000000E+00 0.  1.
     999902    2    1    2    0    0 -0.97415559802E-02  0.14156509118E-01 -0.16322350971E-01  0.10202292868E+01  0.10199539568E+01 0.  0.
     999903    2    3    3    0    0  0.87989376160E-01 -0.15310471965E-01  0.89514145960E-01  0.12802919596E+00  0.20053723416E-01 0.  0.
         14    1    1    2    0    0  0.97415559802E-02 -0.14156509118E-01  0.16322350971E-01  0.23700713165E-01  0.00000000000E+00 0. -1.
     999901    1    3    3    0    0 -0.97730932140E-01  0.29466981083E-01 -0.10583649693E+00  0.89220009087E+00  0.88000000000E+00 0.  1.
        -11    1    4    4    0    0  0.68494444481E-01 -0.13729491295E-01  0.80201457481E-01  0.10636034392E+00  0.51100000000E-03 0. -1.
         11    1    4    4    0    0  0.19494931678E-01 -0.15809806698E-02  0.93126884788E-02  0.21668852040E-01  0.51100000000E-03 0.  1.
</event>
<event>
 8    1  0.1143506E+005  0.1043930E+01  0.7957747E-01            NaN
         13   -1    0    0    0    0  0.00000000000E+00  0.00000000000E+00  0.74505805969E-08  0.10566000000E+00  0.10566000000E+00 0. -1.
     999900   -1    0    0    0    0 -0.00000000000E+00 -0.00000000000E+00 -0.74505805969E-08  0.93827000000E+00  0.93827000000E+00 0.  1.
     999902    2    1    2    0    0 -0.19584182793E-01  0.87395785183E-02  0.10490095285E-01  0.10200561116E+01  0.10197766953E+01 0.  0.
     999903    2    3    3    0    0  0.75363149080E-01 -0.10159315043E+00 -0.25310730128E-02  0.12800350231E+00  0.19434963838E-01 0.  0.
         14    1    1    2    0    0  0.19584182793E-01 -0.87395785183E-02 -0.10490095285E-01  0.23873888402E-01  0.00000000000E+00 0. -1.
     999901    1    3    3    0    0 -0.94947331873E-01  0.11033272895E+00  0.13021168298E-01  0.89205260928E+00  0.88000000000E+00 0. -1.
        -11    1    4    4    0    0  0.68547841571E-01 -0.91296724279E-01  0.35663189310E-02  0.11422293202E+00  0.51100000000E-03 0. -1.
         11    1    4    4    0    0  0.68153075089E-02 -0.10296426156E-01 -0.60973919438E-02  0.13780570291E-01  0.51100000000E-03 0.  1.
</event>
<event>
 8    1  0.1143506E+005  0.1043930E+01  0.7957747E-01            NaN
         13   -1    0    0    0    0  0.00000000000E+00  0.00000000000E+00  0.74505805969E-08  0.10566000000E+00  0.10566000000E+00 0. -1.
     999900   -1    0    0    0    0 -0.00000000000E+00 -0.00000000000E+00 -0.74505805969E-08  0.93827000000E+00  0.93827000000E+00 0. -1.
     999902    2    1    2    0    0  0.11075095576E-01  0.14303355385E-01  0.17232926983E-01  0.10189456551E+01  0.10186393035E+01 0.  0.
     999903    2    3    3    0    0  0.89389233409E-01  0.93814927638E-01 -0.14796752031E-01  0.13131899111E+00  0.15298949556E-01 0.  0.
         14    1    1    2    0    0 -0.11075095576E-01 -0.14303355385E-01 -0.17232926983E-01  0.24984344892E-01  0.00000000000E+00 0.  1.
     999901    1    3    3    0    0 -0.78314137833E-01 -0.79511572253E-01  0.32029679015E-01  0.88762666400E+00  0.88000000000E+00 0. -1.
        -11    1    4    4    0    0  0.16364281622E-01  0.11022413614E-01  0.11787221197E-02  0.19772046473E-01  0.51100000000E-03 0.  1.
         11    1    4    4    0    0  0.73024951787E-01  0.82792514024E-01 -0.15975474151E-01  0.11154694463E+00  0.51100000000E-03 0. -1.
</event>
<event>
 8    1  0.1143506E+005  0.1043930E+01  0.7957747E-01            NaN
         13   -1    0    0    0    0  0.00000000000E+00  0.00000000000E+00  0.74505805969E-08  0.10566000000E+00  0.10566000000E+00 0.  1.
     999900   -1    0    0    0    0 -0.00000000000E+00 -0.00000000000E+00 -0.74505805969E-08  0.93827000000E+00  0.93827000000E+00 0. -1.
     999902    2    1    2    0    0  0.25248810005E-02  0.27340561964E-02  0.23455565091E-01  0.10201810291E+01  0.10199045634E+01 0.  0.
     999903    2    3    3    0    0 -0.55439201337E-02 -0.86200607538E-01  0.98488222425E-01  0.13248492135E+00  0.19774848615E-01 0.  0.
         14    1    1    2    0    0 -0.25248810005E-02 -0.27340561964E-02 -0.23455565091E-01  0.23748970948E-01  0.00000000000E+00 0. -1.
     999901    1    3    3    0    0  0.80688011342E-02  0.88934663735E-01 -0.75032657334E-01  0.88769610770E+00  0.88000000000E+00 0.  1.
        -11    1    4    4    0    0 -0.42577912404E-03 -0.13202474615E-01  0.59189460827E-02  0.14483841602E-01  0.51100000000E-03 0.  1.
         11    1    4    4    0    0 -0.51181410096E-02 -0.72998132923E-01  0.92569276343E-01  0.11800107975E+00  0.51100000000E-03 0. -1.
</event>
<event>
 8    1  0.1143506E+005  0.1043930E+01  0.7957747E-01            NaN
         13   -1    0    0    0    0  0.00000000000E+00  0.00000000000E+00  0.74505805969E-08  0.10566000000E+00  0.10566000000E+00 0.  1.
     999900   -1    0    0    0    0 -0.00000000000E+00 -0.00000000000E+00 -0.74505805969E-08  0.93827000000E+00  0.93827000000E+00 0. -1.
     999902    2    1    2    0    0 -0.23655960427E-01 -0.11977510812E-02  0.21746667083E-02  0.10201441167E+01  0.10198667808E+01 0.  0.
     999903    2    3    3    0    0 -0.96622201493E-01 -0.77505879636E-01 -0.43100509458E-01  0.13267758523E+00  0.20066801114E-01 0.  0.
         14    1    1    2    0    0  0.23655960427E-01  0.11977510812E-02 -0.21746667083E-02  0.23785883349E-01  0.00000000000E+00 0. -1.
     999901    1    3    3    0    0  0.72966241066E-01  0.76308128555E-01  0.45275176166E-01  0.88746653142E+00  0.88000000000E+00 0. -1.
        -11    1    4    4    0    0 -0.48179688220E-01 -0.26648832840E-01 -0.22501796662E-01  0.59481380470E-01  0.51100000000E-03 0.  1.
         11    1    4    4    0    0 -0.48442513273E-01 -0.50857046796E-01 -0.20598712797E-01  0.73196204758E-01  0.51100000000E-03 0. -1.
</event>
<event>
 8    1  0.1143506E+005  0.1043930E+01  0.7957747E-01            NaN
         13   -1    0    0    0    0  0.00000000000E+00  0.00000000000E+00  0.74505805969E-08  0.10566000000E+00  0.10566000000E+00 0. -1.
     999900   -1    0    0    0    0 -0.00000000000E+00 -0.00000000000E+00 -0.74505805969E-08  0.93827000000E+00  0.93827000000E+00 0.  1.
     999902    2    1    2    0    0 -0.68189578756E-02  0.13322506667E-01  0.18669444121E-01  0.10200022856E+01  0.10197215930E+01 0.  0.
     999903    2    3    3    0    0 -0.20252122837E-01  0.12596299195E+00 -0.24611004243E-01  0.13166590451E+00  0.21292840584E-01 0.  0.
         14    1    1    2    0    0  0.68189578756E-02 -0.13322506667E-01 -0.18669444121E-01  0.23927714353E-01  0.00000000000E+00 0.  1.
     999901    1    3    3    0    0  0.13433164962E-01 -0.11264048528E+00  0.43280448364E-01  0.88833638114E+00  0.88000000000E+00 0.  1.
        -11    1    4    4    0    0 -0.15545029960E-01  0.43099887552E-01 -0.14467168185E-01  0.48050060767E-01  0.51100000000E-03 0. -1.
         11    1    4    4    0    0 -0.47070928774E-02  0.82863104395E-01 -0.10143836059E-01  0.83615843740E-01  0.51100000000E-03 0.  1.
</event>
<event>
 8    1  0.1143506E+005  0.1043930E+01  0.7957747E-01            NaN
         13   -1    0    0    0    0  0.00000000000E+00  0.00000000000E+00  0.74505805969E-08  0.10566000000E+00  0.10566000000E+00 0.  1.
     999900   -1    0    0    0    0 -0.00000000000E+00 -0.00000000000E+00 -0.74505805969E-08  0.93827000000E+00  0.93827000000E+00 0. -1.
     999902    2    1    2    0    0  0.22890475205E-01 -0.35156521180E-02 -0.69762306235E-02  0.10197431966E+01  0.10194563186E+01 0.  0.
     999903    2    3    3    0    0  0.66384133992E-01 -0.10964597469E+00 -0.24607381901E-01  0.13212492210E+00  0.20551855997E-01 0.  0.
         14    1    1    2    0    0 -0.22890475205E-01  0.35156521180E-02  0.69762306235E-02  0.24186803399E-01  0.00000000000E+00 0.  1.
     999901    1    3    3    0    0 -0.43493658787E-01  0.10613032257E+00  0.17631151277E-01  0.88761827450E+00  0.88000000000E+00 0.  1.
        -11    1    4    4    0    0  0.25011423961E-01 -0.24280431778E-01 -0.87614540870E-02  0.35946277896E-01  0.51100000000E-03 0.  1.
         11    1    4    4    0    0  0.41372710031E-01 -0.85365542915E-01 -0.15845927814E-01  0.96178644209E-01  0.51100000000E-03 0. -1.
</event>
<event>
 8    1  0.1143506E+005  0.1043930E+01  0.7957747E-01            NaN
         13   -1    0    0    0    0  0.00000000000E+00  0.00000000000E+00  0.74505805969E-08  0.10566000000E+00  0.10566000000E+00 0.  1.
     999900   -1    0    0    0    0 -0.00000000000E+00 -0.00000000000E+00 -0.74505805969E-08  0.93827000000E+00  0.93827000000E+00 0.  1.
     999902    2    1    2    0    0 -0.21561005084E-01 -0.30573027027E-02  0.10767395506E-01  0.10196367737E+01  0.10193473350E+01 0.  0.
     999903    2    3    3    0    0 -0.31979089676E-01  0.76704534385E-01  0.99930592656E-01  0.13148106498E+00  0.19872074041E-01 0.  0.
         14    1    1    2    0    0  0.21561005084E-01  0.30573027027E-02 -0.10767395506E-01  0.24293226341E-01  0.00000000000E+00 0.  1.
     999901    1    3    3    0    0  0.10418084591E-01 -0.79761837088E-01 -0.89163197150E-01  0.88815570868E+00  0.88000000000E+00 0.  1.
        -11    1    4    4    0    0 -0.20290301585E-01  0.24044939314E-01  0.34962322027E-01  0.47037012315E-01  0.51100000000E-03 0. -1.
         11    1    4    4    0    0 -0.11688788090E-01  0.52659595071E-01  0.64968270629E-01  0.84444052660E-01  0.51100000000E-03 0.  1.
</event>
<event>
 8    1  0.1143506E+005  0.1043930E+01  0.7957747E-01            NaN
         13   -1    0    0    0    0  0.00000000000E+00  0.00000000000E+00  0.74505805969E-08  0.10566000000E+00  0.10566000000E+00 0.  1.
     999900   -1    0    0    0    0 -0.00000000000E+00 -0.00000000000E+00 -0.74505805969E-08  0.93827000000E+00  0.93827000000E+00 0. -1.
     999902    2    1    2    0    0 -0.21307264087E-01 -0.16270146253E-01 -0.55237102909E-02  0.10165579607E+01  0.10161893814E+01 0.  0.
     999903    2    3    3    0    0  0.29310017111E-01  0.17395629675E-01  0.11949474481E+00  0.12564544659E+00  0.18603740933E-01 0.  0.
         14    1    1    2    0    0  0.21307264087E-01  0.16270146253E-01  0.55237102909E-02  0.27372039335E-01  0.00000000000E+00 0.  1.
     999901    1    3    3    0    0 -0.50617281198E-01 -0.33665775928E-01 -0.12501845510E+00  0.89091251408E+00  0.88000000000E+00 0. -1.
        -11    1    4    4    0    0 -0.74569735964E-03  0.68900351736E-02  0.23617761618E-01  0.24618863379E-01  0.51100000000E-03 0. -1.
         11    1    4    4    0    0  0.30055714471E-01  0.10505594501E-01  0.95876983190E-01  0.10102658321E+00  0.51100000000E-03 0.  1.
</event>
<event>
 8    1  0.1143506E+005  0.1043930E+01  0.7957747E-01            NaN
         13   -1    0    0    0    0  0.00000000000E+00  0.00000000000E+00  0.74505805969E-08  0.10566000000E+00  0.10566000000E+00 0. -1.
     999900   -1    0    0    0    0 -0.00000000000E+00 -0.00000000000E+00 -0.74505805969E-08  0.93827000000E+00  0.93827000000E+00 0.  1.
     999902    2    1    2    0    0 -0.15069106477E-01  0.69599990695E-02 -0.16104447746E-01  0.10208026829E+01  0.10205406629E+01 0.  0.
     999903    2    3    3    0    0 -0.29878168117E-01  0.12583034983E+00  0.18770690260E-01  0.13200251201E+00  0.18610279333E-01 0.  0.
         14    1    1    2    0    0  0.15069106477E-01 -0.69599990695E-02  0.16104447746E-01  0.23127317057E-01  0.00000000000E+00 0.  1.
     999901    1    3    3    0    0  0.14809061641E-01 -0.11887035076E+00 -0.34875138005E-01  0.88880017093E+00  0.88000000000E+00 0.  1.
        -11    1    4    4    0    0 -0.35939066027E-02  0.14310881809E-01  0.83290876617E-02  0.16951469703E-01  0.51100000000E-03 0.  1.
         11    1    4    4    0    0 -0.26284261515E-01  0.11151946802E+00  0.10441602598E-01  0.11505104231E+00  0.51100000000E-03 0. -1.
</event>
<event>
 8    1  0.1143506E+005  0.1043930E+01  0.7957747E-01            NaN
         13   -1    0    0    0    0  0.00000000000E+00  0.00000000000E+00  0.74505805969E-08  0.10566000000E+00  0.10566000000E+00 0. -1.
     999900   -1    0    0    0    0 -0.00000000000E+00 -0.00000000000E+00 -0.74505805969E-08  0.93827000000E+00  0.93827000000E+00 0. -1.
     999902    2    1    2    0    0 -0.17657669077E-02 -0.15794166896E-01  0.16997935800E-01  0.10206597731E+01  0.10203944673E+01 0.  0.
     999903    2    3    3    0    0  0.36733429849E-01 -0.27434843602E-02  0.12628903234E+00  0.13296779255E+00  0.19355686295E-01 0.  0.
         14    1    1    2    0    0  0.17657669077E-02  0.15794166896E-01 -0.16997935800E-01  0.23270226947E-01  0.00000000000E+00 0. -1.
     999901    1    3    3    0    0 -0.38499196757E-01 -0.13050682536E-01 -0.10929109654E+00  0.88769198050E+00  0.88000000000E+00 0. -1.
        -11    1    4    4    0    0  0.11813716582E-01 -0.90104781667E-03  0.16196344306E-01  0.20073825658E-01  0.51100000000E-03 0. -1.
         11    1    4    4    0    0  0.24919713267E-01 -0.18424365436E-02  0.11009268803E+00  0.11289396689E+00  0.51100000000E-03 0.  1.
</event>
<event>
 8    1  0.1143506E+005  0.1043930E+01  0.7957747E-01            NaN
         13   -1    0    0    0    0  0.00000000000E+00  0.00000000000E+00  0.74505805969E-08  0.10566000000E+00  0.10566000000E+00 0. -1.
     999900   -1    0    0    0    0 -0.00000000000E+00 -0.00000000000E+00 -0.74505805969E-08  0.93827000000E+00  0.93827000000E+00 0.  1.
     999902    2    1    2    0    0  0.71097488473E-02 -0.15750768787E-01 -0.16347497548E-01  0.10201418533E+01  0.10198644640E+01 0.  0.
     999903    2    3    3    0    0 -0.47995410878E-01  0.10971273132E+00 -0.44053075962E-01  0.12910578921E+00  0.19677104113E-01 0.  0.
         14    1    1    2    0    0 -0.71097488473E-02  0.15750768787E-01  0.16347497548E-01  0.23788146673E-01  0.00000000000E+00 0. -1.
     999901    1    3    3    0    0  0.55105159725E-01 -0.12546350011E+00  0.27705578414E-01  0.89103606412E+00  0.88000000000E+00 0. -1.
        -11    1    4    4    0    0 -0.81695965562E-02  0.62431553557E-02 -0.58324272614E-02  0.11832059223E-01  0.51100000000E-03 0.  1.
         11    1    4    4    0    0 -0.39825814322E-01  0.10346957596E+00 -0.38220648700E-01  0.11727372998E+00  0.51100000000E-03 0. -1.
</event>
<event>
 8    1  0.1143506E+005  0.1043930E+01  0.7957747E-01            NaN
         13   -1    0    0    0    0  0.00000000000E+00  0.00000000000E+00  0.74505805969E-08  0.10566000000E+00  0.10566000000E+00 0.  1.
     999900   -1    0    0    0    0 -0.00000000000E+00 -0.00000000000E+00 -0.74505805969E-08  0.93827000000E+00  0.93827000000E+00 0. -1.
     999902    2    1    2    0    0  0.19784040486E-01  0.12833864093E-01  0.33458595150E-02  0.10201117066E+01  0.10198336054E+01 0.  0.
     999903    2    3    3    0    0  0.81895750956E-01 -0.75804568852E-01 -0.66546021973E-01  0.13073017345E+00  0.14448478359E-01 0.  0.
         14    1    1    2    0    0 -0.19784040486E-01 -0.12833864093E-01 -0.33458595150E-02  0.23818293419E-01  0.00000000000E+00 0. -1.
     999901    1    3    3    0    0 -0.62111710471E-01  0.88638432945E-01  0.69891881488E-01  0.88938153313E+00  0.88000000000E+00 0. -1.
        -11    1    4    4    0    0  0.76866259182E-01 -0.65554067203E-01 -0.61157498577E-01  0.11809427709E+00  0.51100000000E-03 0.  1.
         11    1    4    4    0    0  0.50294917741E-02 -0.10250501649E-01 -0.53885233958E-02  0.12635896365E-01  0.51100000000E-03 0. -1.
</event>
<event>
 8    1  0.1143506E+005  0.1043930E+01  0.7957747E-01            NaN
         13   -1    0    0    0    0  0.00000000000E+00  0.00000000000E+00  0.74505805969E-08  0.10566000000E+00  0.10566000000E+00 0. -1.
     999900   -1    0    0    0    0 -0.00000000000E+00 -0.00000000000E+00 -0.74505805969E-08  0.93827000000E+00  0.93827000000E+00 0.  1.
     999902    2    1    2    0    0  0.76311248163E-02  0.21034417224E-01  0.50116795166E-02  0.10209997208E+01  0.10207421967E+01 0.  0.
     999903    2    3    3    0    0 -0.29282288939E-01 -0.11342514611E+00  0.49339506355E-01  0.12891960637E+00  0.21521194245E-01 0.  0.
         14    1    1    2    0    0 -0.76311248163E-02 -0.21034417224E-01 -0.50116795166E-02  0.22930279228E-01  0.00000000000E+00 0. -1.
     999901    1    3    3    0    0  0.36913413755E-01  0.13445956334E+00 -0.44327826838E-01  0.89208011441E+00  0.88000000000E+00 0.  1.
        -11    1    4    4    0    0  0.11367554815E-02 -0.14796142991E-01  0.12229334059E-01  0.19236314433E-01  0.51100000000E-03 0. -1.
         11    1    4    4    0    0 -0.30419044420E-01 -0.98629003122E-01  0.37110172296E-01  0.10968329193E+00  0.51100000000E-03 0.  1.
</event>
<event>
 8    1  0.1143506E+005  0.1043930E+01  0.7957747E-01            NaN
         13   -1    0    0    0    0  0.00000000000E+00  0.00000000000E+00  0.74505805969E-08  0.10566000000E+00  0.10566000000E+00 0. -1.
     999900   -1    0    0    0    0 -0.00000000000E+00 -0.00000000000E+00 -0.74505805969E-08  0.93827000000E+00  0.93827000000E+00 0.  1.
     999902    2    1    2    0    0 -0.18167193103E-01  0.10230787563E-01  0.11216219196E-01  0.10202547071E+01  0.10199799743E+01 0.  0.
     999903    2    3    3    0    0 -0.37442776936E-01 -0.20514701580E-01  0.12368953026E+00  0.13235433043E+00  0.19893575926E-01 0.  0.
         14    1    1    2    0    0  0.18167193103E-01 -0.10230787563E-01 -0.11216219196E-01  0.23675292870E-01  0.00000000000E+00 0.  1.
     999901    1    3    3    0    0  0.19275583833E-01  0.30745489143E-01 -0.11247331106E+00  0.88790037670E+00  0.88000000000E+00 0.  1.
        -11    1    4    4    0    0 -0.29807191357E-01 -0.87466907597E-02  0.65487559109E-01  0.72483479324E-01  0.51100000000E-03 0. -1.
         11    1    4    4    0    0 -0.76355855794E-02 -0.11768010820E-01  0.58201971151E-01  0.59870851111E-01  0.51100000000E-03 0.  1.
</event>
<event>
 8    1  0.1143506E+005  0.1043930E+01  0.7957747E-01            NaN
         13   -1    0    0    0    0  0.00000000000E+00  0.00000000000E+00  0.74505805969E-08  0.10566000000E+00  0.10566000000E+00 0.  1.
     999900   -1    0    0    0    0 -0.00000000000E+00 -0.00000000000E+00 -0.74505805969E-08  0.93827000000E+00  0.93827000000E+00 0. -1.
     999902    2    1    2    0    0 -0.10033579039E-01  0.15918054796E-01 -0.11744127376E-01  0.10217493394E+01  0.10215085564E+01 0.  0.
     999903    2    3    3    0    0 -0.59458209410E-01 -0.98050935009E-01  0.58451329665E-01  0.13025669955E+00  0.20024617711E-01 0.  0.
         14    1    1    2    0    0  0.10033579039E-01 -0.15918054796E-01  0.11744127376E-01  0.22180660600E-01  0.00000000000E+00 0. -1.
     999901    1    3    3    0    0  0.49424630371E-01  0.11396898981E+00 -0.70195457041E-01  0.89149263985E+00  0.88000000000E+00 0. -1.
        -11    1    4    4    0    0 -0.58281430503E-01 -0.88181563158E-01  0.48910354947E-01  0.11646972639E+00  0.51100000000E-03 0.  1.
         11    1    4    4    0    0 -0.11767789074E-02 -0.98693718517E-02  0.95409747174E-02  0.13786973160E-01  0.51100000000E-03 0. -1.
</event>
<event>
 8    1  0.1143506E+005  0.1043930E+01  0.7957747E-01            NaN
         13   -1    0    0    0    0  0.00000000000E+00  0.00000000000E+00  0.74505805969E-08  0.10566000000E+00  0.10566000000E+00 0.  1.
     999900   -1    0    0    0    0 -0.00000000000E+00 -0.00000000000E+00 -0.74505805969E-08  0.93827000000E+00  0.93827000000E+00 0. -1.
     999902    2    1    2    0    0  0.17414669005E-01 -0.11568834328E-01  0.12609827451E-01  0.10195145055E+01  0.10192221105E+01 0.  0.
     999903    2    3    3    0    0 -0.20388317186E-01  0.10931426668E+00 -0.59293765339E-01  0.12754370073E+00  0.19655854321E-01 0.  0.
         14    1    1    2    0    0 -0.17414669005E-01  0.11568834328E-01 -0.12609827451E-01  0.24415494519E-01  0.00000000000E+00 0. -1.
     999901    1    3    3    0    0  0.37802986192E-01 -0.12088310101E+00  0.71903592790E-01  0.89197080475E+00  0.88000000000E+00 0.  1.
        -11    1    4    4    0    0 -0.14811398070E-01  0.85610549464E-01 -0.54952285269E-01  0.10280349444E+00  0.51100000000E-03 0. -1.
         11    1    4    4    0    0 -0.55769191162E-02  0.23703717220E-01 -0.43414800702E-02  0.24740206286E-01  0.51100000000E-03 0.  1.
</event>
<event>
 8    1  0.1143506E+005  0.1043930E+01  0.7957747E-01            NaN
         13   -1    0    0    0    0  0.00000000000E+00  0.00000000000E+00  0.74505805969E-08  0.10566000000E+00  0.10566000000E+00 0.  1.
     999900   -1    0    0    0    0 -0.00000000000E+00 -0.00000000000E+00 -0.74505805969E-08  0.93827000000E+00  0.93827000000E+00 0. -1.
     999902    2    1    2    0    0  0.10776185342E-01 -0.18689613216E-01  0.89832568698E-02  0.10205606458E+01  0.10202930486E+01 0.  0.
     999903    2    3    3    0    0 -0.12636191230E+00 -0.17853818219E-01 -0.12042785647E-01  0.12969048080E+00  0.19710413968E-01 0.  0.
         14    1    1    2    0    0 -0.10776185342E-01  0.18689613216E-01 -0.89832568698E-02  0.23369354220E-01  0.00000000000E+00 0. -1.
     999901    1    3    3    0    0  0.13713809765E+00 -0.83579499705E-03  0.21026042517E-01  0.89087016498E+00  0.88000000000E+00 0.  1.
        -11    1    4    4    0    0 -0.54720999426E-01 -0.13461894087E-01  0.26811939643E-02  0.56418616543E-01  0.51100000000E-03 0.  1.
         11    1    4    4    0    0 -0.71640912879E-01 -0.43919241320E-02 -0.14723979611E-01  0.73271864261E-01  0.51100000000E-03 0. -1.
</event>
<event>
 8    1  0.1143506E+005  0.1043930E+01  0.7957747E-01            NaN
         13   -1    0    0    0    0  0.00000000000E+00  0.00000000000E+00  0.74505805969E-08  0.10566000000E+00  0.10566000000E+00 0. -1.
     999900   -1    0    0    0    0 -0.00000000000E+00 -0.00000000000E+00 -0.74505805969E-08  0.93827000000E+00  0.93827000000E+00 0. -1.
     999902    2    1    2    0    0 -0.50699170679E-02  0.19472417993E-01 -0.10498115911E-01  0.10212344154E+01  0.10209821946E+01 0.  0.
     999903    2    3    3    0    0 -0.10028979569E+00 -0.67371205295E-01  0.44115083590E-01  0.13017255351E+00  0.20045714400E-01 0.  0.
         14    1    1    2    0    0  0.50699170679E-02 -0.19472417993E-01  0.10498115911E-01  0.22695584576E-01  0.00000000000E+00 0.  1.
     999901    1    3    3    0    0  0.95219878622E-01  0.86843623289E-01 -0.54613199501E-01  0.89106186191E+00  0.88000000000E+00 0. -1.
        -11    1    4    4    0    0 -0.30782401333E-01 -0.22889988944E-01  0.23933986483E-01  0.45217304825E-01  0.51100000000E-03 0.  1.
         11    1    4    4    0    0 -0.69507394356E-01 -0.44481216351E-01  0.20181097107E-01  0.84955248689E-01  0.51100000000E-03 0. -1.
</event>
<event>
 8    1  0.1143506E+005  0.1043930E+01  0.7957747E-01            NaN
         13   -1    0    0    0    0  0.00000000000E+00  0.00000000000E+00  0.74505805969E-08  0.10566000000E+00  0.10566000000E+00 0. -1.
     999900   -1    0    0    0    0 -0.00000000000E+00 -0.00000000000E+00 -0.74505805969E-08  0.93827000000E+00  0.93827000000E+00 0. -1.
     999902    2    1    2    0    0 -0.98098457194E-02 -0.22289562912E-01 -0.30288436813E-02  0.10193895929E+01  0.10190941617E+01 0.  0.
     999903    2    3    3    0    0  0.10910208311E+00 -0.41511942549E-01  0.52430895494E-01  0.12945401691E+00  0.19566240776E-01 0.  0.
         14    1    1    2    0    0  0.98098457194E-02  0.22289562912E-01  0.30288436813E-02  0.24540407126E-01  0.00000000000E+00 0.  1.
     999901    1    3    3    0    0 -0.11891192883E+00  0.19222379637E-01 -0.55459739175E-01  0.88993557596E+00  0.88000000000E+00 0. -1.
        -11    1    4    4    0    0  0.82870766268E-01 -0.40088064441E-01  0.39631705152E-01  0.10022749117E+00  0.51100000000E-03 0. -1.
         11    1    4    4    0    0  0.26231316845E-01 -0.14238781082E-02  0.12799190342E-01  0.29226525738E-01  0.51100000000E-03 0.  1.
</event>
<event>
 8    1  0.1143506E+005  0.1043930E+01  0.7957747E-01            NaN
         13   -1    0    0    0    0  0.00000000000E+00  0.00000000000E+00  0.74505805969E-08  0.10566000000E+00  0.10566000000E+00 0.  1.
     999900   -1    0    0    0    0 -0.00000000000E+00 -0.00000000000E+00 -0.74505805969E-08  0.93827000000E+00  0.93827000000E+00 0. -1.
     999902    2    1    2    0    0  0.25979553560E-02 -0.48744523809E-02  0.15784234154E-01  0.10272072100E+01  0.10270710786E+01 0.  0.
     999903    2    3    3    0    0 -0.11215714818E+00  0.74474803293E-01 -0.22426779463E-02  0.13603382185E+00  0.19350681346E-01 0.  0.
         14    1    1    2    0    0 -0.25979553560E-02  0.48744523809E-02 -0.15784234154E-01  0.16722790014E-01  0.00000000000E+00 0. -1.
     999901    1    3    3    0    0  0.11475510354E+00 -0.79349255673E-01  0.18026912100E-01  0.89117338814E+00  0.88000000000E+00 0.  1.
        -11    1    4    4    0    0 -0.91382300708E-01  0.66969449093E-01  0.29614194067E-02  0.11333429808E+00  0.51100000000E-03 0. -1.
         11    1    4    4    0    0 -0.20774847475E-01  0.75053541996E-02 -0.52040973529E-02  0.22699523773E-01  0.51100000000E-03 0.  1.
</event>
<event>
 8    1  0.1143506E+005  0.1043930E+01  0.7957747E-01            NaN
         13   -1    0    0    0    0  0.00000000000E+00  0.00000000000E+00  0.74505805969E-08  0.10566000000E+00  0.10566000000E+00 0.  1.
     999900   -1    0    0    0    0 -0.00000000000E+00 -0.00000000000E+00 -0.74505805969E-08  0.93827000000E+00  0.93827000000E+00 0.  1.
     999902    2    1    2    0    0  0.19414158393E-01 -0.17841988432E-01 -0.68850478777E-02  0.10166783949E+01  0.10163130958E+01 0.  0.
     999903    2    3    3    0    0 -0.20675728629E-01 -0.12513873517E+00 -0.81876526946E-02  0.12925432056E+00  0.23504317349E-01 0.  0.
         14    1    1    2    0    0 -0.19414158393E-01  0.17841988432E-01  0.68850478777E-02  0.27251605119E-01  0.00000000000E+00 0.  1.
     999901    1    3    3    0    0  0.40089887022E-01  0.10729674673E+00  0.13026048168E-02  0.88742407432E+00  0.88000000000E+00 0. -1.
        -11    1    4    4    0    0 -0.50821507300E-02 -0.72757393885E-01 -0.14076725180E-01  0.74282447010E-01  0.51100000000E-03 0.  1.
         11    1    4    4    0    0 -0.15593577899E-01 -0.52381341280E-01  0.58890724859E-02  0.54971873551E-01  0.51100000000E-03 0. -1.
</event>
<event>
 8    1  0.1143506E+005  0.1043930E+01  0.7957747E-01            NaN
         13   -1    0    0    0    0  0.00000000000E+00  0.00000000000E+00  0.74505805969E-08  0.10566000000E+00  0.10566000000E+00 0. -1.
     999900   -1    0    0    0    0 -0.00000000000E+00 -0.00000000000E+00 -0.74505805969E-08  0.93827000000E+00  0.93827000000E+00 0. -1.
     999902    2    1    2    0    0 -0.95659589428E-02  0.79295241102E-02  0.19425513930E-01  0.10208706090E+01  0.10206101434E+01 0.  0.
     999903    2    3    3    0    0  0.47225792400E-01  0.11979467493E+00 -0.15900850728E-01  0.13127122328E+00  0.19956387396E-01 0.  0.
         14    1    1    2    0    0  0.95659589428E-02 -0.79295241102E-02 -0.19425513930E-01  0.23059391028E-01  0.00000000000E+00 0. -1.
     999901    1    3    3    0    0 -0.56791751343E-01 -0.11186515082E+00  0.35326364658E-01  0.88959938569E+00  0.88000000000E+00 0. -1.
        -11    1    4    4    0    0  0.23070058355E-01  0.42955058388E-01  0.18256482816E-02  0.48795068872E-01  0.51100000000E-03 0.  1.
         11    1    4    4    0    0  0.24155734046E-01  0.76839616541E-01 -0.17726499010E-01  0.82476154406E-01  0.51100000000E-03 0. -1.
</event>
<event>
 8    1  0.1143506E+005  0.1043930E+01  0.7957747E-01            NaN
         13   -1    0    0    0    0  0.00000000000E+00  0.00000000000E+00  0.74505805969E-08  0.10566000000E+00  0.10566000000E+00 0.  1.
     999900   -1    0    0    0    0 -0.00000000000E+00 -0.00000000000E+00 -0.74505805969E-08  0.93827000000E+00  0.93827000000E+00 0. -1.
     999902    2    1    2    0    0  0.20691213304E-02 -0.33257937355E-02  0.23646860772E-01  0.10199609326E+01  0.10196792573E+01 0.  0.
     999903    2    3    3    0    0 -0.12699613313E+00 -0.10092147973E-01 -0.14399254529E-01  0.12970752467E+00  0.19668099673E-01 0.  0.
         14    1    1    2    0    0 -0.20691213304E-02  0.33257937355E-02 -0.23646860772E-01  0.23969067388E-01  0.00000000000E+00 0. -1.
     999901    1    3    3    0    0  0.12906525446E+00  0.67663542371E-02  0.38046115301E-01  0.89025340794E+00  0.88000000000E+00 0. -1.
        -11    1    4    4    0    0 -0.17421724426E-01  0.34601579774E-02  0.27245861116E-02  0.17977031615E-01  0.51100000000E-03 0.  1.
         11    1    4    4    0    0 -0.10957440870E+00 -0.13552305950E-01 -0.17123840640E-01  0.11173049306E+00  0.51100000000E-03 0. -1.
</event>
<event>
 8    1  0.1143506E+005  0.1043930E+01  0.7957747E-01            NaN
         13   -1    0    0    0    0  0.00000000000E+00  0.00000000000E+00  0.74505805969E-08  0.10566000000E+00  0.10566000000E+00 0. -1.
     999900   -1    0    0    0    0 -0.00000000000E+00 -0.00000000000E+00 -0.74505805969E-08  0.93827000000E+00  0.93827000000E+00 0.  1.
     999902    2    1    2    0    0  0.16864010360E-01 -0.15169168903E-01 -0.43450403683E-02  0.10208350242E+01  0.10205737449E+01 0.  0.
     999903    2    3    3    0    0 -0.92374613385E-01  0.87836910688E-02 -0.88628829395E-01  0.12976231477E+00  0.19312340847E-01 0.  0.
         14    1    1    2    0    0 -0.16864010360E-01  0.15169168903E-01  0.43450403683E-02  0.23094975784E-01  0.00000000000E+00 0. -1.
     999901    1    3    3    0    0  0.10923862375E+00 -0.23952859972E-01  0.84283789027E-01  0.89107270944E+00  0.88000000000E+00 0. -1.
        -11    1    4    4    0    0 -0.81454185302E-01  0.13447285275E-02 -0.78148148803E-01  0.11288926823E+00  0.51100000000E-03 0. -1.
         11    1    4    4    0    0 -0.10920428082E-01  0.74389625413E-02 -0.10480680592E-01  0.16873046550E-01  0.51100000000E-03 0.  1.
</event>
<event>
 8    1  0.1143506E+005  0.1043930E+01  0.7957747E-01            NaN
         13   -1    0    0    0    0  0.00000000000E+00  0.00000000000E+00  0.74505805969E-08  0.10566000000E+00  0.10566000000E+00 0.  1.
     999900   -1    0    0    0    0 -0.00000000000E+00 -0.00000000000E+00 -0.74505805969E-08  0.93827000000E+00  0.93827000000E+00 0.  1.
     999902    2    1    2    0    0  0.16004812198E-01 -0.13325740780E-01  0.70740709558E-02  0.10219351856E+01  0.10216984642E+01 0.  0.
     999903    2    3    3    0    0 -0.10302472072E+00  0.16939972313E-01  0.76420077120E-01  0.13070406424E+00  0.18505903938E-01 0.  0.
         14    1    1    2    0    0 -0.16004812198E-01  0.13325740780E-01 -0.70740709558E-02  0.21994814405E-01  0.00000000000E+00 0.  1.
     999901    1    3    3    0    0  0.11902953292E+00 -0.30265713093E-01 -0.69346006164E-01  0.89123112135E+00  0.88000000000E+00 0.  1.
        -11    1    4    4    0    0 -0.48960480112E-01  0.15185208234E-01  0.44564188939E-01  0.67926042272E-01  0.51100000000E-03 0. -1.
         11    1    4    4    0    0 -0.54064240610E-01  0.17547640792E-02  0.31855888181E-01  0.62778021971E-01  0.51100000000E-03 0.  1.
</event>
<event>
 8    1  0.1143506E+005  0.1043930E+01  0.7957747E-01            NaN
         13   -1    0    0    0    0  0.00000000000E+00  0.00000000000E+00  0.74505805969E-08  0.10566000000E+00  0.10566000000E+00 0. -1.
     999900   -1    0    0    0    0 -0.00000000000E+00 -0.00000000000E+00 -0.74505805969E-08  0.93827000000E+00  0.93827000000E+00 0. -1.
     999902    2    1    2    0    0  0.10194358201E-01  0.20717092095E-01  0.37312940824E-02  0.10205409983E+01  0.10202729458E+01 0.  0.
     999903    2    3    3    0    0 -0.47937753119E-01  0.73243337998E-01  0.96829775372E-01  0.13216851108E+00  0.20733913914E-01 0.  0.
         14    1    1    2    0    0 -0.10194358201E-01 -0.20717092095E-01 -0.37312940824E-02  0.23389001679E-01  0.00000000000E+00 0.  1.
     999901    1    3    3    0    0  0.58132111320E-01 -0.52526245903E-01 -0.93098481290E-01  0.88837248724E+00  0.88000000000E+00 0. -1.
        -11    1    4    4    0    0 -0.40065966486E-01  0.57783522891E-01  0.64229759009E-01  0.95236233921E-01  0.51100000000E-03 0. -1.
         11    1    4    4    0    0 -0.78717866327E-02  0.15459815107E-01  0.32600016363E-01  0.36932277155E-01  0.51100000000E-03 0.  1.
</event>
<event>
 8    1  0.1143506E+005  0.1043930E+01  0.7957747E-01            NaN
         13   -1    0    0    0    0  0.00000000000E+00  0.00000000000E+00  0.74505805969E-08  0.10566000000E+00  0.10566000000E+00 0.  1.
     999900   -1    0    0    0    0 -0.00000000000E+00 -0.00000000000E+00 -0.74505805969E-08  0.93827000000E+00  0.93827000000E+00 0. -1.
     999902    2    1    2    0    0 -0.24071131325E-02  0.29756660262E-02  0.23111018223E-01  0.10205042034E+01  0.10202352970E+01 0.  0.
     999903    2    3    3    0    0  0.96669089878E-01 -0.77811858191E-01 -0.32099670260E-01  0.12955474459E+00  0.18826704494E-01 0.  0.
         14    1    1    2    0    0  0.24071131325E-02 -0.29756660262E-02 -0.23111018223E-01  0.23425796576E-01  0.00000000000E+00 0. -1.
     999901    1    3    3    0    0 -0.99076203011E-01  0.80787524217E-01  0.55210688482E-01  0.89094945883E+00  0.88000000000E+00 0.  1.
        -11    1    4    4    0    0  0.17626006086E-01 -0.23923064934E-01 -0.51263991239E-02  0.30158418648E-01  0.51100000000E-03 0.  1.
         11    1    4    4    0    0  0.79043083793E-01 -0.53888793258E-01 -0.26973271136E-01  0.99396325943E-01  0.51100000000E-03 0. -1.
</event>
<event>
 8    1  0.1143506E+005  0.1043930E+01  0.7957747E-01            NaN
         13   -1    0    0    0    0  0.00000000000E+00  0.00000000000E+00  0.74505805969E-08  0.10566000000E+00  0.10566000000E+00 0. -1.
     999900   -1    0    0    0    0 -0.00000000000E+00 -0.00000000000E+00 -0.74505805969E-08  0.93827000000E+00  0.93827000000E+00 0. -1.
     999902    2    1    2    0    0 -0.10948178978E-01 -0.21835101403E-02  0.19869502703E-01  0.10211390483E+01  0.10208846794E+01 0.  0.
     999903    2    3    3    0    0  0.53101348518E-01  0.68881914684E-01 -0.94480348600E-01  0.12859855903E+00  0.68250808608E-02 0.  0.
         14    1    1    2    0    0  0.10948178978E-01  0.21835101403E-02 -0.19869502703E-01  0.22790951650E-01  0.00000000000E+00 0.  1.
     999901    1    3    3    0    0 -0.64049527496E-01 -0.71065424824E-01  0.11434985130E+00  0.89254048932E+00  0.88000000000E+00 0.  1.
        -11    1    4    4    0    0  0.32755873197E-01  0.37043492085E-01 -0.54058418615E-01  0.73264870701E-01  0.51100000000E-03 0. -1.
         11    1    4    4    0    0  0.20345475321E-01  0.31838422599E-01 -0.40421929984E-01  0.55333688331E-01  0.51100000000E-03 0.  1.
</event>
<event>
 7    1  0.1143506E+005  0.1043930E+01  0.7957747E-01            NaN
         13   -1    0    0    0    0  0.00000000000E+00  0.00000000000E+00  0.74505805969E-08  0.10566000000E+00  0.10566000000E+00 0.  1.
     999900   -1    0    0    0    0 -0.00000000000E+00 -0.00000000000E+00 -0.74505805969E-08  0.93827000000E+00  0.93827000000E+00 0. -1.
     999903    2    1    2    0    0  0.21181988690E-01 -0.73345733958E-01  0.81527545673E-01  0.11356396798E+00  0.20536815344E-01 0.  0.
         14    1    1    2    0    0  0.36139726980E-01  0.83157485351E-02  0.16693647647E-01  0.40668285084E-01  0.00000000000E+00 0.  1.
     999901    1    1    2    0    0 -0.57321715670E-01  0.65029985423E-01 -0.98221193321E-01  0.88969774694E+00  0.88000000000E+00 0. -1.
        -11    1    3    3    0    0  0.69155769138E-02 -0.36402372864E-01  0.53351594717E-01  0.64958538577E-01  0.51100000000E-03 0.  1.
         11    1    3    3    0    0  0.14266411777E-01 -0.36943361094E-01  0.28175950956E-01  0.48605429400E-01  0.51100000000E-03 0. -1.
</event>
<event>
 8    1  0.1143506E+005  0.1043930E+01  0.7957747E-01            NaN
         13   -1    0    0    0    0  0.00000000000E+00  0.00000000000E+00  0.74505805969E-08  0.10566000000E+00  0.10566000000E+00 0.  1.
     999900   -1    0    0    0    0 -0.00000000000E+00 -0.00000000000E+00 -0.74505805969E-08  0.93827000000E+00  0.93827000000E+00 0. -1.
     999902    2    1    2    0    0  0.65115977280E-03  0.96541662187E-02  0.22660767370E-01  0.10192898435E+01  0.10189919763E+01 0.  0.
     999903    2    3    3    0    0  0.11041760150E+00  0.18592017272E-01 -0.59927674940E-01  0.12858820563E+00  0.20146726149E-01 0.  0.
         14    1    1    2    0    0 -0.65115977280E-03 -0.96541662187E-02 -0.22660767370E-01  0.24640156498E-01  0.00000000000E+00 0. -1.
     999901    1    3    3    0    0 -0.10976644173E+00 -0.89378510536E-02  0.82588442310E-01  0.89070163788E+00  0.88000000000E+00 0.  1.
        -11    1    4    4    0    0  0.28333702330E-01 -0.38880667365E-02 -0.13306676031E-01  0.31547495917E-01  0.51100000000E-03 0.  1.
         11    1    4    4    0    0  0.82083899173E-01  0.22480084009E-01 -0.46620998909E-01  0.97040709709E-01  0.51100000000E-03 0. -1.
</event>
<event>
 8    1  0.1143506E+005  0.1043930E+01  0.7957747E-01            NaN
         13   -1    0    0    0    0  0.00000000000E+00  0.00000000000E+00  0.74505805969E-08  0.10566000000E+00  0.10566000000E+00 0.  1.
     999900   -1    0    0    0    0 -0.00000000000E+00 -0.00000000000E+00 -0.74505805969E-08  0.93827000000E+00  0.93827000000E+00 0.  1.
     999902    2    1    2    0    0 -0.13121424656E-01 -0.18244149611E-01  0.65319713167E-02  0.10205272773E+01  0.10202589065E+01 0.  0.
     999903    2    3    3    0    0  0.88324100399E-01  0.81017841419E-01 -0.39937199832E-01  0.12794477620E+00  0.20244715046E-01 0.  0.
         14    1    1    2    0    0  0.13121424656E-01  0.18244149611E-01 -0.65319713167E-02  0.23402722690E-01  0.00000000000E+00 0.  1.
     999901    1    3    3    0    0 -0.10144552505E+00 -0.99261991031E-01  0.46469171149E-01  0.89258250111E+00  0.88000000000E+00 0.  1.
        -11    1    4    4    0    0  0.25040051941E-02  0.94759417006E-02 -0.28402817663E-02  0.10217232240E-01  0.51100000000E-03 0.  1.
         11    1    4    4    0    0  0.85820095205E-01  0.71541899719E-01 -0.37096918066E-01  0.11772754396E+00  0.51100000000E-03 0. -1.
</event>
<event>
 8    1  0.1143506E+005  0.1043930E+01  0.7957747E-01            NaN
         13   -1    0    0    0    0  0.00000000000E+00  0.00000000000E+00  0.74505805969E-08  0.10566000000E+00  0.10566000000E+00 0. -1.
     999900   -1    0    0    0    0 -0.00000000000E+00 -0.00000000000E+00 -0.74505805969E-08  0.93827000000E+00  0.93827000000E+00 0. -1.
     999902    2    1    2    0    0 -0.70600936837E-02  0.84248239282E-02  0.21256107203E-01  0.10200000047E+01  0.10197192579E+01 0.  0.
     999903    2    3    3    0    0  0.56355182691E-01 -0.56044957616E-01 -0.97454750447E-01  0.12743621554E+00  0.20630481267E-01 0.  0.
         14    1    1    2    0    0  0.70600936837E-02 -0.84248239282E-02 -0.21256107203E-01  0.23929995288E-01  0.00000000000E+00 0.  1.
     999901    1    3    3    0    0 -0.63415276375E-01  0.64469781544E-01  0.11871085765E+00  0.89256378917E+00  0.88000000000E+00 0.  1.
        -11    1    4    4    0    0  0.42343774904E-01 -0.33629391489E-01 -0.53028725818E-01  0.75737956983E-01  0.51100000000E-03 0.  1.
         11    1    4    4    0    0  0.14011407786E-01 -0.22415566127E-01 -0.44426024629E-01  0.51698258561E-01  0.51100000000E-03 0. -1.
</event>
<event>
 8    1  0.1143506E+005  0.1043930E+01  0.7957747E-01            NaN
         13   -1    0    0    0    0  0.00000000000E+00  0.00000000000E+00  0.74505805969E-08  0.10566000000E+00  0.10566000000E+00 0. -1.
     999900   -1    0    0    0    0 -0.00000000000E+00 -0.00000000000E+00 -0.74505805969E-08  0.93827000000E+00  0.93827000000E+00 0. -1.
     999902    2    1    2    0    0  0.22274738892E-01 -0.12454379939E-02 -0.42181688187E-02  0.10212251975E+01  0.10209727694E+01 0.  0.
     999903    2    3    3    0    0 -0.11215129191E+00 -0.46811109530E-02 -0.59805712455E-01  0.12927669191E+00  0.23149832670E-01 0.  0.
         14    1    1    2    0    0 -0.22274738892E-01  0.12454379939E-02  0.42181688187E-02  0.22704802502E-01  0.00000000000E+00 0. -1.
     999901    1    3    3    0    0  0.13442603080E+00  0.34356729591E-02  0.55587543636E-01  0.89194850558E+00  0.88000000000E+00 0.  1.
        -11    1    4    4    0    0 -0.18827344770E-01 -0.80315482862E-02 -0.16702854633E-01  0.26423874676E-01  0.51100000000E-03 0.  1.
         11    1    4    4    0    0 -0.93323947142E-01  0.33504373332E-02 -0.43102857821E-01  0.10285281724E+00  0.51100000000E-03 0. -1.
</event>
<event>
 8    1  0.1143506E+005  0.1043930E+01  0.7957747E-01            NaN
         13   -1    0    0    0    0  0.00000000000E+00  0.00000000000E+00  0.74505805969E-08  0.10566000000E+00  0.10566000000E+00 0. -1.
     999900   -1    0    0    0    0 -0.00000000000E+00 -0.00000000000E+00 -0.74505805969E-08  0.93827000000E+00  0.93827000000E+00 0. -1.
     999902    2    1    2    0    0  0.88062658121E-02  0.51552413540E-02 -0.20870340408E-01  0.10206986001E+01  0.10204341891E+01 0.  0.
     999903    2    3    3    0    0  0.96145647000E-01  0.67264096180E-01 -0.60157985427E-01  0.13332652687E+00  0.19711303487E-01 0.  0.
         14    1    1    2    0    0 -0.88062658121E-02 -0.51552413540E-02  0.20870340408E-01  0.23231399866E-01  0.00000000000E+00 0. -1.
     999901    1    3    3    0    0 -0.87339381188E-01 -0.62108854826E-01  0.39287645019E-01  0.88737207326E+00  0.88000000000E+00 0.  1.
        -11    1    4    4    0    0  0.81700368221E-01  0.48554325839E-01 -0.44301020215E-01  0.10485854394E+00  0.51100000000E-03 0. -1.
         11    1    4    4    0    0  0.14445278779E-01  0.18709770341E-01 -0.15856965212E-01  0.28467982928E-01  0.51100000000E-03 0.  1.
</event>
<event>
 8    1  0.1143506E+005  0.1043930E+01  0.7957747E-01            NaN
         13   -1    0    0    0    0  0.00000000000E+00  0.00000000000E+00  0.74505805969E-08  0.10566000000E+00  0.10566000000E+00 0.  1.
     999900   -1    0    0    0    0 -0.00000000000E+00 -0.00000000000E+00 -0.74505805969E-08  0.93827000000E+00  0.93827000000E+00 0. -1.
     999902    2    1    2    0    0  0.10575758021E-01  0.17965962311E-01  0.11640683730E-01  0.10200526472E+01  0.10197731488E+01 0.  0.
     999903    2    3    3    0    0  0.26491484068E-01 -0.86571451552E-03  0.12783673454E+00  0.13207209301E+00  0.19956424142E-01 0.  0.
         14    1    1    2    0    0 -0.10575758021E-01 -0.17965962311E-01 -0.11640683730E-01  0.23877352809E-01  0.00000000000E+00 0. -1.
     999901    1    3    3    0    0 -0.15915726047E-01  0.18831676826E-01 -0.11619605081E+00  0.88798055418E+00  0.88000000000E+00 0. -1.
        -11    1    4    4    0    0  0.14166834394E-01  0.87258936011E-02  0.50507567893E-01  0.53180033390E-01  0.51100000000E-03 0.  1.
         11    1    4    4    0    0  0.12324649674E-01 -0.95916081166E-02  0.77329166643E-01  0.78892059616E-01  0.51100000000E-03 0. -1.
</event>
<event>
 8    1  0.1143506E+005  0.1043930E+01  0.7957747E-01            NaN
         13   -1    0    0    0    0  0.00000000000E+00  0.00000000000E+00  0.74505805969E-08  0.10566000000E+00  0.10566000000E+00 0.  1.
     999900   -1    0    0    0    0 -0.00000000000E+00 -0.00000000000E+00 -0.74505805969E-08  0.93827000000E+00  0.93827000000E+00 0. -1.
     999902    2    1    2    0    0 -0.23498019526E-01  0.24481063707E-02 -0.23804439722E-02  0.10201851761E+01  0.10199088082E+01 0.  0.
     999903    2    3    3    0    0  0.31096631750E-01 -0.75785222283E-01 -0.99376085329E-01  0.12973069437E+00  0.15621981465E-01 0.  0.
         14    1    1    2    0    0  0.23498019526E-01 -0.24481063707E-02  0.23804439722E-02  0.23744823856E-01  0.00000000000E+00 0.  1.
     999901    1    3    3    0    0 -0.54594651276E-01  0.78233328654E-01  0.96995641357E-01  0.89045448177E+00  0.88000000000E+00 0.  1.
        -11    1    4    4    0    0  0.18759513888E-01 -0.34933468929E-01 -0.37602247658E-01  0.54648483626E-01  0.51100000000E-03 0. -1.
         11    1    4    4    0    0  0.12337117862E-01 -0.40851753355E-01 -0.61773837671E-01  0.75082210749E-01  0.51100000000E-03 0.  1.
</event>
<event>
 8    1  0.1143506E+005  0.1043930E+01  0.7957747E-01            NaN
         13   -1    0    0    0    0  0.00000000000E+00  0.00000000000E+00  0.74505805969E-08  0.10566000000E+00  0.10566000000E+00 0. -1.
     999900   -1    0    0    0    0 -0.00000000000E+00 -0.00000000000E+00 -0.74505805969E-08  0.93827000000E+00  0.93827000000E+00 0.  1.
     999902    2    1    2    0    0  0.12987880927E-01 -0.20529251367E-01 -0.63304783973E-02  0.10188260129E+01  0.10185166834E+01 0.  0.
     999903    2    3    3    0    0  0.18083835818E-01  0.10432492679E+00  0.66999123826E-01  0.12697862396E+00  0.20590601747E-01 0.  0.
         14    1    1    2    0    0 -0.12987880927E-01  0.20529251367E-01  0.63304783973E-02  0.25103987122E-01  0.00000000000E+00 0. -1.
     999901    1    3    3    0    0 -0.50959548910E-02 -0.12485417816E+00 -0.73329602223E-01  0.89184738892E+00  0.88000000000E+00 0.  1.
        -11    1    4    4    0    0  0.22328922056E-01  0.89735695368E-01  0.54842277108E-01  0.10751284697E+00  0.51100000000E-03 0.  1.
         11    1    4    4    0    0 -0.42450862378E-02  0.14589231427E-01  0.12156846718E-01  0.19465776992E-01  0.51100000000E-03 0. -1.
</event>
<event>
 8    1  0.1143506E+005  0.1043930E+01  0.7957747E-01            NaN
         13   -1    0    0    0    0  0.00000000000E+00  0.00000000000E+00  0.74505805969E-08  0.10566000000E+00  0.10566000000E+00 0.  1.
     999900   -1    0    0    0    0 -0.00000000000E+00 -0.00000000000E+00 -0.74505805969E-08  0.93827000000E+00  0.93827000000E+00 0.  1.
     999902    2    1    2    0    0  0.56296474347E-02  0.23601237865E-01 -0.17295592238E-02  0.10196050594E+01  0.10193148554E+01 0.  0.
     999903    2    3    3    0    0 -0.76619194398E-01 -0.71992838724E-01 -0.70490244171E-01  0.12795987704E+00  0.18745288267E-01 0.  0.
         14    1    1    2    0    0 -0.56296474347E-02 -0.23601237865E-01  0.17295592238E-02  0.24324940578E-01  0.00000000000E+00 0. -1.
     999901    1    3    3    0    0  0.82248841833E-01  0.95594076589E-01  0.68760684947E-01  0.89164518238E+00  0.88000000000E+00 0. -1.
        -11    1    4    4    0    0 -0.41731323522E-01 -0.30278258110E-01 -0.42371325576E-01  0.66737295639E-01  0.51100000000E-03 0.  1.
         11    1    4    4    0    0 -0.34887870876E-01 -0.41714580614E-01 -0.28118918595E-01  0.61222581406E-01  0.51100000000E-03 0. -1.
</event>
<event>
 8    1  0.1143506E+005  0.1043930E+01  0.7957747E-01            NaN
         13   -1    0    0    0    0  0.00000000000E+00  0.00000000000E+00  0.74505805969E-08  0.10566000000E+00  0.10566000000E+00 0. -1.
     999900   -1    0    0    0    0 -0.00000000000E+00 -0.00000000000E+00 -0.74505805969E-08  0.93827000000E+00  0.93827000000E+00 0.  1.
     999902    2    1    2    0    0  0.20738513487E-01 -0.78301921137E-02  0.95045716039E-02  0.10198108223E+01  0.10195255655E+01 0.  0.
     999903    2    3    3    0    0  0.11332579187E+00 -0.31927966823E-01 -0.56270016104E-01  0.13218511109E+00  0.21082189450E-01 0.  0.
         14    1    1    2    0    0 -0.20738513487E-01  0.78301921137E-02 -0.95045716039E-02  0.24119177672E-01  0.00000000000E+00 0.  1.
     999901    1    3    3    0    0 -0.92587278386E-01  0.24097774709E-01  0.65774587708E-01  0.88762571124E+00  0.88000000000E+00 0. -1.
        -11    1    4    4    0    0  0.86611430671E-01 -0.14789076499E-01 -0.41369442500E-01  0.97118219713E-01  0.51100000000E-03 0.  1.
         11    1    4    4    0    0  0.26714361203E-01 -0.17138890324E-01 -0.14900573604E-01  0.35066891376E-01  0.51100000000E-03 0. -1.
</event>
<event>
 7    1  0.2118427E+005  0.1043930E+01  0.7957747E-01            NaN
         13   -1    0    0    0    0  0.00000000000E+00  0.00000000000E+00  0.74505805969E-08  0.10566000000E+00  0.10566000000E+00 0. -1.
     999900   -1    0    0    0    0 -0.00000000000E+00 -0.00000000000E+00 -0.74505805969E-08  0.93827000000E+00  0.93827000000E+00 0. -1.
     999903    2    1    2    0    0  0.78371028734E-01  0.64435130390E-02  0.43038056302E-01  0.91821449916E-01  0.19883846947E-01 0.  0.
         14    1    1    2    0    0  0.39496701975E-02 -0.45723715772E-01 -0.49322416253E-01  0.67371795462E-01  0.00000000000E+00 0.  1.
     999901    1    1    2    0    0 -0.82320698931E-01  0.39280202733E-01  0.62843599512E-02  0.88473675462E+00  0.88000000000E+00 0.  1.
        -11    1    3    3    0    0  0.50507606875E-01  0.85185223365E-02  0.37112430971E-01  0.63254859329E-01  0.51100000000E-03 0. -1.
         11    1    3    3    0    0  0.27863421859E-01 -0.20750092975E-02  0.59256253305E-02  0.28566590588E-01  0.51100000000E-03 0.  1.
</event>
<event>
 8    1  0.1143506E+005  0.1043930E+01  0.7957747E-01            NaN
         13   -1    0    0    0    0  0.00000000000E+00  0.00000000000E+00  0.74505805969E-08  0.10566000000E+00  0.10566000000E+00 0.  1.
     999900   -1    0    0    0    0 -0.00000000000E+00 -0.00000000000E+00 -0.74505805969E-08  0.93827000000E+00  0.93827000000E+00 0. -1.
     999902    2    1    2    0    0  0.22388256429E-01  0.18810071591E-02 -0.80304843324E-02  0.10200708112E+01  0.10197917429E+01 0.  0.
     999903    2    3    3    0    0  0.25311072524E-01 -0.89021134131E-01 -0.91163823342E-01  0.13148604074E+00  0.20305750665E-01 0.  0.
         14    1    1    2    0    0 -0.22388256429E-01 -0.18810071591E-02  0.80304843324E-02  0.23859188848E-01  0.00000000000E+00 0.  1.
     999901    1    3    3    0    0 -0.29228160948E-02  0.90902141291E-01  0.83133339010E-01  0.88858477041E+00  0.88000000000E+00 0.  1.
        -11    1    4    4    0    0  0.72484501407E-02 -0.55496873047E-01 -0.61935863534E-01  0.83479070791E-01  0.51100000000E-03 0.  1.
         11    1    4    4    0    0  0.18062622383E-01 -0.33524261085E-01 -0.29227959809E-01  0.48006969954E-01  0.51100000000E-03 0. -1.
</event>
<event>
 8    1  0.1143506E+005  0.1043930E+01  0.7957747E-01            NaN
         13   -1    0    0    0    0  0.00000000000E+00  0.00000000000E+00  0.74505805969E-08  0.10566000000E+00  0.10566000000E+00 0.  1.
     999900   -1    0    0    0    0 -0.00000000000E+00 -0.00000000000E+00 -0.74505805969E-08  0.93827000000E+00  0.93827000000E+00 0.  1.
     999902    2    1    2    0    0  0.25233341482E-02 -0.16711247619E-01 -0.11913022977E-01  0.10232526421E+01  0.10230437021E+01 0.  0.
     999903    2    3    3    0    0  0.38415894311E-01 -0.12677481670E+00 -0.21082253403E-01  0.13562302348E+00  0.20037664651E-01 0.  0.
         14    1    1    2    0    0 -0.25233341482E-02  0.16711247619E-01  0.11913022977E-01  0.20677357874E-01  0.00000000000E+00 0. -1.
     999901    1    3    3    0    0 -0.35892560163E-01  0.11006356908E+00  0.91692304255E-02  0.88762961865E+00  0.88000000000E+00 0. -1.
        -11    1    4    4    0    0  0.71256060852E-02 -0.57564218251E-01 -0.10016940121E-01  0.58864366941E-01  0.51100000000E-03 0. -1.
         11    1    4    4    0    0  0.31290288225E-01 -0.69210598446E-01 -0.11065313282E-01  0.76758656538E-01  0.51100000000E-03 0.  1.
</event>
<event>
 8    1  0.1143506E+005  0.1043930E+01  0.7957747E-01            NaN
         13   -1    0    0    0    0  0.00000000000E+00  0.00000000000E+00  0.74505805969E-08  0.10566000000E+00  0.10566000000E+00 0.  1.
     999900   -1    0    0    0    0 -0.00000000000E+00 -0.00000000000E+00 -0.74505805969E-08  0.93827000000E+00  0.93827000000E+00 0. -1.
     999902    2    1    2    0    0  0.12809230829E-01  0.98103010398E-02 -0.17967782942E-01  0.10197813018E+01  0.10194953378E+01 0.  0.
     999903    2    3    3    0    0 -0.24263503388E-01  0.33381534396E-01  0.11968037339E+00  0.12799825329E+00  0.18897529869E-01 0.  0.
         14    1    1    2    0    0 -0.12809230829E-01 -0.98103010398E-02  0.17967782942E-01  0.24148698200E-01  0.00000000000E+00 0.  1.
     999901    1    3    3    0    0  0.37072734217E-01 -0.23571233356E-01 -0.13764815633E+00  0.89178304851E+00  0.88000000000E+00 0. -1.
        -11    1    4    4    0    0 -0.19567055065E-03  0.92929465769E-02  0.44513764881E-01  0.45476736118E-01  0.51100000000E-03 0. -1.
         11    1    4    4    0    0 -0.24067832837E-01  0.24088587819E-01  0.75166608511E-01  0.82521517174E-01  0.51100000000E-03 0.  1.
</event>
<event>
 7    1  0.1143506E+005  0.1043930E+01  0.7957747E-01            NaN
         13   -1    0    0    0    0  0.00000000000E+00  0.00000000000E+00  0.74505805969E-08  0.10566000000E+00  0.10566000000E+00 0. -1.
     999900   -1    0    0    0    0 -0.00000000000E+00 -0.00000000000E+00 -0.74505805969E-08  0.93827000000E+00  0.93827000000E+00 0.  1.
     999903    2    1    2    0    0  0.69256968591E-01  0.73009422227E-01 -0.29375835904E-01  0.10640106520E+00  0.18202843423E-01 0.  0.
         14    1    1    2    0    0 -0.28138670118E-01 -0.42701946295E-01  0.22878246492E-01  0.56023701555E-01  0.00000000000E+00 0. -1.
     999901    1    1    2    0    0 -0.41118298472E-01 -0.30307475932E-01  0.64975894124E-02  0.88150523324E+00  0.88000000000E+00 0. -1.
        -11    1    3    3    0    0  0.22057337272E-01  0.34753763308E-01 -0.16148135508E-01  0.44219606432E-01  0.51100000000E-03 0.  1.
         11    1    3    3    0    0  0.47199631319E-01  0.38255658919E-01 -0.13227700396E-01  0.62181458770E-01  0.51100000000E-03 0. -1.
</event>
<event>
 8    1  0.1143506E+005  0.1043930E+01  0.7957747E-01            NaN
         13   -1    0    0    0    0  0.00000000000E+00  0.00000000000E+00  0.74505805969E-08  0.10566000000E+00  0.10566000000E+00 0.  1.
     999900   -1    0    0    0    0 -0.00000000000E+00 -0.00000000000E+00 -0.74505805969E-08  0.93827000000E+00  0.93827000000E+00 0.  1.
     999902    2    1    2    0    0  0.14501746416E-02 -0.89223183231E-02  0.21260861433E-01  0.10208272945E+01  0.10205658383E+01 0.  0.
     999903    2    3    3    0    0 -0.63049178630E-01 -0.50798132781E-02  0.11579579887E+00  0.13340868655E+00  0.19702973921E-01 0.  0.
         14    1    1    2    0    0 -0.14501746416E-02  0.89223183231E-02 -0.21260861433E-01  0.23102705461E-01  0.00000000000E+00 0. -1.
     999901    1    3    3    0    0  0.64499353271E-01 -0.38425050450E-02 -0.94534937436E-01  0.88741860799E+00  0.88000000000E+00 0.  1.
        -11    1    4    4    0    0 -0.55743576282E-01  0.81768506462E-03  0.89097626618E-01  0.10510310697E+00  0.51100000000E-03 0. -1.
         11    1    4    4    0    0 -0.73056023476E-02 -0.58974983427E-02  0.26698172250E-01  0.28305579572E-01  0.51100000000E-03 0.  1.
</event>
<event>
 7    1  0.1143506E+005  0.1043930E+01  0.7957747E-01            NaN
         13   -1    0    0    0    0  0.00000000000E+00  0.00000000000E+00  0.74505805969E-08  0.10566000000E+00  0.10566000000E+00 0. -1.
     999900   -1    0    0    0    0 -0.00000000000E+00 -0.00000000000E+00 -0.74505805969E-08  0.93827000000E+00  0.93827000000E+00 0. -1.
     999903    2    1    2    0    0 -0.68560900640E-01 -0.42118101149E-01 -0.37505869354E-01  0.90872495368E-01  0.19405891827E-01 0.  0.
         14    1    1    2    0    0 -0.33562052549E-01 -0.23187886726E-02 -0.51573652859E-01  0.61576211489E-01  0.00000000000E+00 0.  1.
     999901    1    1    2    0    0  0.10212295319E+00  0.44436889822E-01  0.89079522213E-01  0.89148129314E+00  0.88000000000E+00 0.  1.
        -11    1    3    3    0    0 -0.56323610457E-01 -0.26301548094E-01 -0.32946104759E-01  0.70355010247E-01  0.51100000000E-03 0. -1.
         11    1    3    3    0    0 -0.12237290183E-01 -0.15816553055E-01 -0.45597645949E-02  0.20517485122E-01  0.51100000000E-03 0.  1.
</event>
<event>
 8    1  0.1143506E+005  0.1043930E+01  0.7957747E-01            NaN
         13   -1    0    0    0    0  0.00000000000E+00  0.00000000000E+00  0.74505805969E-08  0.10566000000E+00  0.10566000000E+00 0.  1.
     999900   -1    0    0    0    0 -0.00000000000E+00 -0.00000000000E+00 -0.74505805969E-08  0.93827000000E+00  0.93827000000E+00 0. -1.
     999902    2    1    2    0    0 -0.16810910656E-01  0.19289885813E-01  0.87790736568E-02  0.10168785944E+01  0.10165187146E+01 0.  0.
     999903    2    3    3    0    0 -0.91752531960E-02  0.90618194421E-01  0.90879700849E-01  0.13015059558E+00  0.19601404833E-01 0.  0.
         14    1    1    2    0    0  0.16810910656E-01 -0.19289885813E-01 -0.87790736568E-02  0.27051405620E-01  0.00000000000E+00 0. -1.
     999901    1    3    3    0    0 -0.76356574600E-02 -0.71328308608E-01 -0.82100627192E-01  0.88672799880E+00  0.88000000000E+00 0. -1.
        -11    1    4    4    0    0 -0.13995751470E-01  0.82305136107E-01  0.80075840376E-01  0.11568240066E+00  0.51100000000E-03 0.  1.
         11    1    4    4    0    0  0.48204982741E-02  0.83130583141E-02  0.10803860473E-01  0.14468194921E-01  0.51100000000E-03 0. -1.
</event>
<event>
 8    1  0.1143506E+005  0.1043930E+01  0.7957747E-01            NaN
         13   -1    0    0    0    0  0.00000000000E+00  0.00000000000E+00  0.74505805969E-08  0.10566000000E+00  0.10566000000E+00 0.  1.
     999900   -1    0    0    0    0 -0.00000000000E+00 -0.00000000000E+00 -0.74505805969E-08  0.93827000000E+00  0.93827000000E+00 0.  1.
     999902    2    1    2    0    0  0.56074834023E-03  0.54422896123E-02 -0.23320942068E-01  0.10199758919E+01  0.10196945723E+01 0.  0.
     999903    2    3    3    0    0 -0.12808933412E-01 -0.38400774819E-01 -0.12510045198E+00  0.13292457924E+00  0.19496984361E-01 0.  0.
         14    1    1    2    0    0 -0.56074834023E-03 -0.54422896123E-02  0.23320942068E-01  0.23954108079E-01  0.00000000000E+00 0.  1.
     999901    1    3    3    0    0  0.13369681752E-01  0.43843064432E-01  0.10177950991E+00  0.88705131268E+00  0.88000000000E+00 0. -1.
        -11    1    4    4    0    0 -0.43973297592E-02 -0.17288368921E-01 -0.84776347229E-01  0.86634371813E-01  0.51100000000E-03 0.  1.
         11    1    4    4    0    0 -0.84116036527E-02 -0.21112405898E-01 -0.40324104750E-01  0.46290207428E-01  0.51100000000E-03 0. -1.
</event>
<event>
 8    1  0.1143506E+005  0.1043930E+01  0.7957747E-01            NaN
         13   -1    0    0    0    0  0.00000000000E+00  0.00000000000E+00  0.74505805969E-08  0.10566000000E+00  0.10566000000E+00 0.  1.
     999900   -1    0    0    0    0 -0.00000000000E+00 -0.00000000000E+00 -0.74505805969E-08  0.93827000000E+00  0.93827000000E+00 0.  1.
     999902    2    1    2    0    0 -0.22968322573E-01 -0.45321415096E-02 -0.77064751889E-02  0.10192830142E+01  0.10189849798E+01 0.  0.
     999903    2    3    3    0    0  0.77962550639E-01 -0.50231774713E-01  0.85151560836E-01  0.12748813169E+00  0.20026105862E-01 0.  0.
         14    1    1    2    0    0  0.22968322573E-01  0.45321415096E-02  0.77064751889E-02  0.24646985786E-01  0.00000000000E+00 0. -1.
     999901    1    3    3    0    0 -0.10093087321E+00  0.45699633203E-01 -0.92858036024E-01  0.89179488252E+00  0.88000000000E+00 0.  1.
        -11    1    4    4    0    0  0.69824185826E-01 -0.37178527230E-01  0.66810775703E-01  0.10354516253E+00  0.51100000000E-03 0. -1.
         11    1    4    4    0    0  0.81383648129E-02 -0.13053247483E-01  0.18340785132E-01  0.23942969155E-01  0.51100000000E-03 0.  1.
</event>
<event>
 8    1  0.1174871E+005  0.1043930E+01  0.7957747E-01            NaN
         13   -1    0    0    0    0  0.00000000000E+00  0.00000000000E+00  0.74505805969E-08  0.10566000000E+00  0.10566000000E+00 0. -1.
     999900   -1    0    0    0    0 -0.00000000000E+00 -0.00000000000E+00 -0.74505805969E-08  0.93827000000E+00  0.93827000000E+00 0. -1.
     999902    2    1    2    0    0 -0.19981095761E-01 -0.13456840029E-01 -0.12995848350E-02  0.10198049165E+01  0.10195195183E+01 0.  0.
     999903    2    3    3    0    0  0.12381521934E+00  0.22274895424E-01 -0.47600383604E-02  0.12741144284E+00  0.19612197627E-01 0.  0.
         14    1    1    2    0    0  0.19981095761E-01  0.13456840029E-01  0.12995848350E-02  0.24125083463E-01  0.00000000000E+00 0. -1.
     999901    1    3    3    0    0 -0.14379631510E+00 -0.35731735453E-01  0.34604535254E-02  0.89239347369E+00  0.88000000000E+00 0. -1.
        -11    1    4    4    0    0  0.59515564583E-01  0.20656542950E-01 -0.23478227401E-02  0.63044179643E-01  0.51100000000E-03 0. -1.
         11    1    4    4    0    0  0.64299654756E-01  0.16183524740E-02 -0.24122156202E-02  0.64367263199E-01  0.51100000000E-03 0.  1.
</event>
<event>
 8    1  0.1143506E+005  0.1043930E+01  0.7957747E-01            NaN
         13   -1    0    0    0    0  0.00000000000E+00  0.00000000000E+00  0.74505805969E-08  0.10566000000E+00  0.10566000000E+00 0. -1.
     999900   -1    0    0    0    0 -0.00000000000E+00 -0.00000000000E+00 -0.74505805969E-08  0.93827000000E+00  0.93827000000E+00 0.  1.
     999902    2    1    2    0    0  0.37188587167E-02 -0.87211225387E-02  0.20951381313E-01  0.10209332988E+01  0.10206742635E+01 0.  0.
     999903    2    3    3    0    0  0.10958402797E+00  0.67925483300E-01 -0.87349342582E-02  0.13078532591E+00  0.20148745132E-01 0.  0.
         14    1    1    2    0    0 -0.37188587167E-02  0.87211225387E-02 -0.20951381313E-01  0.22996701229E-01  0.00000000000E+00 0.  1.
     999901    1    3    3    0    0 -0.10586516925E+00 -0.76646605839E-01  0.29686315571E-01  0.89014797286E+00  0.88000000000E+00 0.  1.
        -11    1    4    4    0    0  0.29668626869E-01  0.11212086470E-01  0.39756856232E-02  0.31968820755E-01  0.51100000000E-03 0. -1.
         11    1    4    4    0    0  0.79915401102E-01  0.56713396830E-01 -0.12710619881E-01  0.98816505160E-01  0.51100000000E-03 0.  1.
</event>
<event>
 8    1  0.1143506E+005  0.1043930E+01  0.7957747E-01            NaN
         13   -1    0    0    0    0  0.00000000000E+00  0.00000000000E+00  0.74505805969E-08  0.10566000000E+00  0.10566000000E+00 0. -1.
     999900   -1    0    0    0    0 -0.00000000000E+00 -0.00000000000E+00 -0.74505805969E-08  0.93827000000E+00  0.93827000000E+00 0.  1.
     999902    2    1    2    0    0 -0.95603573836E-03  0.97007906198E-02  0.21097600964E-01  0.10206893436E+01  0.10204247194E+01 0.  0.
     999903    2    3    3    0    0  0.11744932279E+00  0.76100866325E-02 -0.51821535451E-01  0.12976768576E+00  0.17375957177E-01 0.  0.
         14    1    1    2    0    0  0.95603573836E-03 -0.97007906198E-02 -0.21097600964E-01  0.23240656390E-01  0.00000000000E+00 0.  1.
     999901    1    3    3    0    0 -0.11840535853E+00  0.20907039873E-02  0.72919136416E-01  0.89092165785E+00  0.88000000000E+00 0.  1.
        -11    1    4    4    0    0  0.47142572294E-01 -0.11107907030E-02 -0.12709097530E-01  0.48840948593E-01  0.51100000000E-03 0. -1.
         11    1    4    4    0    0  0.70306750499E-01  0.87208773355E-02 -0.39112437921E-01  0.80926737166E-01  0.51100000000E-03 0.  1.
</event>
<event>
 8    1  0.1143506E+005  0.1043930E+01  0.7957747E-01            NaN
         13   -1    0    0    0    0  0.00000000000E+00  0.00000000000E+00  0.74505805969E-08  0.10566000000E+00  0.10566000000E+00 0. -1.
     999900   -1    0    0    0    0 -0.00000000000E+00 -0.00000000000E+00 -0.74505805969E-08  0.93827000000E+00  0.93827000000E+00 0.  1.
     999902    2    1    2    0    0 -0.97508866925E-02 -0.10221078578E-01  0.19324059894E-01  0.10199932181E+01  0.10197123101E+01 0.  0.
     999903    2    3    3    0    0 -0.27425142512E-01 -0.42934714253E-01  0.12143178365E+00  0.13330919964E+00  0.20739732363E-01 0.  0.
         14    1    1    2    0    0  0.97508866925E-02  0.10221078578E-01 -0.19324059894E-01  0.23936781935E-01  0.00000000000E+00 0.  1.
     999901    1    3    3    0    0  0.17674255819E-01  0.32713635674E-01 -0.10210772376E+00  0.88668401842E+00  0.88000000000E+00 0.  1.
        -11    1    4    4    0    0 -0.30703485036E-02 -0.23592877364E-01  0.48610367151E-01  0.54122821598E-01  0.51100000000E-03 0.  1.
         11    1    4    4    0    0 -0.24354794008E-01 -0.19341836889E-01  0.72821416501E-01  0.79186378043E-01  0.51100000000E-03 0. -1.
</event>
<event>
 8    1  0.1143506E+005  0.1043930E+01  0.7957747E-01            NaN
         13   -1    0    0    0    0  0.00000000000E+00  0.00000000000E+00  0.74505805969E-08  0.10566000000E+00  0.10566000000E+00 0. -1.
     999900   -1    0    0    0    0 -0.00000000000E+00 -0.00000000000E+00 -0.74505805969E-08  0.93827000000E+00  0.93827000000E+00 0. -1.
     999902    2    1    2    0    0  0.66931215004E-02  0.20792880971E-01 -0.98301337204E-02  0.10199764344E+01  0.10196951277E+01 0.  0.
     999903    2    3    3    0    0  0.24772548489E-01  0.92304829712E-01 -0.90598927016E-01  0.13320452325E+00  0.20035435865E-01 0.  0.
         14    1    1    2    0    0 -0.66931215004E-02 -0.20792880971E-01  0.98301337204E-02  0.23953565569E-01  0.00000000000E+00 0. -1.
     999901    1    3    3    0    0 -0.18079426989E-01 -0.71511948741E-01  0.80768793296E-01  0.88677191118E+00  0.88000000000E+00 0. -1.
        -11    1    4    4    0    0  0.24792128217E-01  0.78035410738E-01 -0.67819236054E-01  0.10631972936E+00  0.51100000000E-03 0.  1.
         11    1    4    4    0    0 -0.19579727074E-04  0.14269418974E-01 -0.22779690962E-01  0.26884793891E-01  0.51100000000E-03 0. -1.
</event>
<event>
 8    1  0.1143506E+005  0.1043930E+01  0.7957747E-01            NaN
         13   -1    0    0    0    0  0.00000000000E+00  0.00000000000E+00  0.74505805969E-08  0.10566000000E+00  0.10566000000E+00 0.  1.
     999900   -1    0    0    0    0 -0.00000000000E+00 -0.00000000000E+00 -0.74505805969E-08  0.93827000000E+00  0.93827000000E+00 0.  1.
     999902    2    1    2    0    0 -0.11494573997E-01 -0.16666316450E-01  0.10489370317E-01  0.10211282846E+01  0.10208736726E+01 0.  0.
     999903    2    3    3    0    0  0.11746573972E+00 -0.51202553632E-01  0.15429543920E-01  0.13104518763E+00  0.22690722104E-01 0.  0.
         14    1    1    2    0    0  0.11494573997E-01  0.16666316450E-01 -0.10489370317E-01  0.22801715397E-01  0.00000000000E+00 0. -1.
     999901    1    3    3    0    0 -0.12896031372E+00  0.34536237182E-01 -0.49401736032E-02  0.89008309697E+00  0.88000000000E+00 0.  1.
        -11    1    4    4    0    0  0.94682629040E-01 -0.43006538119E-01  0.21239378068E-01  0.10614016612E+00  0.51100000000E-03 0.  1.
         11    1    4    4    0    0  0.22783110683E-01 -0.81960155131E-02 -0.58098341480E-02  0.24905021512E-01  0.51100000000E-03 0. -1.
</event>
<event>
 8    1  0.1143506E+005  0.1043930E+01  0.7957747E-01            NaN
         13   -1    0    0    0    0  0.00000000000E+00  0.00000000000E+00  0.74505805969E-08  0.10566000000E+00  0.10566000000E+00 0. -1.
     999900   -1    0    0    0    0 -0.00000000000E+00 -0.00000000000E+00 -0.74505805969E-08  0.93827000000E+00  0.93827000000E+00 0.  1.
     999902    2    1    2    0    0  0.35507619095E-02  0.19612464842E-01  0.87753204588E-02  0.10221524212E+01  0.10219204026E+01 0.  0.
     999903    2    3    3    0    0 -0.84202666914E-01  0.90142180946E-01  0.48557787065E-01  0.13408837526E+00  0.20152711819E-01 0.  0.
         14    1    1    2    0    0 -0.35507619095E-02 -0.19612464842E-01 -0.87753204588E-02  0.21777578756E-01  0.00000000000E+00 0.  1.
     999901    1    3    3    0    0  0.87753428823E-01 -0.70529716105E-01 -0.39782466606E-01  0.88806404599E+00  0.88000000000E+00 0. -1.
        -11    1    4    4    0    0 -0.67012038522E-01  0.75174706344E-01  0.31189438497E-01  0.10542718803E+00  0.51100000000E-03 0. -1.
         11    1    4    4    0    0 -0.17190628391E-01  0.14967474602E-01  0.17368348568E-01  0.28661187230E-01  0.51100000000E-03 0.  1.
</event>
<event>
 8    1  0.1143506E+005  0.1043930E+01  0.7957747E-01            NaN
         13   -1    0    0    0    0  0.00000000000E+00  0.00000000000E+00  0.74505805969E-08  0.10566000000E+00  0.10566000000E+00 0. -1.
     999900   -1    0    0    0    0 -0.00000000000E+00 -0.00000000000E+00 -0.74505805969E-08  0.93827000000E+00  0.93827000000E+00 0.  1.
     999902    2    1    2    0    0  0.15514835300E-01  0.15257452416E-01  0.86307208912E-03  0.10221528362E+01  0.10219208266E+01 0.  0.
     999903    2    3    3    0    0  0.93463718604E-01 -0.62520400845E-01  0.67329153705E-01  0.13280298219E+00  0.21427783909E-01 0.  0.
         14    1    1    2    0    0 -0.15514835300E-01 -0.15257452416E-01 -0.86307208912E-03  0.21777163774E-01  0.00000000000E+00 0. -1.
     999901    1    3    3    0    0 -0.77948883304E-01  0.77777853260E-01 -0.66466081616E-01  0.88934985403E+00  0.88000000000E+00 0. -1.
        -11    1    4    4    0    0  0.32584154616E-01 -0.19326384209E-01  0.34548090403E-01  0.51274437395E-01  0.51100000000E-03 0. -1.
         11    1    4    4    0    0  0.60879563988E-01 -0.43194016635E-01  0.32781063302E-01  0.81528544797E-01  0.51100000000E-03 0.  1.
</event>
<event>
 8    1  0.1143506E+005  0.1043930E+01  0.7957747E-01            NaN
         13   -1    0    0    0    0  0.00000000000E+00  0.00000000000E+00  0.74505805969E-08  0.10566000000E+00  0.10566000000E+00 0. -1.
     999900   -1    0    0    0    0 -0.00000000000E+00 -0.00000000000E+00 -0.74505805969E-08  0.93827000000E+00  0.93827000000E+00 0.  1.
     999902    2    1    2    0    0  0.14255751960E-01  0.15422615614E-01  0.11212218930E-01  0.10201224930E+01  0.10198446467E+01 0.  0.
     999903    2    3    3    0    0  0.18482062359E-01 -0.16161377163E-02  0.12923516520E+00  0.13206979374E+00  0.19912407269E-01 0.  0.
         14    1    1    2    0    0 -0.14255751960E-01 -0.15422615614E-01 -0.11212218930E-01  0.23807507002E-01  0.00000000000E+00 0.  1.
     999901    1    3    3    0    0 -0.42263103994E-02  0.17038753330E-01 -0.11802294627E+00  0.88805269926E+00  0.88000000000E+00 0.  1.
        -11    1    4    4    0    0  0.87005596244E-02  0.19854193331E-02  0.10839216493E+00  0.10876012213E+00  0.51100000000E-03 0.  1.
         11    1    4    4    0    0  0.97815027347E-02 -0.36015570493E-02  0.20843000275E-01  0.23309671606E-01  0.51100000000E-03 0. -1.
</event>
<event>
 8    1  0.1143506E+005  0.1043930E+01  0.7957747E-01            NaN
         13   -1    0    0    0    0  0.00000000000E+00  0.00000000000E+00  0.74505805969E-08  0.10566000000E+00  0.10566000000E+00 0. -1.
     999900   -1    0    0    0    0 -0.00000000000E+00 -0.00000000000E+00 -0.74505805969E-08  0.93827000000E+00  0.93827000000E+00 0. -1.
     999902    2    1    2    0    0  0.17522196869E-01  0.15883409961E-01  0.78228065830E-05  0.10202802610E+01  0.10200061278E+01 0.  0.
     999903    2    3    3    0    0 -0.26372370254E-01 -0.11886370987E+00 -0.35051282294E-01  0.12825298550E+00  0.19903579169E-01 0.  0.
         14    1    1    2    0    0 -0.17522196869E-01 -0.15883409961E-01 -0.78228065830E-05  0.23649739032E-01  0.00000000000E+00 0. -1.
     999901    1    3    3    0    0  0.43894567123E-01  0.13474711983E+00  0.35059105101E-01  0.89202727547E+00  0.88000000000E+00 0.  1.
        -11    1    4    4    0    0 -0.29501658323E-01 -0.10374941372E+00 -0.32010059272E-01  0.11251308238E+00  0.51100000000E-03 0.  1.
         11    1    4    4    0    0  0.31292880693E-02 -0.15114296150E-01 -0.30412230228E-02  0.15739903126E-01  0.51100000000E-03 0. -1.
</event>
<event>
 8    1  0.1143506E+005  0.1043930E+01  0.7957747E-01            NaN
         13   -1    0    0    0    0  0.00000000000E+00  0.00000000000E+00  0.74505805969E-08  0.10566000000E+00  0.10566000000E+00 0. -1.
     999900   -1    0    0    0    0 -0.00000000000E+00 -0.00000000000E+00 -0.74505805969E-08  0.93827000000E+00  0.93827000000E+00 0.  1.
     999902    2    1    2    0    0  0.75809931233E-02  0.21234835136E-01 -0.94587803186E-02  0.10194788609E+01  0.10191856011E+01 0.  0.
     999903    2    3    3    0    0 -0.90123260354E-01  0.89824238946E-01  0.22809561013E-01  0.13083277084E+00  0.20157923818E-01 0.  0.
         14    1    1    2    0    0 -0.75809931233E-02 -0.21234835136E-01  0.94587803186E-02  0.24451139137E-01  0.00000000000E+00 0. -1.
     999901    1    3    3    0    0  0.97704253477E-01 -0.68589403811E-01 -0.32268341332E-01  0.88864609002E+00  0.88000000000E+00 0. -1.
        -11    1    4    4    0    0 -0.11828124602E-01  0.22366553954E-01  0.72082554956E-02  0.26313253992E-01  0.51100000000E-03 0.  1.
         11    1    4    4    0    0 -0.78295135753E-01  0.67457684993E-01  0.15601305518E-01  0.10451951685E+00  0.51100000000E-03 0. -1.
</event>
<event>
 8    1  0.1143506E+005  0.1043930E+01  0.7957747E-01            NaN
         13   -1    0    0    0    0  0.00000000000E+00  0.00000000000E+00  0.74505805969E-08  0.10566000000E+00  0.10566000000E+00 0. -1.
     999900   -1    0    0    0    0 -0.00000000000E+00 -0.00000000000E+00 -0.74505805969E-08  0.93827000000E+00  0.93827000000E+00 0.  1.
     999902    2    1    2    0    0  0.99873056667E-02  0.11994247449E-01  0.13356775859E-01  0.10233870765E+01  0.10231808719E+01 0.  0.
     999903    2    3    3    0    0 -0.94017430432E-01 -0.29797435901E-01  0.87369323851E-01  0.13319530656E+00  0.19504525851E-01 0.  0.
         14    1    1    2    0    0 -0.99873056667E-02 -0.11994247449E-01 -0.13356775859E-01  0.20542923543E-01  0.00000000000E+00 0.  1.
     999901    1    3    3    0    0  0.10400473610E+00  0.41791683351E-01 -0.74012547993E-01  0.89019176989E+00  0.88000000000E+00 0.  1.
        -11    1    4    4    0    0 -0.30373178452E-01 -0.11477496049E-01  0.17361060478E-01  0.36822960592E-01  0.51100000000E-03 0. -1.
         11    1    4    4    0    0 -0.63644251980E-01 -0.18319939852E-01  0.70008263374E-01  0.96372345970E-01  0.51100000000E-03 0.  1.
</event>
<event>
 8    1  0.1143506E+005  0.1043930E+01  0.7957747E-01            NaN
         13   -1    0    0    0    0  0.00000000000E+00  0.00000000000E+00  0.74505805969E-08  0.10566000000E+00  0.10566000000E+00 0. -1.
     999900   -1    0    0    0    0 -0.00000000000E+00 -0.00000000000E+00 -0.74505805969E-08  0.93827000000E+00  0.93827000000E+00 0. -1.
     999902    2    1    2    0    0 -0.23917390225E-01 -0.84413730230E-02 -0.12479020632E-01  0.10156629823E+01  0.10152695550E+01 0.  0.
     999903    2    3    3    0    0  0.56039614126E-01  0.10726227979E+00 -0.19738145149E-01  0.12446538765E+00  0.21363598276E-01 0.  0.
         14    1    1    2    0    0  0.23917390225E-01  0.84413730230E-02  0.12479020632E-01  0.28267017699E-01  0.00000000000E+00 0.  1.
     999901    1    3    3    0    0 -0.79957004350E-01 -0.11570365282E+00  0.72591245173E-02  0.89119759465E+00  0.88000000000E+00 0.  1.
        -11    1    4    4    0    0  0.42603922594E-01  0.88492437272E-01 -0.79369283077E-02  0.98535585586E-01  0.51100000000E-03 0.  1.
         11    1    4    4    0    0  0.13435691532E-01  0.18769842522E-01 -0.11801216841E-01  0.25929802066E-01  0.51100000000E-03 0. -1.
</event>
<event>
 8    1  0.1143506E+005  0.1043930E+01  0.7957747E-01            NaN
         13   -1    0    0    0    0  0.00000000000E+00  0.00000000000E+00  0.74505805969E-08  0.10566000000E+00  0.10566000000E+00 0.  1.
     999900   -1    0    0    0    0 -0.00000000000E+00 -0.00000000000E+00 -0.74505805969E-08  0.93827000000E+00  0.93827000000E+00 0.  1.
     999902    2    1    2    0    0  0.40224039003E-02 -0.21564172942E-01  0.80316645385E-02  0.10205697576E+01  0.10203023715E+01 0.  0.
     999903    2    3    3    0    0 -0.84340836259E-01 -0.10035941862E+00  0.13061269045E-02  0.13261593800E+00  0.19997286794E-01 0.  0.
         14    1    1    2    0    0 -0.40224039003E-02  0.21564172942E-01 -0.80316645385E-02  0.23360242359E-01  0.00000000000E+00 0. -1.
     999901    1    3    3    0    0  0.88363240160E-01  0.78795245674E-01  0.67255376340E-02  0.88795381964E+00  0.88000000000E+00 0.  1.
        -11    1    4    4    0    0 -0.24557833430E-01 -0.36104725433E-01  0.87442771350E-02  0.44534951274E-01  0.51100000000E-03 0.  1.
         11    1    4    4    0    0 -0.59783002829E-01 -0.64254693184E-01 -0.74381502305E-02  0.88080986730E-01  0.51100000000E-03 0. -1.
</event>
<event>
 8    1  0.1143506E+005  0.1043930E+01  0.7957747E-01            NaN
         13   -1    0    0    0    0  0.00000000000E+00  0.00000000000E+00  0.74505805969E-08  0.10566000000E+00  0.10566000000E+00 0. -1.
     999900   -1    0    0    0    0 -0.00000000000E+00 -0.00000000000E+00 -0.74505805969E-08  0.93827000000E+00  0.93827000000E+00 0.  1.
     999902    2    1    2    0    0 -0.22779408649E-01 -0.56121804033E-02 -0.88170854927E-03  0.10204528742E+01  0.10201827743E+01 0.  0.
     999903    2    3    3    0    0  0.27630533541E-01 -0.40321603785E-01  0.11910368177E+00  0.13020436941E+00  0.19447690988E-01 0.  0.
         14    1    1    2    0    0  0.22779408649E-01  0.56121804033E-02  0.88170854927E-03  0.23477125830E-01  0.00000000000E+00 0.  1.
     999901    1    3    3    0    0 -0.50409942189E-01  0.34709423381E-01 -0.11998539032E+00  0.89024850476E+00  0.88000000000E+00 0.  1.
        -11    1    4    4    0    0 -0.11408083303E-02 -0.63643563409E-02  0.28874308725E-01  0.29593805105E-01  0.51100000000E-03 0.  1.
         11    1    4    4    0    0  0.28771341871E-01 -0.33957247444E-01  0.90229373050E-01  0.10061056430E+00  0.51100000000E-03 0. -1.
</event>
<event>
 8    1  0.1143506E+005  0.1043930E+01  0.7957747E-01            NaN
         13   -1    0    0    0    0  0.00000000000E+00  0.00000000000E+00  0.74505805969E-08  0.10566000000E+00  0.10566000000E+00 0. -1.
     999900   -1    0    0    0    0 -0.00000000000E+00 -0.00000000000E+00 -0.74505805969E-08  0.93827000000E+00  0.93827000000E+00 0.  1.
     999902    2    1    2    0    0  0.22127070219E-01 -0.33225122091E-03  0.76315105465E-02  0.10205215062E+01  0.10202530015E+01 0.  0.
     999903    2    3    3    0    0 -0.63801789038E-01  0.58483773534E-01  0.94779325788E-01  0.13010708849E+00  0.21300559313E-01 0.  0.
         14    1    1    2    0    0 -0.22127070219E-01  0.33225122091E-03 -0.76315105465E-02  0.23408493770E-01  0.00000000000E+00 0.  1.
     999901    1    3    3    0    0  0.85928859256E-01 -0.58816024755E-01 -0.87147815241E-01  0.89041441774E+00  0.88000000000E+00 0. -1.
        -11    1    4    4    0    0 -0.19125153956E-01  0.64508688147E-02  0.16862107693E-01  0.26305456072E-01  0.51100000000E-03 0.  1.
         11    1    4    4    0    0 -0.44676635082E-01  0.52032904720E-01  0.77917218094E-01  0.10380163242E+00  0.51100000000E-03 0. -1.
</event>
<event>
 8    1  0.1143506E+005  0.1043930E+01  0.7957747E-01            NaN
         13   -1    0    0    0    0  0.00000000000E+00  0.00000000000E+00  0.74505805969E-08  0.10566000000E+00  0.10566000000E+00 0.  1.
     999900   -1    0    0    0    0 -0.00000000000E+00 -0.00000000000E+00 -0.74505805969E-08  0.93827000000E+00  0.93827000000E+00 0.  1.
     999902    2    1    2    0    0 -0.19926138860E-02  0.17641363438E-01  0.15860575446E-01  0.10201235709E+01  0.10198457500E+01 0.  0.
     999903    2    3    3    0    0  0.41804684598E-01 -0.11036047878E+00  0.49514910353E-01  0.12914922264E+00  0.17341523244E-01 0.  0.
         14    1    1    2    0    0  0.19926138860E-02 -0.17641363438E-01 -0.15860575446E-01  0.23806429122E-01  0.00000000000E+00 0. -1.
     999901    1    3    3    0    0 -0.43797298484E-01  0.12800184222E+00 -0.33654334907E-01  0.89097434824E+00  0.88000000000E+00 0.  1.
        -11    1    4    4    0    0  0.23787537377E-01 -0.77892298352E-01  0.27417211908E-01  0.85936149011E-01  0.51100000000E-03 0. -1.
         11    1    4    4    0    0  0.18017147221E-01 -0.32468180432E-01  0.22097698445E-01  0.43213073625E-01  0.51100000000E-03 0.  1.
</event>
<event>
 8    1  0.1143506E+005  0.1043930E+01  0.7957747E-01            NaN
         13   -1    0    0    0    0  0.00000000000E+00  0.00000000000E+00  0.74505805969E-08  0.10566000000E+00  0.10566000000E+00 0.  1.
     999900   -1    0    0    0    0 -0.00000000000E+00 -0.00000000000E+00 -0.74505805969E-08  0.93827000000E+00  0.93827000000E+00 0.  1.
     999902    2    1    2    0    0  0.29347167093E-02  0.15333091458E-01  0.17874820023E-01  0.10201976287E+01  0.10199215539E+01 0.  0.
     999903    2    3    3    0    0  0.95602165967E-02  0.17596299175E-01 -0.12521469515E+00  0.12861273163E+00  0.21482257141E-01 0.  0.
         14    1    1    2    0    0 -0.29347167093E-02 -0.15333091458E-01 -0.17874820023E-01  0.23732371282E-01  0.00000000000E+00 0. -1.
     999901    1    3    3    0    0 -0.66254998874E-02 -0.22632077170E-02  0.14308951517E+00  0.89158489708E+00  0.88000000000E+00 0. -1.
        -11    1    4    4    0    0  0.27020707848E-02 -0.40061414725E-02 -0.44821792741E-01  0.45084416171E-01  0.51100000000E-03 0. -1.
         11    1    4    4    0    0  0.68581458120E-02  0.21602440647E-01 -0.80392902405E-01  0.83528315462E-01  0.51100000000E-03 0.  1.
</event>
<event>
 8    1  0.1143506E+005  0.1043930E+01  0.7957747E-01            NaN
         13   -1    0    0    0    0  0.00000000000E+00  0.00000000000E+00  0.74505805969E-08  0.10566000000E+00  0.10566000000E+00 0.  1.
     999900   -1    0    0    0    0 -0.00000000000E+00 -0.00000000000E+00 -0.74505805969E-08  0.93827000000E+00  0.93827000000E+00 0.  1.
     999902    2    1    2    0    0 -0.56316823074E-02  0.23486035872E-01 -0.38897065417E-02  0.10194669760E+01  0.10191734276E+01 0.  0.
     999903    2    3    3    0    0 -0.15824585859E-01 -0.66891442545E-01 -0.10689860857E+00  0.12880271950E+00  0.20927145864E-01 0.  0.
         14    1    1    2    0    0  0.56316823074E-02 -0.23486035872E-01  0.38897065417E-02  0.24463024007E-01  0.00000000000E+00 0.  1.
     999901    1    3    3    0    0  0.10192903551E-01  0.90377478417E-01  0.10300890203E+00  0.89066425649E+00  0.88000000000E+00 0. -1.
        -11    1    4    4    0    0 -0.89600913557E-02 -0.15942742267E-01 -0.43414506264E-01  0.47111938437E-01  0.51100000000E-03 0.  1.
         11    1    4    4    0    0 -0.68644945028E-02 -0.50948700278E-01 -0.63484102307E-01  0.81690781068E-01  0.51100000000E-03 0. -1.
</event>
<event>
 8    1  0.1143506E+005  0.1043930E+01  0.7957747E-01            NaN
         13   -1    0    0    0    0  0.00000000000E+00  0.00000000000E+00  0.74505805969E-08  0.10566000000E+00  0.10566000000E+00 0. -1.
     999900   -1    0    0    0    0 -0.00000000000E+00 -0.00000000000E+00 -0.74505805969E-08  0.93827000000E+00  0.93827000000E+00 0. -1.
     999902    2    1    2    0    0 -0.19337320685E-01 -0.12691720261E-01  0.88406472373E-03  0.10207827906E+01  0.10205203144E+01 0.  0.
     999903    2    3    3    0    0  0.10508447436E+00 -0.34903922766E-01  0.63987411378E-01  0.12951616525E+00  0.20469921132E-01 0.  0.
         14    1    1    2    0    0  0.19337320685E-01  0.12691720261E-01 -0.88406472373E-03  0.23147209441E-01  0.00000000000E+00 0.  1.
     999901    1    3    3    0    0 -0.12442179505E+00  0.22212202505E-01 -0.63103346654E-01  0.89126662530E+00  0.88000000000E+00 0.  1.
        -11    1    4    4    0    0  0.41680411211E-01 -0.48667236561E-02  0.29787757495E-01  0.51463708528E-01  0.51100000000E-03 0. -1.
         11    1    4    4    0    0  0.63404063151E-01 -0.30037199110E-01  0.34199653882E-01  0.78052456727E-01  0.51100000000E-03 0.  1.
</event>
<event>
 8    1  0.1143506E+005  0.1043930E+01  0.7957747E-01            NaN
         13   -1    0    0    0    0  0.00000000000E+00  0.00000000000E+00  0.74505805969E-08  0.10566000000E+00  0.10566000000E+00 0.  1.
     999900   -1    0    0    0    0 -0.00000000000E+00 -0.00000000000E+00 -0.74505805969E-08  0.93827000000E+00  0.93827000000E+00 0. -1.
     999902    2    1    2    0    0 -0.22205902100E-01  0.52903745235E-02 -0.89193775985E-02  0.10194219310E+01  0.10191272874E+01 0.  0.
     999903    2    3    3    0    0  0.98321601663E-01  0.33641252911E-01  0.70705443176E-01  0.12719395363E+00  0.19497971557E-01 0.  0.
         14    1    1    2    0    0  0.22205902100E-01 -0.52903745235E-02  0.89193775985E-02  0.24508069026E-01  0.00000000000E+00 0. -1.
     999901    1    3    3    0    0 -0.12052750376E+00 -0.28350878387E-01 -0.79624820775E-01  0.89222797734E+00  0.88000000000E+00 0. -1.
        -11    1    4    4    0    0  0.39512985306E-01  0.48335249328E-02  0.21226265949E-01  0.45116011107E-01  0.51100000000E-03 0.  1.
         11    1    4    4    0    0  0.58808616357E-01  0.28807727978E-01  0.49479177227E-01  0.82077942525E-01  0.51100000000E-03 0. -1.
</event>
<event>
 8    1  0.1143506E+005  0.1043930E+01  0.7957747E-01            NaN
         13   -1    0    0    0    0  0.00000000000E+00  0.00000000000E+00  0.74505805969E-08  0.10566000000E+00  0.10566000000E+00 0.  1.
     999900   -1    0    0    0    0 -0.00000000000E+00 -0.00000000000E+00 -0.74505805969E-08  0.93827000000E+00  0.93827000000E+00 0. -1.
     999902    2    1    2    0    0 -0.82306527837E-02  0.20945047990E-01 -0.58477484224E-02  0.10206784443E+01  0.10204135690E+01 0.  0.
     999903    2    3    3    0    0  0.10376596298E+00  0.53378354434E-01  0.55700263319E-01  0.13085637273E+00  0.20105898563E-01 0.  0.
         14    1    1    2    0    0  0.82306527837E-02 -0.20945047990E-01  0.58477484224E-02  0.23251555693E-01  0.00000000000E+00 0.  1.
     999901    1    3    3    0    0 -0.11199661576E+00 -0.32433306444E-01 -0.61548011741E-01  0.88982207157E+00  0.88000000000E+00 0. -1.
        -11    1    4    4    0    0  0.80679058255E-01  0.50254993703E-01  0.46299115545E-01  0.10572863403E+00  0.51100000000E-03 0.  1.
         11    1    4    4    0    0  0.23086904720E-01  0.31233607312E-02  0.94011477742E-02  0.25127738702E-01  0.51100000000E-03 0. -1.
</event>
<event>
 8    1  0.1143506E+005  0.1043930E+01  0.7957747E-01            NaN
         13   -1    0    0    0    0  0.00000000000E+00  0.00000000000E+00  0.74505805969E-08  0.10566000000E+00  0.10566000000E+00 0.  1.
     999900   -1    0    0    0    0 -0.00000000000E+00 -0.00000000000E+00 -0.74505805969E-08  0.93827000000E+00  0.93827000000E+00 0. -1.
     999902    2    1    2    0    0 -0.43798719130E-02  0.23169644435E-01  0.56926301368E-02  0.10196725941E+01  0.10193840187E+01 0.  0.
     999903    2    3    3    0    0  0.11742945012E+00  0.15502013764E-01  0.50254421483E-01  0.13013223151E+00  0.19465420955E-01 0.  0.
         14    1    1    2    0    0  0.43798719130E-02 -0.23169644435E-01 -0.56926301368E-02  0.24257405861E-01  0.00000000000E+00 0. -1.
     999901    1    3    3    0    0 -0.12180932204E+00  0.76676306709E-02 -0.44561791346E-01  0.88954036263E+00  0.88000000000E+00 0. -1.
        -11    1    4    4    0    0  0.10111279595E+00  0.64199436820E-02  0.41226501075E-01  0.10938417935E+00  0.51100000000E-03 0. -1.
         11    1    4    4    0    0  0.16316654176E-01  0.90820700824E-02  0.90279204078E-02  0.20748052158E-01  0.51100000000E-03 0.  1.
</event>
<event>
 7    1  0.1143506E+005  0.1043930E+01  0.7957747E-01            NaN
         13   -1    0    0    0    0  0.00000000000E+00  0.00000000000E+00  0.74505805969E-08  0.10566000000E+00  0.10566000000E+00 0.  1.
     999900   -1    0    0    0    0 -0.00000000000E+00 -0.00000000000E+00 -0.74505805969E-08  0.93827000000E+00  0.93827000000E+00 0. -1.
     999903    2    1    2    0    0 -0.52016675976E-02 -0.90758794204E-01 -0.42657359695E-01  0.10244289739E+00  0.20265261354E-01 0.  0.
         14    1    1    2    0    0 -0.39599511388E-01  0.57217437219E-02  0.39534572051E-01  0.56248040327E-01  0.00000000000E+00 0.  1.
     999901    1    1    2    0    0  0.44801178986E-01  0.85037050482E-01  0.31227876437E-02  0.88523906229E+00  0.88000000000E+00 0.  1.
        -11    1    3    3    0    0  0.51758523397E-02 -0.52336443805E-01 -0.30628200168E-01  0.60862472544E-01  0.51100000000E-03 0.  1.
         11    1    3    3    0    0 -0.10377519937E-01 -0.38422350399E-01 -0.12029159527E-01  0.41580424844E-01  0.51100000000E-03 0. -1.
</event>
<event>
 8    1  0.1143506E+005  0.1043930E+01  0.7957747E-01            NaN
         13   -1    0    0    0    0  0.00000000000E+00  0.00000000000E+00  0.74505805969E-08  0.10566000000E+00  0.10566000000E+00 0. -1.
     999900   -1    0    0    0    0 -0.00000000000E+00 -0.00000000000E+00 -0.74505805969E-08  0.93827000000E+00  0.93827000000E+00 0. -1.
     999902    2    1    2    0    0  0.69519864542E-02 -0.53370557737E-02  0.22266001223E-01  0.10200011661E+01  0.10197204469E+01 0.  0.
     999903    2    3    3    0    0 -0.89458015997E-01 -0.27673485767E-01  0.90551504841E-01  0.13182510549E+00  0.20241664189E-01 0.  0.
         14    1    1    2    0    0 -0.69519864542E-02  0.53370557737E-02 -0.22266001223E-01  0.23928833872E-01  0.00000000000E+00 0.  1.
     999901    1    3    3    0    0  0.96410002452E-01  0.22336429993E-01 -0.68285503617E-01  0.88817606063E+00  0.88000000000E+00 0. -1.
        -11    1    4    4    0    0 -0.31843998695E-01 -0.92289412468E-02  0.45949069277E-01  0.56663848244E-01  0.51100000000E-03 0. -1.
         11    1    4    4    0    0 -0.57614017302E-01 -0.18444544520E-01  0.44602435564E-01  0.75161257251E-01  0.51100000000E-03 0.  1.
</event>
<event>
 8    1  0.1143506E+005  0.1043930E+01  0.7957747E-01            NaN
         13   -1    0    0    0    0  0.00000000000E+00  0.00000000000E+00  0.74505805969E-08  0.10566000000E+00  0.10566000000E+00 0. -1.
     999900   -1    0    0    0    0 -0.00000000000E+00 -0.00000000000E+00 -0.74505805969E-08  0.93827000000E+00  0.93827000000E+00 0. -1.
     999902    2    1    2    0    0 -0.53824236815E-02 -0.22886444877E-01  0.41916895050E-02  0.10200484149E+01  0.10197688163E+01 0.  0.
     999903    2    3    3    0    0 -0.64437244124E-01  0.99325401457E-01  0.46180662748E-01  0.12865272218E+00  0.20029366155E-01 0.  0.
         14    1    1    2    0    0  0.53824236815E-02  0.22886444877E-01 -0.41916895050E-02  0.23881585054E-01  0.00000000000E+00 0.  1.
     999901    1    3    3    0    0  0.59054820442E-01 -0.12221184633E+00 -0.41988973243E-01  0.89139569276E+00  0.88000000000E+00 0. -1.
        -11    1    4    4    0    0 -0.33551133841E-01  0.37163414231E-01  0.13082710771E-01  0.51751486756E-01  0.51100000000E-03 0. -1.
         11    1    4    4    0    0 -0.30886110283E-01  0.62161987225E-01  0.33097951976E-01  0.76901235427E-01  0.51100000000E-03 0.  1.
</event>
<event>
 8    1  0.1143506E+005  0.1043930E+01  0.7957747E-01            NaN
         13   -1    0    0    0    0  0.00000000000E+00  0.00000000000E+00  0.74505805969E-08  0.10566000000E+00  0.10566000000E+00 0.  1.
     999900   -1    0    0    0    0 -0.00000000000E+00 -0.00000000000E+00 -0.74505805969E-08  0.93827000000E+00  0.93827000000E+00 0.  1.
     999902    2    1    2    0    0  0.19359152375E-01 -0.10874004345E-01  0.81931388228E-02  0.10202625482E+01  0.10199879994E+01 0.  0.
     999903    2    3    3    0    0 -0.44401585979E-01 -0.11047277867E+00 -0.49503945320E-01  0.13047925934E+00  0.19961484214E-01 0.  0.
         14    1    1    2    0    0 -0.19359152375E-01  0.10874004345E-01 -0.81931388228E-02  0.23667451805E-01  0.00000000000E+00 0.  1.
     999901    1    3    3    0    0  0.63760738354E-01  0.99598774325E-01  0.57697084143E-01  0.88978328885E+00  0.88000000000E+00 0. -1.
        -11    1    4    4    0    0 -0.21434935681E-01 -0.39308094762E-01 -0.98921910698E-02  0.45855199777E-01  0.51100000000E-03 0.  1.
         11    1    4    4    0    0 -0.22966650298E-01 -0.71164683908E-01 -0.39611754250E-01  0.84624059566E-01  0.51100000000E-03 0. -1.
</event>
<event>
 8    1  0.1143506E+005  0.1043930E+01  0.7957747E-01            NaN
         13   -1    0    0    0    0  0.00000000000E+00  0.00000000000E+00  0.74505805969E-08  0.10566000000E+00  0.10566000000E+00 0. -1.
     999900   -1    0    0    0    0 -0.00000000000E+00 -0.00000000000E+00 -0.74505805969E-08  0.93827000000E+00  0.93827000000E+00 0.  1.
     999902    2    1    2    0    0  0.11184581178E-01 -0.45411671063E-02  0.19242566638E-01  0.10212145113E+01  0.10209618429E+01 0.  0.
     999903    2    3    3    0    0 -0.42715445399E-01 -0.21414136318E-01  0.12288103921E+00  0.13333454030E+00  0.19879017326E-01 0.  0.
         14    1    1    2    0    0 -0.11184581178E-01  0.45411671063E-02 -0.19242566638E-01  0.22715488673E-01  0.00000000000E+00 0.  1.
     999901    1    3    3    0    0  0.53900026577E-01  0.16872969212E-01 -0.10363847257E+00  0.88787997103E+00  0.88000000000E+00 0.  1.
        -11    1    4    4    0    0 -0.15594828961E-01 -0.36794348967E-02  0.20978176944E-01  0.26402309755E-01  0.51100000000E-03 0.  1.
         11    1    4    4    0    0 -0.27120616438E-01 -0.17734701422E-01  0.10190286227E+00  0.10693223054E+00  0.51100000000E-03 0. -1.
</event>
<event>
 8    1  0.1143506E+005  0.1043930E+01  0.7957747E-01            NaN
         13   -1    0    0    0    0  0.00000000000E+00  0.00000000000E+00  0.74505805969E-08  0.10566000000E+00  0.10566000000E+00 0.  1.
     999900   -1    0    0    0    0 -0.00000000000E+00 -0.00000000000E+00 -0.74505805969E-08  0.93827000000E+00  0.93827000000E+00 0.  1.
     999902    2    1    2    0    0 -0.47082181209E-02  0.78991962148E-02  0.17611765420E-01  0.10240619629E+01  0.10238692128E+01 0.  0.
     999903    2    3    3    0    0 -0.82287472408E-01  0.49888702362E-01 -0.89779174972E-01  0.13315541703E+00  0.20247322949E-01 0.  0.
         14    1    1    2    0    0  0.47082181209E-02 -0.78991962148E-02 -0.17611765420E-01  0.19868037143E-01  0.00000000000E+00 0. -1.
     999901    1    3    3    0    0  0.77579254287E-01 -0.41989506147E-01  0.10739094039E+00  0.89090654583E+00  0.88000000000E+00 0. -1.
        -11    1    4    4    0    0 -0.37919692520E-01  0.25594667501E-01 -0.29390390224E-01  0.54378729700E-01  0.51100000000E-03 0. -1.
         11    1    4    4    0    0 -0.44367779888E-01  0.24294034861E-01 -0.60388784748E-01  0.78776687328E-01  0.51100000000E-03 0.  1.
</event>
<event>
 8    1  0.1143506E+005  0.1043930E+01  0.7957747E-01            NaN
         13   -1    0    0    0    0  0.00000000000E+00  0.00000000000E+00  0.74505805969E-08  0.10566000000E+00  0.10566000000E+00 0.  1.
     999900   -1    0    0    0    0 -0.00000000000E+00 -0.00000000000E+00 -0.74505805969E-08  0.93827000000E+00  0.93827000000E+00 0. -1.
     999902    2    1    2    0    0  0.28230052022E-02  0.89367532867E-03  0.22876890203E-01  0.10208622710E+01  0.10206016149E+01 0.  0.
     999903    2    3    3    0    0 -0.44939980261E-01  0.27216601439E-02  0.12430047390E+00  0.13374819290E+00  0.20272198500E-01 0.  0.
         14    1    1    2    0    0 -0.28230052022E-02 -0.89367532867E-03 -0.22876890203E-01  0.23067728958E-01  0.00000000000E+00 0. -1.
     999901    1    3    3    0    0  0.47762985463E-01 -0.18279848152E-02 -0.10142358370E+00  0.88711407814E+00  0.88000000000E+00 0. -1.
        -11    1    4    4    0    0 -0.22480101436E-02 -0.46231640925E-02  0.22997252320E-01  0.23570361285E-01  0.51100000000E-03 0. -1.
         11    1    4    4    0    0 -0.42691970118E-01  0.73448242364E-02  0.10130322158E+00  0.11017783161E+00  0.51100000000E-03 0.  1.
</event>
<event>
 8    1  0.1143506E+005  0.1043930E+01  0.7957747E-01            NaN
         13   -1    0    0    0    0  0.00000000000E+00  0.00000000000E+00  0.74505805969E-08  0.10566000000E+00  0.10566000000E+00 0.  1.
     999900   -1    0    0    0    0 -0.00000000000E+00 -0.00000000000E+00 -0.74505805969E-08  0.93827000000E+00  0.93827000000E+00 0.  1.
     999902    2    1    2    0    0  0.10360532659E-01  0.20631870674E-01 -0.16673932009E-01  0.10154513285E+01  0.10150519030E+01 0.  0.
     999903    2    3    3    0    0  0.11815738528E+00 -0.20853585390E-01 -0.39178633819E-01  0.12761819880E+00  0.18852044938E-01 0.  0.
         14    1    1    2    0    0 -0.10360532659E-01 -0.20631870674E-01  0.16673932009E-01  0.28478671548E-01  0.00000000000E+00 0.  1.
     999901    1    3    3    0    0 -0.10779685262E+00  0.41485456065E-01  0.22504701810E-01  0.88783312965E+00  0.88000000000E+00 0.  1.
        -11    1    4    4    0    0  0.78901326727E-01 -0.21280786341E-01 -0.21149174951E-01  0.84414690360E-01  0.51100000000E-03 0. -1.
         11    1    4    4    0    0  0.39256058551E-01  0.42720095101E-03 -0.18029458868E-01  0.43203508442E-01  0.51100000000E-03 0.  1.
</event>
<event>
 8    1  0.1143506E+005  0.1043930E+01  0.7957747E-01            NaN
         13   -1    0    0    0    0  0.00000000000E+00  0.00000000000E+00  0.74505805969E-08  0.10566000000E+00  0.10566000000E+00 0.  1.
     999900   -1    0    0    0    0 -0.00000000000E+00 -0.00000000000E+00 -0.74505805969E-08  0.93827000000E+00  0.93827000000E+00 0. -1.
     999902    2    1    2    0    0  0.10904578488E-01  0.24381545984E-01 -0.10902564272E-01  0.10150815074E+01  0.10146714893E+01 0.  0.
     999903    2    3    3    0    0 -0.12250251902E-01  0.11695621990E+00 -0.47966792179E-01  0.12914698760E+00  0.23437261096E-01 0.  0.
         14    1    1    2    0    0 -0.10904578488E-01 -0.24381545984E-01  0.10902564272E-01  0.28848492583E-01  0.00000000000E+00 0.  1.
     999901    1    3    3    0    0  0.23154830390E-01 -0.92574673917E-01  0.37064227908E-01  0.88593451982E+00  0.88000000000E+00 0. -1.
        -11    1    4    4    0    0  0.50515875792E-02  0.12844757260E-01 -0.97233605116E-02  0.16891157058E-01  0.51100000000E-03 0. -1.
         11    1    4    4    0    0 -0.17301839481E-01  0.10411146264E+00 -0.38243431668E-01  0.11225583054E+00  0.51100000000E-03 0.  1.
</event>
<event>
 8    1  0.1143506E+005  0.1043930E+01  0.7957747E-01            NaN
         13   -1    0    0    0    0  0.00000000000E+00  0.00000000000E+00  0.74505805969E-08  0.10566000000E+00  0.10566000000E+00 0.  1.
     999900   -1    0    0    0    0 -0.00000000000E+00 -0.00000000000E+00 -0.74505805969E-08  0.93827000000E+00  0.93827000000E+00 0. -1.
     999902    2    1    2    0    0  0.76455255527E-02  0.16970909410E-01 -0.13974226555E-01  0.10206545873E+01  0.10203891619E+01 0.  0.
     999903    2    3    3    0    0  0.37352385486E-01  0.12556520437E+00 -0.16384680985E-01  0.13347871485E+00  0.19654218290E-01 0.  0.
         14    1    1    2    0    0 -0.76455255527E-02 -0.16970909410E-01  0.13974226555E-01  0.23275412671E-01  0.00000000000E+00 0.  1.
     999901    1    3    3    0    0 -0.29706859933E-01 -0.10859429496E+00  0.24104544296E-02  0.88717587248E+00  0.88000000000E+00 0.  1.
        -11    1    4    4    0    0  0.16268404802E-01  0.32512271872E-01  0.15623967693E-02  0.36392458308E-01  0.51100000000E-03 0. -1.
         11    1    4    4    0    0  0.21083980684E-01  0.93052932497E-01 -0.17947077754E-01  0.97086256538E-01  0.51100000000E-03 0.  1.
</event>
<event>
 8    1  0.1143506E+005  0.1043930E+01  0.7957747E-01            NaN
         13   -1    0    0    0    0  0.00000000000E+00  0.00000000000E+00  0.74505805969E-08  0.10566000000E+00  0.10566000000E+00 0. -1.
     999900   -1    0    0    0    0 -0.00000000000E+00 -0.00000000000E+00 -0.74505805969E-08  0.93827000000E+00  0.93827000000E+00 0. -1.
     999902    2    1    2    0    0 -0.20979648270E-01 -0.10033863403E-02 -0.11039278302E-01  0.10202019977E+01  0.10199260258E+01 0.  0.
     999903    2    3    3    0    0 -0.63009366713E-01  0.81113705571E-01  0.78340933362E-01  0.13087723352E+00  0.21022247494E-01 0.  0.
         14    1    1    2    0    0  0.20979648270E-01  0.10033863403E-02  0.11039278302E-01  0.23728002257E-01  0.00000000000E+00 0. -1.
     999901    1    3    3    0    0  0.42029718443E-01 -0.82117091912E-01 -0.89380211664E-01  0.88932476422E+00  0.88000000000E+00 0. -1.
        -11    1    4    4    0    0 -0.36613032215E-01  0.43820061326E-01  0.56129514972E-01  0.80071814482E-01  0.51100000000E-03 0. -1.
         11    1    4    4    0    0 -0.26396334499E-01  0.37293644245E-01  0.22211418390E-01  0.50805419041E-01  0.51100000000E-03 0.  1.
</event>
<event>
 8    1  0.1143506E+005  0.1043930E+01  0.7957747E-01            NaN
         13   -1    0    0    0    0  0.00000000000E+00  0.00000000000E+00  0.74505805969E-08  0.10566000000E+00  0.10566000000E+00 0.  1.
     999900   -1    0    0    0    0 -0.00000000000E+00 -0.00000000000E+00 -0.74505805969E-08  0.93827000000E+00  0.93827000000E+00 0. -1.
     999902    2    1    2    0    0 -0.27428247119E-02  0.23086213800E-01 -0.10172252743E-02  0.10206591792E+01  0.10203938597E+01 0.  0.
     999903    2    3    3    0    0  0.10031553994E+00 -0.78483624468E-01 -0.31012293116E-03  0.12884195654E+00  0.19423355220E-01 0.  0.
         14    1    1    2    0    0  0.27428247119E-02 -0.23086213800E-01  0.10172252743E-02  0.23270820834E-01  0.00000000000E+00 0.  1.
     999901    1    3    3    0    0 -0.10305836465E+00  0.10156983827E+00 -0.70710234314E-03  0.89181722262E+00  0.88000000000E+00 0.  1.
        -11    1    4    4    0    0  0.62855888182E-01 -0.47949571348E-01  0.91761847649E-02  0.79589494027E-01  0.51100000000E-03 0. -1.
         11    1    4    4    0    0  0.37459651754E-01 -0.30534053120E-01 -0.94863076960E-02  0.49252462518E-01  0.51100000000E-03 0.  1.
</event>
<event>
 8    1  0.1143506E+005  0.1043930E+01  0.7957747E-01            NaN
         13   -1    0    0    0    0  0.00000000000E+00  0.00000000000E+00  0.74505805969E-08  0.10566000000E+00  0.10566000000E+00 0. -1.
     999900   -1    0    0    0    0 -0.00000000000E+00 -0.00000000000E+00 -0.74505805969E-08  0.93827000000E+00  0.93827000000E+00 0. -1.
     999902    2    1    2    0    0  0.10409935677E-02  0.22809113569E-01 -0.60947542495E-02  0.10202977052E+01  0.10200239810E+01 0.  0.
     999903    2    3    3    0    0  0.75783674522E-01 -0.92495658537E-01 -0.44025823307E-01  0.12882677193E+00  0.18959216090E-01 0.  0.
         14    1    1    2    0    0 -0.10409935677E-02 -0.22809113569E-01  0.60947542495E-02  0.23632294826E-01  0.00000000000E+00 0.  1.
     999901    1    3    3    0    0 -0.74742680954E-01  0.11530477211E+00  0.37931069057E-01  0.89147093325E+00  0.88000000000E+00 0.  1.
        -11    1    4    4    0    0  0.35650912535E-01 -0.56625893065E-01 -0.29080431384E-01  0.72961715580E-01  0.51100000000E-03 0. -1.
         11    1    4    4    0    0  0.40132761987E-01 -0.35869765472E-01 -0.14945391923E-01  0.55865056345E-01  0.51100000000E-03 0.  1.
</event>
<event>
 8    1  0.1143506E+005  0.1043930E+01  0.7957747E-01            NaN
         13   -1    0    0    0    0  0.00000000000E+00  0.00000000000E+00  0.74505805969E-08  0.10566000000E+00  0.10566000000E+00 0.  1.
     999900   -1    0    0    0    0 -0.00000000000E+00 -0.00000000000E+00 -0.74505805969E-08  0.93827000000E+00  0.93827000000E+00 0. -1.
     999902    2    1    2    0    0 -0.16526842330E-01 -0.13055348844E-01  0.10786692032E-01  0.10202671309E+01  0.10199926897E+01 0.  0.
     999903    2    3    3    0    0  0.53437787740E-01  0.49194820819E-01  0.10605556983E+00  0.13018494805E+00  0.20606048950E-01 0.  0.
         14    1    1    2    0    0  0.16526842330E-01  0.13055348844E-01 -0.10786692032E-01  0.23662869138E-01  0.00000000000E+00 0.  1.
     999901    1    3    3    0    0 -0.69964630070E-01 -0.62250169663E-01 -0.95268877795E-01  0.89008218281E+00  0.88000000000E+00 0. -1.
        -11    1    4    4    0    0  0.13116587547E-01  0.22671598249E-01  0.27455778984E-01  0.37949007321E-01  0.51100000000E-03 0.  1.
         11    1    4    4    0    0  0.40321200192E-01  0.26523222570E-01  0.78599790843E-01  0.92235940728E-01  0.51100000000E-03 0. -1.
</event>
<event>
 8    1  0.1143506E+005  0.1043930E+01  0.7957747E-01            NaN
         13   -1    0    0    0    0  0.00000000000E+00  0.00000000000E+00  0.74505805969E-08  0.10566000000E+00  0.10566000000E+00 0. -1.
     999900   -1    0    0    0    0 -0.00000000000E+00 -0.00000000000E+00 -0.74505805969E-08  0.93827000000E+00  0.93827000000E+00 0.  1.
     999902    2    1    2    0    0  0.92203664669E-02  0.21491558009E-01 -0.34643173687E-02  0.10202888554E+01  0.10200149238E+01 0.  0.
     999903    2    3    3    0    0 -0.78044334006E-01 -0.78488642988E-01 -0.62040817190E-01  0.12841309338E+00  0.19735105898E-01 0.  0.
         14    1    1    2    0    0 -0.92203664669E-02 -0.21491558009E-01  0.34643173687E-02  0.23641144606E-01  0.00000000000E+00 0.  1.
     999901    1    3    3    0    0  0.87264700473E-01  0.99980200998E-01  0.58576499821E-01  0.89187576202E+00  0.88000000000E+00 0.  1.
        -11    1    4    4    0    0 -0.67127993349E-01 -0.62427668620E-01 -0.43161047700E-01  0.10132382967E+00  0.51100000000E-03 0.  1.
         11    1    4    4    0    0 -0.10916340657E-01 -0.16060974368E-01 -0.18879769490E-01  0.27089263704E-01  0.51100000000E-03 0. -1.
</event>
<event>
 8    1  0.1143506E+005  0.1043930E+01  0.7957747E-01            NaN
         13   -1    0    0    0    0  0.00000000000E+00  0.00000000000E+00  0.74505805969E-08  0.10566000000E+00  0.10566000000E+00 0.  1.
     999900   -1    0    0    0    0 -0.00000000000E+00 -0.00000000000E+00 -0.74505805969E-08  0.93827000000E+00  0.93827000000E+00 0. -1.
     999902    2    1    2    0    0 -0.87463261873E-02  0.13193632748E-01  0.18483543376E-01  0.10195946031E+01  0.10193041465E+01 0.  0.
     999903    2    3    3    0    0 -0.11299391826E+00 -0.60463309153E-01 -0.92421597994E-02  0.12995331574E+00  0.19468164685E-01 0.  0.
         14    1    1    2    0    0  0.87463261873E-02 -0.13193632748E-01 -0.18483543376E-01  0.24335396907E-01  0.00000000000E+00 0. -1.
     999901    1    3    3    0    0  0.10424759208E+00  0.73656941902E-01  0.27725703176E-01  0.88964128735E+00  0.88000000000E+00 0. -1.
        -11    1    4    4    0    0 -0.67677598596E-01 -0.45476476800E-01 -0.10443784085E-01  0.82205237308E-01  0.51100000000E-03 0. -1.
         11    1    4    4    0    0 -0.45316319667E-01 -0.14986832354E-01  0.12016242852E-02  0.47748078433E-01  0.51100000000E-03 0.  1.
</event>
<event>
 8    1  0.1143506E+005  0.1043930E+01  0.7957747E-01            NaN
         13   -1    0    0    0    0  0.00000000000E+00  0.00000000000E+00  0.74505805969E-08  0.10566000000E+00  0.10566000000E+00 0.  1.
     999900   -1    0    0    0    0 -0.00000000000E+00 -0.00000000000E+00 -0.74505805969E-08  0.93827000000E+00  0.93827000000E+00 0.  1.
     999902    2    1    2    0    0 -0.15102341696E-01 -0.18911022009E-01 -0.88489492547E-02  0.10181615817E+01  0.10178354460E+01 0.  0.
     999903    2    3    3    0    0 -0.47948404869E-01 -0.36000932394E-01 -0.11482372484E+00  0.13103048545E+00  0.19732806869E-01 0.  0.
         14    1    1    2    0    0  0.15102341696E-01  0.18911022009E-01  0.88489492547E-02  0.25768418288E-01  0.00000000000E+00 0.  1.
     999901    1    3    3    0    0  0.32846063172E-01  0.17089910385E-01  0.10597477559E+00  0.88713109627E+00  0.88000000000E+00 0. -1.
        -11    1    4    4    0    0 -0.27082307950E-01 -0.25083168883E-01 -0.87413932415E-01  0.94889796429E-01  0.51100000000E-03 0.  1.
         11    1    4    4    0    0 -0.20866096919E-01 -0.10917763512E-01 -0.27409792426E-01  0.36140689016E-01  0.51100000000E-03 0. -1.
</event>
<event>
 8    1  0.1143506E+005  0.1043930E+01  0.7957747E-01            NaN
         13   -1    0    0    0    0  0.00000000000E+00  0.00000000000E+00  0.74505805969E-08  0.10566000000E+00  0.10566000000E+00 0.  1.
     999900   -1    0    0    0    0 -0.00000000000E+00 -0.00000000000E+00 -0.74505805969E-08  0.93827000000E+00  0.93827000000E+00 0. -1.
     999902    2    1    2    0    0 -0.26288406479E-02  0.19888371978E-01  0.12688116980E-01  0.10201929729E+01  0.10199167885E+01 0.  0.
     999903    2    3    3    0    0 -0.10272301307E-01 -0.22128382873E-01 -0.12462555032E+00  0.12852101898E+00  0.19772178034E-01 0.  0.
         14    1    1    2    0    0  0.26288406479E-02 -0.19888371978E-01 -0.12688116980E-01  0.23737027100E-01  0.00000000000E+00 0. -1.
     999901    1    3    3    0    0  0.76434606589E-02  0.42016754851E-01  0.13731366730E+00  0.89167195392E+00  0.88000000000E+00 0.  1.
        -11    1    4    4    0    0 -0.96529890266E-02 -0.13171664709E-02 -0.54571519454E-01  0.55436693454E-01  0.51100000000E-03 0. -1.
         11    1    4    4    0    0 -0.61931228024E-03 -0.20811216402E-01 -0.70054030867E-01  0.73084325526E-01  0.51100000000E-03 0.  1.
</event>
<event>
 8    1  0.1143506E+005  0.1043930E+01  0.7957747E-01            NaN
         13   -1    0    0    0    0  0.00000000000E+00  0.00000000000E+00  0.74505805969E-08  0.10566000000E+00  0.10566000000E+00 0. -1.
     999900   -1    0    0    0    0 -0.00000000000E+00 -0.00000000000E+00 -0.74505805969E-08  0.93827000000E+00  0.93827000000E+00 0.  1.
     999902    2    1    2    0    0 -0.20265560860E-01 -0.12199661795E-02  0.87582331877E-02  0.10218191899E+01  0.10215799376E+01 0.  0.
     999903    2    3    3    0    0  0.70999999433E-01  0.40085251414E-01 -0.99276159018E-01  0.12957093219E+00  0.16883228928E-01 0.  0.
         14    1    1    2    0    0  0.20265560860E-01  0.12199661795E-02 -0.87582331877E-02  0.22110810094E-01  0.00000000000E+00 0.  1.
     999901    1    3    3    0    0 -0.91265560293E-01 -0.41305217594E-01  0.10803439221E+00  0.89224825771E+00  0.88000000000E+00 0. -1.
        -11    1    4    4    0    0  0.29529777929E-01  0.17891204075E-01 -0.29476138139E-01  0.45400515508E-01  0.51100000000E-03 0.  1.
         11    1    4    4    0    0  0.41470221504E-01  0.22194047339E-01 -0.69800020879E-01  0.84170416683E-01  0.51100000000E-03 0. -1.
</event>
<event>
 7    1  0.1143506E+005  0.1043930E+01  0.7957747E-01            NaN
         13   -1    0    0    0    0  0.00000000000E+00  0.00000000000E+00  0.74505805969E-08  0.10566000000E+00  0.10566000000E+00 0. -1.
     999900   -1    0    0    0    0 -0.00000000000E+00 -0.00000000000E+00 -0.74505805969E-08  0.93827000000E+00  0.93827000000E+00 0.  1.
     999903    2    1    2    0    0  0.32712004573E-01 -0.47608333604E-01  0.99448605528E-01  0.11680567550E+00  0.20418423442E-01 0.  0.
         14    1    1    2    0    0  0.27264678280E-01 -0.32162606376E-02 -0.30345620573E-01  0.40921433286E-01  0.00000000000E+00 0.  1.
     999901    1    1    2    0    0 -0.59976682853E-01  0.50824594242E-01 -0.69102984955E-01  0.88620289121E+00  0.88000000000E+00 0.  1.
        -11    1    3    3    0    0  0.18605179824E-01 -0.11791500140E-01  0.27833928063E-01  0.35499026244E-01  0.51100000000E-03 0. -1.
         11    1    3    3    0    0  0.14106824748E-01 -0.35816833464E-01  0.71614677465E-01  0.81306649256E-01  0.51100000000E-03 0.  1.
</event>
<event>
 8    1  0.1143506E+005  0.1043930E+01  0.7957747E-01            NaN
         13   -1    0    0    0    0  0.00000000000E+00  0.00000000000E+00  0.74505805969E-08  0.10566000000E+00  0.10566000000E+00 0. -1.
     999900   -1    0    0    0    0 -0.00000000000E+00 -0.00000000000E+00 -0.74505805969E-08  0.93827000000E+00  0.93827000000E+00 0. -1.
     999902    2    1    2    0    0  0.44155308126E-02  0.28350928403E-01  0.14198226250E-01  0.10119165390E+01  0.10114100159E+01 0.  0.
     999903    2    3    3    0    0 -0.71174353124E-01  0.91500197376E-01 -0.41073239347E-01  0.12469807912E+00  0.20604011332E-01 0.  0.
         14    1    1    2    0    0 -0.44155308126E-02 -0.28350928403E-01 -0.14198226250E-01  0.32013460955E-01  0.00000000000E+00 0.  1.
     999901    1    3    3    0    0  0.75589883936E-01 -0.63149268973E-01  0.55271465597E-01  0.88721845993E+00  0.88000000000E+00 0.  1.
        -11    1    4    4    0    0 -0.25147057556E-01  0.28212076809E-01 -0.37062231083E-02  0.37977532731E-01  0.51100000000E-03 0.  1.
         11    1    4    4    0    0 -0.46027295568E-01  0.63288120567E-01 -0.37367016238E-01  0.86720546388E-01  0.51100000000E-03 0. -1.
</event>
<event>
 8    1  0.1143506E+005  0.1043930E+01  0.7957747E-01            NaN
         13   -1    0    0    0    0  0.00000000000E+00  0.00000000000E+00  0.74505805969E-08  0.10566000000E+00  0.10566000000E+00 0. -1.
     999900   -1    0    0    0    0 -0.00000000000E+00 -0.00000000000E+00 -0.74505805969E-08  0.93827000000E+00  0.93827000000E+00 0.  1.
     999902    2    1    2    0    0  0.57014860165E-02 -0.25352455496E-01  0.14435060073E-01  0.10142041711E+01  0.10137684528E+01 0.  0.
     999903    2    3    3    0    0  0.72686654574E-01  0.38456001954E-01 -0.89539014731E-01  0.12326694535E+00  0.20378685395E-01 0.  0.
         14    1    1    2    0    0 -0.57014860165E-02  0.25352455496E-01 -0.14435060073E-01  0.29725828866E-01  0.00000000000E+00 0. -1.
     999901    1    3    3    0    0 -0.66985168557E-01 -0.63808457451E-01  0.10397407480E+00  0.89093722578E+00  0.88000000000E+00 0. -1.
        -11    1    4    4    0    0  0.57583373322E-02  0.66401413234E-02 -0.19067309230E-01  0.21001745830E-01  0.51100000000E-03 0.  1.
         11    1    4    4    0    0  0.66928317242E-01  0.31815860631E-01 -0.70471705501E-01  0.10226519952E+00  0.51100000000E-03 0. -1.
</event>
<event>
 8    1  0.1143506E+005  0.1043930E+01  0.7957747E-01            NaN
         13   -1    0    0    0    0  0.00000000000E+00  0.00000000000E+00  0.74505805969E-08  0.10566000000E+00  0.10566000000E+00 0.  1.
     999900   -1    0    0    0    0 -0.00000000000E+00 -0.00000000000E+00 -0.74505805969E-08  0.93827000000E+00  0.93827000000E+00 0. -1.
     999902    2    1    2    0    0 -0.19728080050E-01 -0.76204327708E-03  0.22321529983E-02  0.10240614228E+01  0.10238686622E+01 0.  0.
     999903    2    3    3    0    0 -0.30979281160E-01  0.10150517109E+00  0.80598350654E-01  0.13460853840E+00  0.18982857048E-01 0.  0.
         14    1    1    2    0    0  0.19728080050E-01  0.76204327708E-03 -0.22321529983E-02  0.19868577186E-01  0.00000000000E+00 0. -1.
     999901    1    3    3    0    0  0.11251201110E-01 -0.10226721437E+00 -0.78366197655E-01  0.88945288442E+00  0.88000000000E+00 0. -1.
        -11    1    4    4    0    0 -0.51669679205E-02  0.23937371389E-01  0.28893115134E-01  0.37878338528E-01  0.51100000000E-03 0.  1.
         11    1    4    4    0    0 -0.25812313240E-01  0.77567799703E-01  0.51705235519E-01  0.96730199869E-01  0.51100000000E-03 0. -1.
</event>
<event>
 8    1  0.1143506E+005  0.1043930E+01  0.7957747E-01            NaN
         13   -1    0    0    0    0  0.00000000000E+00  0.00000000000E+00  0.74505805969E-08  0.10566000000E+00  0.10566000000E+00 0. -1.
     999900   -1    0    0    0    0 -0.00000000000E+00 -0.00000000000E+00 -0.74505805969E-08  0.93827000000E+00  0.93827000000E+00 0. -1.
     999902    2    1    2    0    0 -0.16548861276E-01 -0.15314041768E-01 -0.79728309820E-02  0.10200145088E+01  0.10197341063E+01 0.  0.
     999903    2    3    3    0    0 -0.82805542344E-01  0.67891282274E-01 -0.73116150117E-01  0.13121941108E+00  0.20163788917E-01 0.  0.
         14    1    1    2    0    0  0.16548861276E-01  0.15314041768E-01  0.79728309820E-02  0.23915491186E-01  0.00000000000E+00 0.  1.
     999901    1    3    3    0    0  0.66256681068E-01 -0.83205324043E-01  0.65143319135E-01  0.88879509774E+00  0.88000000000E+00 0.  1.
        -11    1    4    4    0    0 -0.50895218762E-01  0.32751342820E-01 -0.32239734474E-01  0.68575763571E-01  0.51100000000E-03 0. -1.
         11    1    4    4    0    0 -0.31910323582E-01  0.35139939454E-01 -0.40876415643E-01  0.62643647505E-01  0.51100000000E-03 0.  1.
</event>
<event>
 8    1  0.1143506E+005  0.1043930E+01  0.7957747E-01            NaN
         13   -1    0    0    0    0  0.00000000000E+00  0.00000000000E+00  0.74505805969E-08  0.10566000000E+00  0.10566000000E+00 0. -1.
     999900   -1    0    0    0    0 -0.00000000000E+00 -0.00000000000E+00 -0.74505805969E-08  0.93827000000E+00  0.93827000000E+00 0.  1.
     999902    2    1    2    0    0  0.13866424994E-01  0.13345652846E-01 -0.13883067792E-01  0.10201997711E+01  0.10199237468E+01 0.  0.
     999903    2    3    3    0    0  0.18950777297E-02 -0.51246023241E-01 -0.11958771080E+00  0.13144284746E+00  0.18607937993E-01 0.  0.
         14    1    1    2    0    0 -0.13866424994E-01 -0.13345652846E-01  0.13883067792E-01  0.23730228893E-01  0.00000000000E+00 0. -1.
     999901    1    3    3    0    0  0.11971347264E-01  0.64591676087E-01  0.10570464301E+00  0.88875692365E+00  0.88000000000E+00 0. -1.
        -11    1    4    4    0    0  0.79853245543E-02 -0.19145411308E-01 -0.34032275199E-01  0.39859366009E-01  0.51100000000E-03 0.  1.
         11    1    4    4    0    0 -0.60902468245E-02 -0.32100611934E-01 -0.85555435602E-01  0.91583481452E-01  0.51100000000E-03 0. -1.
</event>
<event>
 7    1  0.1143506E+005  0.1043930E+01  0.7957747E-01            NaN
         13   -1    0    0    0    0  0.00000000000E+00  0.00000000000E+00  0.74505805969E-08  0.10566000000E+00  0.10566000000E+00 0. -1.
     999900   -1    0    0    0    0 -0.00000000000E+00 -0.00000000000E+00 -0.74505805969E-08  0.93827000000E+00  0.93827000000E+00 0. -1.
     999902    2    1    2    0    0  0.11978479334E-01 -0.19057209563E-01 -0.62547102078E-02  0.10205680094E+01  0.10203005828E+01 0.  0.
         14    1    1    2    0    0 -0.11978479334E-01  0.19057209563E-01  0.62547102078E-02  0.23361990567E-01  0.00000000000E+00 0.  1.
     999901    1    3    3    0    0 -0.88586424169E-01  0.21769466674E-01  0.56825026869E-01  0.88653852026E+00  0.88000000000E+00 0.  1.
        -11    1    3    3    0    0  0.12464402662E-01 -0.14793790191E-01 -0.31340632607E-01  0.36833597912E-01  0.51100000000E-03 0. -1.
         11    1    3    3    0    0  0.88100500841E-01 -0.26032886046E-01 -0.31739104470E-01  0.97195891261E-01  0.51100000000E-03 0.  1.
</event>
<event>
 8    1  0.1143506E+005  0.1043930E+01  0.7957747E-01            NaN
         13   -1    0    0    0    0  0.00000000000E+00  0.00000000000E+00  0.74505805969E-08  0.10566000000E+00  0.10566000000E+00 0.  1.
     999900   -1    0    0    0    0 -0.00000000000E+00 -0.00000000000E+00 -0.74505805969E-08  0.93827000000E+00  0.93827000000E+00 0. -1.
     999902    2    1    2    0    0  0.17033640877E-02 -0.13260281446E-02  0.23897470050E-01  0.10199352323E+01  0.10196529455E+01 0.  0.
     999903    2    3    3    0    0  0.71783831430E-01 -0.95086269548E-01  0.52533637063E-01  0.13172225967E+00  0.19916163249E-01 0.  0.
         14    1    1    2    0    0 -0.17033640877E-02  0.13260281446E-02 -0.23897470050E-01  0.23994767651E-01  0.00000000000E+00 0. -1.
     999901    1    3    3    0    0 -0.70080467343E-01  0.93760241404E-01 -0.28636167013E-01  0.88821297268E+00  0.88000000000E+00 0. -1.
        -11    1    4    4    0    0  0.17916655021E-01 -0.12292468089E-01  0.60844728560E-02  0.22569741465E-01  0.51100000000E-03 0.  1.
         11    1    4    4    0    0  0.53867176409E-01 -0.82793801459E-01  0.46449164207E-01  0.10915251821E+00  0.51100000000E-03 0. -1.
</event>
<event>
 8    1  0.1143506E+005  0.1043930E+01  0.7957747E-01            NaN
         13   -1    0    0    0    0  0.00000000000E+00  0.00000000000E+00  0.74505805969E-08  0.10566000000E+00  0.10566000000E+00 0. -1.
     999900   -1    0    0    0    0 -0.00000000000E+00 -0.00000000000E+00 -0.74505805969E-08  0.93827000000E+00  0.93827000000E+00 0. -1.
     999902    2    1    2    0    0  0.14588750356E-01 -0.24735988187E-02  0.18122985854E-01  0.10205335698E+01  0.10202653450E+01 0.  0.
     999903    2    3    3    0    0 -0.14303152095E-01  0.10399107425E+00 -0.72328088215E-01  0.12904556350E+00  0.20066923816E-01 0.  0.
         14    1    1    2    0    0 -0.14588750356E-01  0.24735988187E-02 -0.18122985854E-01  0.23396430162E-01  0.00000000000E+00 0. -1.
     999901    1    3    3    0    0  0.28891902451E-01 -0.10646467307E+00  0.90451074069E-01  0.89148800633E+00  0.88000000000E+00 0. -1.
        -11    1    4    4    0    0 -0.93706863226E-02  0.32069586766E-01 -0.32822993178E-01  0.46838853100E-01  0.51100000000E-03 0.  1.
         11    1    4    4    0    0 -0.49324657728E-02  0.71921487484E-01 -0.39505095037E-01  0.82206710403E-01  0.51100000000E-03 0. -1.
</event>
<event>
 8    1  0.1143506E+005  0.1043930E+01  0.7957747E-01            NaN
         13   -1    0    0    0    0  0.00000000000E+00  0.00000000000E+00  0.74505805969E-08  0.10566000000E+00  0.10566000000E+00 0. -1.
     999900   -1    0    0    0    0 -0.00000000000E+00 -0.00000000000E+00 -0.74505805969E-08  0.93827000000E+00  0.93827000000E+00 0. -1.
     999902    2    1    2    0    0 -0.14957719840E-01  0.40172860555E-02  0.21263478098E-01  0.10176239651E+01  0.10172838969E+01 0.  0.
     999903    2    3    3    0    0 -0.12827250172E+00  0.13440553960E-02  0.11503078630E-01  0.13030065801E+00  0.19755998498E-01 0.  0.
         14    1    1    2    0    0  0.14957719840E-01 -0.40172860555E-02 -0.21263478098E-01  0.26306034876E-01  0.00000000000E+00 0.  1.
     999901    1    3    3    0    0  0.11331478188E+00  0.26732306596E-02  0.97603994677E-02  0.88732330712E+00  0.88000000000E+00 0.  1.
        -11    1    4    4    0    0 -0.86035512063E-01 -0.47811711829E-02  0.15040078927E-01  0.87472475837E-01  0.51100000000E-03 0.  1.
         11    1    4    4    0    0 -0.42236989657E-01  0.61252265789E-02 -0.35370002970E-02  0.42828182171E-01  0.51100000000E-03 0. -1.
</event>
<event>
 8    1  0.1143506E+005  0.1043930E+01  0.7957747E-01            NaN
         13   -1    0    0    0    0  0.00000000000E+00  0.00000000000E+00  0.74505805969E-08  0.10566000000E+00  0.10566000000E+00 0. -1.
     999900   -1    0    0    0    0 -0.00000000000E+00 -0.00000000000E+00 -0.74505805969E-08  0.93827000000E+00  0.93827000000E+00 0.  1.
     999902    2    1    2    0    0 -0.10674405587E-01  0.62133769370E-02  0.21031372423E-01  0.10195400920E+01  0.10192483169E+01 0.  0.
     999903    2    3    3    0    0 -0.28063688513E-01  0.11355451752E+00  0.58362213019E-01  0.13206158559E+00  0.18759408802E-01 0.  0.
         14    1    1    2    0    0  0.10674405587E-01 -0.62133769370E-02 -0.21031372423E-01  0.24389908028E-01  0.00000000000E+00 0.  1.
     999901    1    3    3    0    0  0.17389282925E-01 -0.10734114059E+00 -0.37330840597E-01  0.88747850638E+00  0.88000000000E+00 0.  1.
        -11    1    4    4    0    0 -0.90352634101E-02  0.37313141337E-01  0.95889536861E-02  0.39574179147E-01  0.51100000000E-03 0.  1.
         11    1    4    4    0    0 -0.19028425103E-01  0.76241376185E-01  0.48773259333E-01  0.92487406448E-01  0.51100000000E-03 0. -1.
</event>
<event>
 8    1  0.1143506E+005  0.1043930E+01  0.7957747E-01            NaN
         13   -1    0    0    0    0  0.00000000000E+00  0.00000000000E+00  0.74505805969E-08  0.10566000000E+00  0.10566000000E+00 0. -1.
     999900   -1    0    0    0    0 -0.00000000000E+00 -0.00000000000E+00 -0.74505805969E-08  0.93827000000E+00  0.93827000000E+00 0. -1.
     999902    2    1    2    0    0  0.18857049445E-01  0.50097789013E-02 -0.10489791507E-01  0.10217777558E+01  0.10215375961E+01 0.  0.
     999903    2    3    3    0    0 -0.94110475371E-01  0.37854509355E-01  0.76063424064E-01  0.12973969767E+00  0.27513618774E-01 0.  0.
         14    1    1    2    0    0 -0.18857049445E-01 -0.50097789013E-02  0.10489791507E-01  0.22152244226E-01  0.00000000000E+00 0.  1.
     999901    1    3    3    0    0  0.11296752482E+00 -0.32844730454E-01 -0.86553215571E-01  0.89203805810E+00  0.88000000000E+00 0. -1.
        -11    1    4    4    0    0 -0.45676592502E-01  0.29045694067E-01  0.51519562567E-01  0.74729712260E-01  0.51100000000E-03 0. -1.
         11    1    4    4    0    0 -0.48433882869E-01  0.88088152877E-02  0.24543861496E-01  0.55009985409E-01  0.51100000000E-03 0.  1.
</event>
<event>
 8    1  0.1143506E+005  0.1043930E+01  0.7957747E-01            NaN
         13   -1    0    0    0    0  0.00000000000E+00  0.00000000000E+00  0.74505805969E-08  0.10566000000E+00  0.10566000000E+00 0. -1.
     999900   -1    0    0    0    0 -0.00000000000E+00 -0.00000000000E+00 -0.74505805969E-08  0.93827000000E+00  0.93827000000E+00 0. -1.
     999902    2    1    2    0    0  0.21731245656E-01 -0.79616262889E-02 -0.43420575540E-02  0.10203824312E+01  0.10201106891E+01 0.  0.
     999903    2    3    3    0    0  0.63694572254E-02  0.68674584406E-03  0.12849862688E+00  0.13023782145E+00  0.20222547347E-01 0.  0.
         14    1    1    2    0    0 -0.21731245656E-01  0.79616262889E-02  0.43420575540E-02  0.23547568764E-01  0.00000000000E+00 0. -1.
     999901    1    3    3    0    0  0.15361788430E-01 -0.86483721329E-02 -0.13284068444E+00  0.89014460978E+00  0.88000000000E+00 0. -1.
        -11    1    4    4    0    0 -0.63222987237E-02  0.28037876335E-02  0.69779620642E-01  0.70123386000E-01  0.51100000000E-03 0.  1.
         11    1    4    4    0    0  0.12691755949E-01 -0.21170417895E-02  0.58719006239E-01  0.60114435452E-01  0.51100000000E-03 0. -1.
</event>
<event>
 8    1  0.1143506E+005  0.1043930E+01  0.7957747E-01            NaN
         13   -1    0    0    0    0  0.00000000000E+00  0.00000000000E+00  0.74505805969E-08  0.10566000000E+00  0.10566000000E+00 0.  1.
     999900   -1    0    0    0    0 -0.00000000000E+00 -0.00000000000E+00 -0.74505805969E-08  0.93827000000E+00  0.93827000000E+00 0.  1.
     999902    2    1    2    0    0 -0.11684089284E-02  0.33525026097E-04  0.23358725035E-01  0.10205420471E+01  0.10202740189E+01 0.  0.
     999903    2    3    3    0    0  0.60556005863E-01 -0.81913455399E-01  0.82709604388E-01  0.13259625046E+00  0.19079909738E-01 0.  0.
         14    1    1    2    0    0  0.11684089284E-02 -0.33525026097E-04 -0.23358725035E-01  0.23387952852E-01  0.00000000000E+00 0. -1.
     999901    1    3    3    0    0 -0.61724414791E-01  0.81946980425E-01 -0.59350879354E-01  0.88794579669E+00  0.88000000000E+00 0. -1.
        -11    1    4    4    0    0  0.38447343641E-01 -0.65921814687E-01  0.59474053211E-01  0.96753852694E-01  0.51100000000E-03 0. -1.
         11    1    4    4    0    0  0.22108662221E-01 -0.15991640711E-01  0.23235551177E-01  0.35842397763E-01  0.51100000000E-03 0.  1.
</event>
<event>
 8    1  0.1143506E+005  0.1043930E+01  0.7957747E-01            NaN
         13   -1    0    0    0    0  0.00000000000E+00  0.00000000000E+00  0.74505805969E-08  0.10566000000E+00  0.10566000000E+00 0.  1.
     999900   -1    0    0    0    0 -0.00000000000E+00 -0.00000000000E+00 -0.74505805969E-08  0.93827000000E+00  0.93827000000E+00 0. -1.
     999902    2    1    2    0    0  0.21528474960E-01 -0.15058696462E-01  0.45836930520E-02  0.10172607328E+01  0.10169110820E+01 0.  0.
     999903    2    3    3    0    0 -0.58122761459E-01 -0.88267950523E-01  0.69768324527E-01  0.12824276302E+00  0.20226237155E-01 0.  0.
         14    1    1    2    0    0 -0.21528474960E-01  0.15058696462E-01 -0.45836930520E-02  0.26669267242E-01  0.00000000000E+00 0. -1.
     999901    1    3    3    0    0  0.79651236419E-01  0.73209254062E-01 -0.65184631475E-01  0.88901796974E+00  0.88000000000E+00 0. -1.
        -11    1    4    4    0    0 -0.40924945613E-01 -0.70528882352E-01  0.44488146496E-01  0.92890423182E-01  0.51100000000E-03 0. -1.
         11    1    4    4    0    0 -0.17197815846E-01 -0.17739068171E-01  0.25280178032E-01  0.35352339834E-01  0.51100000000E-03 0.  1.
</event>
<event>
 8    1  0.1259563E+005  0.1043930E+01  0.7957747E-01            NaN
         13   -1    0    0    0    0  0.00000000000E+00  0.00000000000E+00  0.74505805969E-08  0.10566000000E+00  0.10566000000E+00 0.  1.
     999900   -1    0    0    0    0 -0.00000000000E+00 -0.00000000000E+00 -0.74505805969E-08  0.93827000000E+00  0.93827000000E+00 0. -1.
     999902    2    1    2    0    0  0.47872048315E-02 -0.83262033670E-02  0.16898102106E-01  0.10244932089E+01  0.10243088139E+01 0.  0.
     999903    2    3    3    0    0 -0.10245348879E+00 -0.55315721167E-01  0.66226542765E-01  0.13536899026E+00  0.19551526378E-01 0.  0.
         14    1    1    2    0    0 -0.47872048315E-02  0.83262033670E-02 -0.16898102106E-01  0.19436791077E-01  0.00000000000E+00 0. -1.
     999901    1    3    3    0    0  0.10724069362E+00  0.46989517800E-01 -0.49328440660E-01  0.88912421866E+00  0.88000000000E+00 0. -1.
        -11    1    4    4    0    0 -0.32649216908E-01 -0.77049410454E-02  0.17816545953E-01  0.37987207213E-01  0.51100000000E-03 0. -1.
         11    1    4    4    0    0 -0.69804271885E-01 -0.47610780122E-01  0.48409996813E-01  0.97381783048E-01  0.51100000000E-03 0.  1.
</event>
<event>
 8    1  0.1143506E+005  0.1043930E+01  0.7957747E-01            NaN
         13   -1    0    0    0    0  0.00000000000E+00  0.00000000000E+00  0.74505805969E-08  0.10566000000E+00  0.10566000000E+00 0. -1.
     999900   -1    0    0    0    0 -0.00000000000E+00 -0.00000000000E+00 -0.74505805969E-08  0.93827000000E+00  0.93827000000E+00 0.  1.
     999902    2    1    2    0    0 -0.32662166851E-01 -0.98828557664E-02  0.56717583386E-02  0.10093372721E+01  0.10087443046E+01 0.  0.
     999903    2    3    3    0    0 -0.61017864870E-01  0.67870133530E-01 -0.78016252893E-01  0.12150099429E+00  0.18612389406E-01 0.  0.
         14    1    1    2    0    0  0.32662166851E-01  0.98828557664E-02 -0.56717583386E-02  0.34592727909E-01  0.00000000000E+00 0. -1.
     999901    1    3    3    0    0  0.28355698019E-01 -0.77752989297E-01  0.83688011231E-01  0.88783627780E+00  0.88000000000E+00 0. -1.
        -11    1    4    4    0    0 -0.53117637590E-01  0.66401646480E-01 -0.72436477981E-01  0.11170481879E+00  0.51100000000E-03 0.  1.
         11    1    4    4    0    0 -0.79002272806E-02  0.14684870501E-02 -0.55797749117E-02  0.97961754970E-02  0.51100000000E-03 0. -1.
</event>
<event>
 8    1  0.1143506E+005  0.1043930E+01  0.7957747E-01            NaN
         13   -1    0    0    0    0  0.00000000000E+00  0.00000000000E+00  0.74505805969E-08  0.10566000000E+00  0.10566000000E+00 0. -1.
     999900   -1    0    0    0    0 -0.00000000000E+00 -0.00000000000E+00 -0.74505805969E-08  0.93827000000E+00  0.93827000000E+00 0. -1.
     999902    2    1    2    0    0  0.61348628535E-02  0.74829020542E-03 -0.22397991487E-01  0.10206949725E+01  0.10204304780E+01 0.  0.
     999903    2    3    3    0    0  0.34057337793E-01  0.93046001184E-01  0.80779834450E-01  0.12943508008E+00  0.20263210718E-01 0.  0.
         14    1    1    2    0    0 -0.61348628535E-02 -0.74829020542E-03  0.22397991487E-01  0.23235027504E-01  0.00000000000E+00 0. -1.
     999901    1    3    3    0    0 -0.27922474940E-01 -0.92297710978E-01 -0.10317782594E+00  0.89125989241E+00  0.88000000000E+00 0. -1.
        -11    1    4    4    0    0  0.93858110417E-02  0.36978727687E-01  0.19744195245E-01  0.42960611228E-01  0.51100000000E-03 0. -1.
         11    1    4    4    0    0  0.24671526752E-01  0.56067273497E-01  0.61035639205E-01  0.86474468855E-01  0.51100000000E-03 0.  1.
</event>
<event>
 8    1  0.1143506E+005  0.1043930E+01  0.7957747E-01            NaN
         13   -1    0    0    0    0  0.00000000000E+00  0.00000000000E+00  0.74505805969E-08  0.10566000000E+00  0.10566000000E+00 0. -1.
     999900   -1    0    0    0    0 -0.00000000000E+00 -0.00000000000E+00 -0.74505805969E-08  0.93827000000E+00  0.93827000000E+00 0.  1.
     999902    2    1    2    0    0 -0.25452314693E-01  0.19599114131E-02 -0.54607304413E-02  0.10178248060E+01  0.10174899776E+01 0.  0.
     999903    2    3    3    0    0 -0.33726897880E-01  0.64595050547E-01  0.10410405789E+00  0.12878258417E+00  0.20911119537E-01 0.  0.
         14    1    1    2    0    0  0.25452314693E-01 -0.19599114131E-02  0.54607304413E-02  0.26105193983E-01  0.00000000000E+00 0. -1.
     999901    1    3    3    0    0  0.82745831878E-02 -0.62635139134E-01 -0.10956478833E+00  0.88904222185E+00  0.88000000000E+00 0.  1.
        -11    1    4    4    0    0 -0.36096173207E-01  0.54092039068E-01  0.89261134520E-01  0.11043864209E+00  0.51100000000E-03 0.  1.
         11    1    4    4    0    0  0.23692753261E-02  0.10503011479E-01  0.14842923372E-01  0.18343942077E-01  0.51100000000E-03 0. -1.
</event>
<event>
 8    1  0.1143506E+005  0.1043930E+01  0.7957747E-01            NaN
         13   -1    0    0    0    0  0.00000000000E+00  0.00000000000E+00  0.74505805969E-08  0.10566000000E+00  0.10566000000E+00 0. -1.
     999900   -1    0    0    0    0 -0.00000000000E+00 -0.00000000000E+00 -0.74505805969E-08  0.93827000000E+00  0.93827000000E+00 0. -1.
     999902    2    1    2    0    0  0.87710858423E-02  0.13627764809E-01  0.15436368178E-01  0.10215485482E+01  0.10213033374E+01 0.  0.
     999903    2    3    3    0    0 -0.38851906794E-01 -0.12187898344E+00  0.11218615245E-02  0.12978908888E+00  0.21908714116E-01 0.  0.
         14    1    1    2    0    0 -0.87710858423E-02 -0.13627764809E-01 -0.15436368178E-01  0.22381451765E-01  0.00000000000E+00 0.  1.
     999901    1    3    3    0    0  0.47622992636E-01  0.13550674825E+00  0.14314506654E-01  0.89175945935E+00  0.88000000000E+00 0. -1.
        -11    1    4    4    0    0 -0.35422786981E-01 -0.10288132045E+00  0.84417902411E-02  0.10913690887E+00  0.51100000000E-03 0.  1.
         11    1    4    4    0    0 -0.34291198135E-02 -0.18997662989E-01 -0.73199287167E-02  0.20652180010E-01  0.51100000000E-03 0. -1.
</event>
<event>
 8    1  0.1143506E+005  0.1043930E+01  0.7957747E-01            NaN
         13   -1    0    0    0    0  0.00000000000E+00  0.00000000000E+00  0.74505805969E-08  0.10566000000E+00  0.10566000000E+00 0.  1.
     999900   -1    0    0    0    0 -0.00000000000E+00 -0.00000000000E+00 -0.74505805969E-08  0.93827000000E+00  0.93827000000E+00 0. -1.
     999902    2    1    2    0    0 -0.13589329435E-01 -0.10050238486E-01 -0.16632035644E-01  0.10202170968E+01  0.10199414801E+01 0.  0.
     999903    2    3    3    0    0 -0.14476685229E-01 -0.81609265833E-01 -0.10236580325E+00  0.13315917271E+00  0.19569387269E-01 0.  0.
         14    1    1    2    0    0  0.13589329435E-01  0.10050238486E-01  0.16632035644E-01  0.23712903191E-01  0.00000000000E+00 0.  1.
     999901    1    3    3    0    0  0.88735579423E-03  0.71559027348E-01  0.85733767602E-01  0.88705792410E+00  0.88000000000E+00 0.  1.
        -11    1    4    4    0    0 -0.14283127904E-01 -0.30873869676E-01 -0.34844794456E-01  0.48699326414E-01  0.51100000000E-03 0.  1.
         11    1    4    4    0    0 -0.19355732490E-03 -0.50735396158E-01 -0.67521008790E-01  0.84459846298E-01  0.51100000000E-03 0. -1.
</event>
<event>
 8    1  0.1143506E+005  0.1043930E+01  0.7957747E-01            NaN
         13   -1    0    0    0    0  0.00000000000E+00  0.00000000000E+00  0.74505805969E-08  0.10566000000E+00  0.10566000000E+00 0. -1.
     999900   -1    0    0    0    0 -0.00000000000E+00 -0.00000000000E+00 -0.74505805969E-08  0.93827000000E+00  0.93827000000E+00 0. -1.
     999902    2    1    2    0    0 -0.99242999319E-02 -0.16847571024E-01 -0.12350789888E-01  0.10208026485E+01  0.10205406277E+01 0.  0.
     999903    2    3    3    0    0  0.60774087212E-01 -0.11468759287E+00  0.12701140847E-01  0.13220907935E+00  0.21706866427E-01 0.  0.
         14    1    1    2    0    0  0.99242999319E-02  0.16847571024E-01  0.12350789888E-01  0.23127351543E-01  0.00000000000E+00 0.  1.
     999901    1    3    3    0    0 -0.70698387144E-01  0.97840021844E-01 -0.25051930735E-01  0.88859356910E+00  0.88000000000E+00 0. -1.
        -11    1    4    4    0    0  0.48592198219E-01 -0.89232174791E-01  0.18804966640E-01  0.10333184716E+00  0.51100000000E-03 0.  1.
         11    1    4    4    0    0  0.12181888993E-01 -0.25455418078E-01 -0.61038257929E-02  0.28877232195E-01  0.51100000000E-03 0. -1.
</event>
<event>
 8    1  0.1143506E+005  0.1043930E+01  0.7957747E-01            NaN
         13   -1    0    0    0    0  0.00000000000E+00  0.00000000000E+00  0.74505805969E-08  0.10566000000E+00  0.10566000000E+00 0.  1.
     999900   -1    0    0    0    0 -0.00000000000E+00 -0.00000000000E+00 -0.74505805969E-08  0.93827000000E+00  0.93827000000E+00 0. -1.
     999902    2    1    2    0    0 -0.29257089540E-02 -0.88716096693E-02  0.22797383846E-01  0.10192929153E+01  0.10189951233E+01 0.  0.
     999903    2    3    3    0    0 -0.57545999230E-01  0.11262382342E+00  0.15275811863E-01  0.12923612477E+00  0.21747594973E-01 0.  0.
         14    1    1    2    0    0  0.29257089540E-02  0.88716096693E-02 -0.22797383846E-01  0.24637084673E-01  0.00000000000E+00 0. -1.
     999901    1    3    3    0    0  0.54620290276E-01 -0.12149543309E+00  0.75215719830E-02  0.89005679056E+00  0.88000000000E+00 0. -1.
        -11    1    4    4    0    0 -0.39628064916E-01  0.96097407648E-01  0.12269578729E-01  0.10467043025E+00  0.51100000000E-03 0.  1.
         11    1    4    4    0    0 -0.17917934315E-01  0.16526415776E-01  0.30062331336E-02  0.24565694518E-01  0.51100000000E-03 0. -1.
</event>
<event>
 8    1  0.1143506E+005  0.1043930E+01  0.7957747E-01            NaN
         13   -1    0    0    0    0  0.00000000000E+00  0.00000000000E+00  0.74505805969E-08  0.10566000000E+00  0.10566000000E+00 0.  1.
     999900   -1    0    0    0    0 -0.00000000000E+00 -0.00000000000E+00 -0.74505805969E-08  0.93827000000E+00  0.93827000000E+00 0. -1.
     999902    2    1    2    0    0  0.19591598273E-01 -0.48062664864E-02 -0.12619692652E-01  0.10201353039E+01  0.10198577600E+01 0.  0.
     999903    2    3    3    0    0  0.29864077475E-01 -0.48634344205E-01  0.11488318162E+00  0.12980760738E+00  0.19867233177E-01 0.  0.
         14    1    1    2    0    0 -0.19591598273E-01  0.48062664864E-02  0.12619692652E-01  0.23794696112E-01  0.00000000000E+00 0. -1.
     999901    1    3    3    0    0 -0.10272479201E-01  0.43828077719E-01 -0.12750287427E+00  0.89032769651E+00  0.88000000000E+00 0. -1.
        -11    1    4    4    0    0  0.20031971458E-01 -0.44022626882E-01  0.82330489643E-01  0.95487392906E-01  0.51100000000E-03 0.  1.
         11    1    4    4    0    0  0.98321060166E-02 -0.46117173230E-02  0.32552691978E-01  0.34320214472E-01  0.51100000000E-03 0. -1.
</event>
<event>
 8    1  0.1143506E+005  0.1043930E+01  0.7957747E-01            NaN
         13   -1    0    0    0    0  0.00000000000E+00  0.00000000000E+00  0.74505805969E-08  0.10566000000E+00  0.10566000000E+00 0. -1.
     999900   -1    0    0    0    0 -0.00000000000E+00 -0.00000000000E+00 -0.74505805969E-08  0.93827000000E+00  0.93827000000E+00 0. -1.
     999902    2    1    2    0    0 -0.17832470673E-01 -0.31094165091E-02  0.13159611370E-01  0.10215505261E+01  0.10213053591E+01 0.  0.
     999903    2    3    3    0    0  0.52687856289E-01  0.67231156993E-02 -0.11611168737E+00  0.12926085121E+00  0.20130405541E-01 0.  0.
         14    1    1    2    0    0  0.17832470673E-01  0.31094165091E-02 -0.13159611370E-01  0.22379473916E-01  0.00000000000E+00 0.  1.
     999901    1    3    3    0    0 -0.70520326963E-01 -0.98325322083E-02  0.12927129874E+00  0.89228967487E+00  0.88000000000E+00 0.  1.
        -11    1    4    4    0    0  0.82184571643E-02  0.67424534871E-02 -0.37064594429E-01  0.38562274289E-01  0.51100000000E-03 0. -1.
         11    1    4    4    0    0  0.44469399125E-01 -0.19337787799E-04 -0.79047092941E-01  0.90698576923E-01  0.51100000000E-03 0.  1.
</event>
<event>
 8    1  0.1143506E+005  0.1043930E+01  0.7957747E-01            NaN
         13   -1    0    0    0    0  0.00000000000E+00  0.00000000000E+00  0.74505805969E-08  0.10566000000E+00  0.10566000000E+00 0.  1.
     999900   -1    0    0    0    0 -0.00000000000E+00 -0.00000000000E+00 -0.74505805969E-08  0.93827000000E+00  0.93827000000E+00 0. -1.
     999902    2    1    2    0    0  0.15860798889E-01 -0.87551919856E-02  0.16413688639E-01  0.10194835789E+01  0.10191904337E+01 0.  0.
     999903    2    3    3    0    0  0.73441333307E-01 -0.37826488194E-01  0.10206093978E+00  0.13297576180E+00  0.21015355127E-01 0.  0.
         14    1    1    2    0    0 -0.15860798889E-01  0.87551919856E-02 -0.16413688639E-01  0.24446421065E-01  0.00000000000E+00 0. -1.
     999901    1    3    3    0    0 -0.57580534417E-01  0.29071296209E-01 -0.85647251143E-01  0.88650781713E+00  0.88000000000E+00 0. -1.
        -11    1    4    4    0    0  0.30987520236E-01 -0.92384769135E-02  0.52927025662E-01  0.62025051653E-01  0.51100000000E-03 0. -1.
         11    1    4    4    0    0  0.42453813071E-01 -0.28588011281E-01  0.49133914120E-01  0.70950710151E-01  0.51100000000E-03 0.  1.
</event>
<event>
 8    1  0.1143506E+005  0.1043930E+01  0.7957747E-01            NaN
         13   -1    0    0    0    0  0.00000000000E+00  0.00000000000E+00  0.74505805969E-08  0.10566000000E+00  0.10566000000E+00 0. -1.
     999900   -1    0    0    0    0 -0.00000000000E+00 -0.00000000000E+00 -0.74505805969E-08  0.93827000000E+00  0.93827000000E+00 0. -1.
     999902    2    1    2    0    0 -0.11281852923E-01 -0.17655488751E-01  0.10090122541E-01  0.10206747412E+01  0.10204097806E+01 0.  0.
     999903    2    3    3    0    0  0.98446834866E-02 -0.13111099987E+00 -0.35225073253E-02  0.13303529457E+00  0.19974219950E-01 0.  0.
         14    1    1    2    0    0  0.11281852923E-01  0.17655488751E-01 -0.10090122541E-01  0.23255258788E-01  0.00000000000E+00 0.  1.
     999901    1    3    3    0    0 -0.21126536410E-01  0.11345551112E+00  0.13612629866E-01  0.88763944664E+00  0.88000000000E+00 0.  1.
        -11    1    4    4    0    0  0.45560203456E-02 -0.46049742845E-01 -0.10726711583E-01  0.47504311382E-01  0.51100000000E-03 0. -1.
         11    1    4    4    0    0  0.52886631410E-02 -0.85061257028E-01  0.72042042576E-02  0.85530983187E-01  0.51100000000E-03 0.  1.
</event>
<event>
 8    1  0.1143506E+005  0.1043930E+01  0.7957747E-01            NaN
         13   -1    0    0    0    0  0.00000000000E+00  0.00000000000E+00  0.74505805969E-08  0.10566000000E+00  0.10566000000E+00 0.  1.
     999900   -1    0    0    0    0 -0.00000000000E+00 -0.00000000000E+00 -0.74505805969E-08  0.93827000000E+00  0.93827000000E+00 0.  1.
     999902    2    1    2    0    0  0.11548412550E-01  0.12082928682E-01  0.16103278235E-01  0.10207205500E+01  0.10204566442E+01 0.  0.
     999903    2    3    3    0    0 -0.19068018358E-01 -0.87887252817E-01 -0.89253143580E-01  0.12829050871E+00  0.20113986551E-01 0.  0.
         14    1    1    2    0    0 -0.11548412550E-01 -0.12082928682E-01 -0.16103278235E-01  0.23209449969E-01  0.00000000000E+00 0. -1.
     999901    1    3    3    0    0  0.30616430908E-01  0.99970181499E-01  0.10535642181E+00  0.89243004132E+00  0.88000000000E+00 0. -1.
        -11    1    4    4    0    0  0.64489701925E-03 -0.40764244577E-01 -0.34522438449E-01  0.53424707819E-01  0.51100000000E-03 0.  1.
         11    1    4    4    0    0 -0.19712915378E-01 -0.47123008240E-01 -0.54730705131E-01  0.74865800893E-01  0.51100000000E-03 0. -1.
</event>
<event>
 8    1  0.1143506E+005  0.1043930E+01  0.7957747E-01            NaN
         13   -1    0    0    0    0  0.00000000000E+00  0.00000000000E+00  0.74505805969E-08  0.10566000000E+00  0.10566000000E+00 0. -1.
     999900   -1    0    0    0    0 -0.00000000000E+00 -0.00000000000E+00 -0.74505805969E-08  0.93827000000E+00  0.93827000000E+00 0. -1.
     999902    2    1    2    0    0 -0.32498998595E-02 -0.22202195593E-01  0.81316890744E-02  0.10200632092E+01  0.10197839609E+01 0.  0.
     999903    2    3    3    0    0  0.12193449523E+00  0.30477617854E-01 -0.20703443862E-01  0.12917726785E+00  0.21476210618E-01 0.  0.
         14    1    1    2    0    0  0.32498998595E-02  0.22202195593E-01 -0.81316890744E-02  0.23866790850E-01  0.00000000000E+00 0.  1.
     999901    1    3    3    0    0 -0.12518439509E+00 -0.52679813447E-01  0.28835132936E-01  0.89088594130E+00  0.88000000000E+00 0. -1.
        -11    1    4    4    0    0  0.27172718732E-01 -0.21056328702E-02 -0.57582306008E-02  0.27860521777E-01  0.51100000000E-03 0. -1.
         11    1    4    4    0    0  0.94761776503E-01  0.32583250724E-01 -0.14945213261E-01  0.10131674607E+00  0.51100000000E-03 0.  1.
</event>
<event>
 8    1  0.1143506E+005  0.1043930E+01  0.7957747E-01            NaN
         13   -1    0    0    0    0  0.00000000000E+00  0.00000000000E+00  0.74505805969E-08  0.10566000000E+00  0.10566000000E+00 0. -1.
     999900   -1    0    0    0    0 -0.00000000000E+00 -0.00000000000E+00 -0.74505805969E-08  0.93827000000E+00  0.93827000000E+00 0.  1.
     999902    2    1    2    0    0  0.12814930480E-01  0.57684870108E-02 -0.18624594433E-01  0.10205981890E+01  0.10203314609E+01 0.  0.
     999903    2    3    3    0    0  0.10739317966E+00 -0.62750176416E-01  0.36484223971E-01  0.13117318695E+00  0.20110362907E-01 0.  0.
         14    1    1    2    0    0 -0.12814930480E-01 -0.57684870108E-02  0.18624594433E-01  0.23331810976E-01  0.00000000000E+00 0. -1.
     999901    1    3    3    0    0 -0.94578249184E-01  0.68518663427E-01 -0.55108818404E-01  0.88942500208E+00  0.88000000000E+00 0. -1.
        -11    1    4    4    0    0  0.40860736705E-01 -0.31782106928E-01  0.22583825879E-01  0.56480018035E-01  0.51100000000E-03 0. -1.
         11    1    4    4    0    0  0.66532442959E-01 -0.30968069488E-01  0.13900398092E-01  0.74693168911E-01  0.51100000000E-03 0.  1.
</event>
<event>
 8    1  0.1143506E+005  0.1043930E+01  0.7957747E-01            NaN
         13   -1    0    0    0    0  0.00000000000E+00  0.00000000000E+00  0.74505805969E-08  0.10566000000E+00  0.10566000000E+00 0. -1.
     999900   -1    0    0    0    0 -0.00000000000E+00 -0.00000000000E+00 -0.74505805969E-08  0.93827000000E+00  0.93827000000E+00 0.  1.
     999902    2    1    2    0    0 -0.19070064082E-01 -0.65784402956E-02 -0.11994442653E-01  0.10204606610E+01  0.10201907423E+01 0.  0.
     999903    2    3    3    0    0  0.12147166136E+00 -0.26810054686E-01 -0.27631408288E-01  0.12894183922E+00  0.19706842266E-01 0.  0.
         14    1    1    2    0    0  0.19070064082E-01  0.65784402956E-02  0.11994442653E-01  0.23469339049E-01  0.00000000000E+00 0. -1.
     999901    1    3    3    0    0 -0.14054172544E+00  0.20231614390E-01  0.15636965634E-01  0.89151882173E+00  0.88000000000E+00 0. -1.
        -11    1    4    4    0    0  0.66545652520E-01 -0.15113337253E-01 -0.25143366041E-01  0.72726795674E-01  0.51100000000E-03 0. -1.
         11    1    4    4    0    0  0.54926008837E-01 -0.11696717433E-01 -0.24880422471E-02  0.56215043544E-01  0.51100000000E-03 0.  1.
</event>
<event>
 8    1  0.1143506E+005  0.1043930E+01  0.7957747E-01            NaN
         13   -1    0    0    0    0  0.00000000000E+00  0.00000000000E+00  0.74505805969E-08  0.10566000000E+00  0.10566000000E+00 0.  1.
     999900   -1    0    0    0    0 -0.00000000000E+00 -0.00000000000E+00 -0.74505805969E-08  0.93827000000E+00  0.93827000000E+00 0. -1.
     999902    2    1    2    0    0 -0.31543729005E-02 -0.13765399927E-01 -0.18090929426E-01  0.10209796616E+01  0.10207216817E+01 0.  0.
     999903    2    3    3    0    0 -0.39437935495E-02 -0.37347510022E-01 -0.12690112525E+00  0.13396421768E+00  0.20787640938E-01 0.  0.
         14    1    1    2    0    0  0.31543729005E-02  0.13765399927E-01  0.18090929426E-01  0.22950338365E-01  0.00000000000E+00 0. -1.
     999901    1    3    3    0    0  0.78942064895E-03  0.23582110095E-01  0.10881019583E+00  0.88701544396E+00  0.88000000000E+00 0.  1.
        -11    1    4    4    0    0  0.33035748391E-02 -0.30653203975E-01 -0.74314969262E-01  0.80458115178E-01  0.51100000000E-03 0. -1.
         11    1    4    4    0    0 -0.72473683886E-02 -0.66943060469E-02 -0.52586155990E-01  0.53506102501E-01  0.51100000000E-03 0.  1.
</event>
<event>
 8    1  0.1143506E+005  0.1043930E+01  0.7957747E-01            NaN
         13   -1    0    0    0    0  0.00000000000E+00  0.00000000000E+00  0.74505805969E-08  0.10566000000E+00  0.10566000000E+00 0.  1.
     999900   -1    0    0    0    0 -0.00000000000E+00 -0.00000000000E+00 -0.74505805969E-08  0.93827000000E+00  0.93827000000E+00 0. -1.
     999902    2    1    2    0    0 -0.18141174853E-01 -0.83764152605E-02 -0.11576841732E-01  0.10208369313E+01  0.10205756956E+01 0.  0.
     999903    2    3    3    0    0 -0.57809802511E-01 -0.65000029017E-01  0.96498764186E-01  0.13153373764E+00  0.20545938994E-01 0.  0.
         14    1    1    2    0    0  0.18141174853E-01  0.83764152605E-02  0.11576841732E-01  0.23093068704E-01  0.00000000000E+00 0.  1.
     999901    1    3    3    0    0  0.39668627658E-01  0.56623613756E-01 -0.10807560592E+00  0.88930319366E+00  0.88000000000E+00 0. -1.
        -11    1    4    4    0    0 -0.48082966042E-01 -0.62857964293E-01  0.88695550660E-01  0.11887075808E+00  0.51100000000E-03 0.  1.
         11    1    4    4    0    0 -0.97268364695E-02 -0.21420647237E-02  0.78032135257E-02  0.12662979559E-01  0.51100000000E-03 0. -1.
</event>
<event>
 8    1  0.1143506E+005  0.1043930E+01  0.7957747E-01            NaN
         13   -1    0    0    0    0  0.00000000000E+00  0.00000000000E+00  0.74505805969E-08  0.10566000000E+00  0.10566000000E+00 0. -1.
     999900   -1    0    0    0    0 -0.00000000000E+00 -0.00000000000E+00 -0.74505805969E-08  0.93827000000E+00  0.93827000000E+00 0. -1.
     999902    2    1    2    0    0  0.10779714576E-01  0.16782281328E-01  0.13913906826E-01  0.10196103780E+01  0.10193203024E+01 0.  0.
     999903    2    3    3    0    0 -0.31192082166E-02 -0.28822820040E-01  0.12617423989E+00  0.13119865601E+00  0.21275904496E-01 0.  0.
         14    1    1    2    0    0 -0.10779714576E-01 -0.16782281328E-01 -0.13913906826E-01  0.24319622038E-01  0.00000000000E+00 0.  1.
     999901    1    3    3    0    0  0.13898922792E-01  0.45605101368E-01 -0.11226033306E+00  0.88841172195E+00  0.88000000000E+00 0. -1.
        -11    1    4    4    0    0  0.59155642689E-02 -0.11113614970E-01  0.23996114550E-01  0.27103154296E-01  0.51100000000E-03 0.  1.
         11    1    4    4    0    0 -0.90347724856E-02 -0.17709205070E-01  0.10217812534E+00  0.10409550171E+00  0.51100000000E-03 0. -1.
</event>
<event>
 8    1  0.1143506E+005  0.1043930E+01  0.7957747E-01            NaN
         13   -1    0    0    0    0  0.00000000000E+00  0.00000000000E+00  0.74505805969E-08  0.10566000000E+00  0.10566000000E+00 0. -1.
     999900   -1    0    0    0    0 -0.00000000000E+00 -0.00000000000E+00 -0.74505805969E-08  0.93827000000E+00  0.93827000000E+00 0. -1.
     999902    2    1    2    0    0 -0.13502058421E-01 -0.19268531589E-01  0.13179093097E-02  0.10203647973E+01  0.10200926433E+01 0.  0.
     999903    2    3    3    0    0  0.12721814572E+00 -0.10102363738E-01  0.14824761073E-02  0.12913742929E+00  0.19691712881E-01 0.  0.
         14    1    1    2    0    0  0.13502058421E-01  0.19268531589E-01 -0.13179093097E-02  0.23565202654E-01  0.00000000000E+00 0. -1.
     999901    1    3    3    0    0 -0.14072020414E+00 -0.91661678509E-02 -0.16456679763E-03  0.89122736805E+00  0.88000000000E+00 0.  1.
        -11    1    4    4    0    0  0.72398422265E-01  0.38232716726E-02 -0.11953569836E-02  0.72510957462E-01  0.51100000000E-03 0.  1.
         11    1    4    4    0    0  0.54819723451E-01 -0.13925635411E-01  0.26778330910E-02  0.56626471830E-01  0.51100000000E-03 0. -1.
</event>
<event>
 8    1  0.1143506E+005  0.1043930E+01  0.7957747E-01            NaN
         13   -1    0    0    0    0  0.00000000000E+00  0.00000000000E+00  0.74505805969E-08  0.10566000000E+00  0.10566000000E+00 0.  1.
     999900   -1    0    0    0    0 -0.00000000000E+00 -0.00000000000E+00 -0.74505805969E-08  0.93827000000E+00  0.93827000000E+00 0. -1.
     999902    2    1    2    0    0 -0.20204069035E-01 -0.27540461273E-02  0.11928798471E-01  0.10203061686E+01  0.10200326428E+01 0.  0.
     999903    2    3    3    0    0 -0.52643261709E-01  0.11582519766E+00  0.27871746749E-01  0.13161751906E+00  0.18961741462E-01 0.  0.
         14    1    1    2    0    0  0.20204069035E-01  0.27540461273E-02 -0.11928798471E-01  0.23623831370E-01  0.00000000000E+00 0. -1.
     999901    1    3    3    0    0  0.32439192674E-01 -0.11857924379E+00 -0.15942948278E-01  0.88868864957E+00  0.88000000000E+00 0.  1.
        -11    1    4    4    0    0 -0.11538834899E-01  0.23955299438E-01  0.13890901428E-01  0.30003655535E-01  0.51100000000E-03 0. -1.
         11    1    4    4    0    0 -0.41104426811E-01  0.91869898223E-01  0.13980845321E-01  0.10161386352E+00  0.51100000000E-03 0.  1.
</event>
<event>
 8    1  0.1143506E+005  0.1043930E+01  0.7957747E-01            NaN
         13   -1    0    0    0    0  0.00000000000E+00  0.00000000000E+00  0.74505805969E-08  0.10566000000E+00  0.10566000000E+00 0. -1.
     999900   -1    0    0    0    0 -0.00000000000E+00 -0.00000000000E+00 -0.74505805969E-08  0.93827000000E+00  0.93827000000E+00 0. -1.
     999902    2    1    2    0    0  0.75489783714E-02  0.31634743886E-02 -0.27069628820E-01  0.10156499815E+01  0.10152561871E+01 0.  0.
     999903    2    3    3    0    0 -0.14906171030E-01  0.93394415792E-01  0.78544854770E-01  0.12447083242E+00  0.19467487696E-01 0.  0.
         14    1    1    2    0    0 -0.75489783714E-02 -0.31634743886E-02  0.27069628820E-01  0.28280018549E-01  0.00000000000E+00 0. -1.
     999901    1    3    3    0    0  0.22455149401E-01 -0.90230941403E-01 -0.10561448359E+00  0.89117914903E+00  0.88000000000E+00 0. -1.
        -11    1    4    4    0    0 -0.18632546617E-01  0.58069398402E-01  0.47751213150E-01  0.77457512886E-01  0.51100000000E-03 0. -1.
         11    1    4    4    0    0  0.37263755869E-02  0.35325017390E-01  0.30793641619E-01  0.47013319536E-01  0.51100000000E-03 0.  1.
</event>
<event>
 8    1  0.1143506E+005  0.1043930E+01  0.7957747E-01            NaN
         13   -1    0    0    0    0  0.00000000000E+00  0.00000000000E+00  0.74505805969E-08  0.10566000000E+00  0.10566000000E+00 0. -1.
     999900   -1    0    0    0    0 -0.00000000000E+00 -0.00000000000E+00 -0.74505805969E-08  0.93827000000E+00  0.93827000000E+00 0.  1.
     999902    2    1    2    0    0 -0.16884072606E-01 -0.10013424702E-01 -0.14498078294E-01  0.10195264171E+01  0.10192343108E+01 0.  0.
     999903    2    3    3    0    0  0.50285162059E-01  0.99198385737E-01  0.58702550449E-01  0.12722755596E+00  0.19285857764E-01 0.  0.
         14    1    1    2    0    0  0.16884072606E-01  0.10013424702E-01  0.14498078294E-01  0.24403582857E-01  0.00000000000E+00 0. -1.
     999901    1    3    3    0    0 -0.67169234665E-01 -0.10921181044E+00 -0.73200628742E-01  0.89229886119E+00  0.88000000000E+00 0.  1.
        -11    1    4    4    0    0  0.44355981235E-01  0.76350000426E-01  0.52827299089E-01  0.10289684294E+00  0.51100000000E-03 0.  1.
         11    1    4    4    0    0  0.59291808240E-02  0.22848385310E-01  0.58752513594E-02  0.24330713020E-01  0.51100000000E-03 0. -1.
</event>
<event>
 8    1  0.1143506E+005  0.1043930E+01  0.7957747E-01            NaN
         13   -1    0    0    0    0  0.00000000000E+00  0.00000000000E+00  0.74505805969E-08  0.10566000000E+00  0.10566000000E+00 0. -1.
     999900   -1    0    0    0    0 -0.00000000000E+00 -0.00000000000E+00 -0.74505805969E-08  0.93827000000E+00  0.93827000000E+00 0.  1.
     999902    2    1    2    0    0  0.30532054251E-02 -0.17014359266E-01  0.17330132137E-01  0.10194525826E+01  0.10191586845E+01 0.  0.
     999903    2    3    3    0    0 -0.10805586245E+00  0.26740689900E-01  0.65254908973E-01  0.13009522271E+00  0.16596081430E-01 0.  0.
         14    1    1    2    0    0 -0.30532054251E-02  0.17014359266E-01 -0.17330132137E-01  0.24477417439E-01  0.00000000000E+00 0.  1.
     999901    1    3    3    0    0  0.11110906788E+00 -0.43755049166E-01 -0.47924776835E-01  0.88935735985E+00  0.88000000000E+00 0.  1.
        -11    1    4    4    0    0 -0.74012710139E-01  0.13558869618E-01  0.36555034586E-01  0.83655578906E-01  0.51100000000E-03 0.  1.
         11    1    4    4    0    0 -0.34043152315E-01  0.13181820282E-01  0.28699874387E-01  0.46439643801E-01  0.51100000000E-03 0. -1.
</event>
<event>
 8    1  0.1143506E+005  0.1043930E+01  0.7957747E-01            NaN
         13   -1    0    0    0    0  0.00000000000E+00  0.00000000000E+00  0.74505805969E-08  0.10566000000E+00  0.10566000000E+00 0. -1.
     999900   -1    0    0    0    0 -0.00000000000E+00 -0.00000000000E+00 -0.74505805969E-08  0.93827000000E+00  0.93827000000E+00 0.  1.
     999902    2    1    2    0    0  0.21025011898E-01 -0.17182824413E-02 -0.10803680250E-01  0.10202293011E+01  0.10199539714E+01 0.  0.
     999903    2    3    3    0    0  0.57696928903E-01  0.80718487527E-01 -0.85343087526E-01  0.13248115341E+00  0.20576773026E-01 0.  0.
         14    1    1    2    0    0 -0.21025011898E-01  0.17182824413E-02  0.10803680250E-01  0.23700698867E-01  0.00000000000E+00 0. -1.
     999901    1    3    3    0    0 -0.36671917005E-01 -0.82436769968E-01  0.74539407276E-01  0.88774814772E+00  0.88000000000E+00 0.  1.
        -11    1    4    4    0    0  0.14495879950E-01  0.33933007788E-01 -0.39207219214E-01  0.53842796292E-01  0.51100000000E-03 0. -1.
         11    1    4    4    0    0  0.43201048953E-01  0.46785479739E-01 -0.46135868312E-01  0.78638357123E-01  0.51100000000E-03 0.  1.
</event>
<event>
 8    1  0.1143506E+005  0.1043930E+01  0.7957747E-01            NaN
         13   -1    0    0    0    0  0.00000000000E+00  0.00000000000E+00  0.74505805969E-08  0.10566000000E+00  0.10566000000E+00 0.  1.
     999900   -1    0    0    0    0 -0.00000000000E+00 -0.00000000000E+00 -0.74505805969E-08  0.93827000000E+00  0.93827000000E+00 0. -1.
     999902    2    1    2    0    0  0.73636751759E-02  0.16813296084E-01  0.16234950476E-01  0.10194252198E+01  0.10191306562E+01 0.  0.
     999903    2    3    3    0    0  0.10354454988E+00 -0.72439970572E-01 -0.17379260940E-01  0.12906191107E+00  0.19644720166E-01 0.  0.
         14    1    1    2    0    0 -0.73636751759E-02 -0.16813296084E-01 -0.16234950476E-01  0.24504780233E-01  0.00000000000E+00 0. -1.
     999901    1    3    3    0    0 -0.96180874709E-01  0.89253266656E-01  0.33614211417E-01  0.89036330870E+00  0.88000000000E+00 0. -1.
        -11    1    4    4    0    0  0.47098049876E-01 -0.39875937514E-01 -0.38701055113E-03  0.61714889556E-01  0.51100000000E-03 0.  1.
         11    1    4    4    0    0  0.56446500009E-01 -0.32564033058E-01 -0.16992250389E-01  0.67347021512E-01  0.51100000000E-03 0. -1.
</event>
<event>
 8    1  0.1143506E+005  0.1043930E+01  0.7957747E-01            NaN
         13   -1    0    0    0    0  0.00000000000E+00  0.00000000000E+00  0.74505805969E-08  0.10566000000E+00  0.10566000000E+00 0. -1.
     999900   -1    0    0    0    0 -0.00000000000E+00 -0.00000000000E+00 -0.74505805969E-08  0.93827000000E+00  0.93827000000E+00 0. -1.
     999902    2    1    2    0    0 -0.10128692415E-02 -0.13076888131E-01 -0.21639421251E-01  0.10186259399E+01  0.10183115976E+01 0.  0.
     999903    2    3    3    0    0  0.48664626686E-01 -0.70387161161E-01 -0.98577635908E-01  0.13201903155E+00  0.19719940242E-01 0.  0.
         14    1    1    2    0    0  0.10128692415E-02  0.13076888131E-01  0.21639421251E-01  0.25304060136E-01  0.00000000000E+00 0. -1.
     999901    1    3    3    0    0 -0.49677495928E-01  0.57310273031E-01  0.76938214657E-01  0.88660690831E+00  0.88000000000E+00 0.  1.
        -11    1    4    4    0    0  0.29278462412E-01 -0.25526577197E-01 -0.40617139693E-01  0.56203626773E-01  0.51100000000E-03 0. -1.
         11    1    4    4    0    0  0.19386164274E-01 -0.44860583965E-01 -0.57960496216E-01  0.75815404777E-01  0.51100000000E-03 0.  1.
</event>
<event>
 8    1  0.1143506E+005  0.1043930E+01  0.7957747E-01            NaN
         13   -1    0    0    0    0  0.00000000000E+00  0.00000000000E+00  0.74505805969E-08  0.10566000000E+00  0.10566000000E+00 0.  1.
     999900   -1    0    0    0    0 -0.00000000000E+00 -0.00000000000E+00 -0.74505805969E-08  0.93827000000E+00  0.93827000000E+00 0. -1.
     999902    2    1    2    0    0  0.11303519149E-01  0.20378779497E-01 -0.11571060397E-01  0.10179116673E+01  0.10175790921E+01 0.  0.
     999903    2    3    3    0    0 -0.12368988773E+00  0.12416187368E-01  0.15686033647E-01  0.12716502993E+00  0.21715044286E-01 0.  0.
         14    1    1    2    0    0 -0.11303519149E-01 -0.20378779497E-01  0.11571060397E-01  0.26018332722E-01  0.00000000000E+00 0. -1.
     999901    1    3    3    0    0  0.13499340688E+00  0.79625921294E-02 -0.27257094044E-01  0.89074663735E+00  0.88000000000E+00 0. -1.
        -11    1    4    4    0    0 -0.29994471178E-01 -0.59058954890E-02  0.11758519963E-02  0.30597249087E-01  0.51100000000E-03 0. -1.
         11    1    4    4    0    0 -0.93695416556E-01  0.18322082857E-01  0.14510181651E-01  0.96567780840E-01  0.51100000000E-03 0.  1.
</event>
<event>
 8    1  0.1143506E+005  0.1043930E+01  0.7957747E-01            NaN
         13   -1    0    0    0    0  0.00000000000E+00  0.00000000000E+00  0.74505805969E-08  0.10566000000E+00  0.10566000000E+00 0. -1.
     999900   -1    0    0    0    0 -0.00000000000E+00 -0.00000000000E+00 -0.74505805969E-08  0.93827000000E+00  0.93827000000E+00 0.  1.
     999902    2    1    2    0    0 -0.77508473310E-02 -0.21912664741E-01 -0.69117813679E-02  0.10196810159E+01  0.10193926431E+01 0.  0.
     999903    2    3    3    0    0  0.44412250258E-01 -0.75691443438E-01 -0.96932952884E-01  0.13192150050E+00  0.17482630116E-01 0.  0.
         14    1    1    2    0    0  0.77508473310E-02  0.21912664741E-01  0.69117813679E-02  0.24248984145E-01  0.00000000000E+00 0. -1.
     999901    1    3    3    0    0 -0.52163097589E-01  0.53778778697E-01  0.90021171516E-01  0.88775951536E+00  0.88000000000E+00 0. -1.
        -11    1    4    4    0    0  0.18249217461E-01 -0.19727594095E-01 -0.37966056097E-01  0.46517678825E-01  0.51100000000E-03 0.  1.
         11    1    4    4    0    0  0.26163032796E-01 -0.55963849343E-01 -0.58966896787E-01  0.85403821671E-01  0.51100000000E-03 0. -1.
</event>
<event>
 8    1  0.1143506E+005  0.1043930E+01  0.7957747E-01            NaN
         13   -1    0    0    0    0  0.00000000000E+00  0.00000000000E+00  0.74505805969E-08  0.10566000000E+00  0.10566000000E+00 0.  1.
     999900   -1    0    0    0    0 -0.00000000000E+00 -0.00000000000E+00 -0.74505805969E-08  0.93827000000E+00  0.93827000000E+00 0.  1.
     999902    2    1    2    0    0 -0.16040592107E-01  0.15654941788E-01  0.89067624529E-02  0.10198113720E+01  0.10195261283E+01 0.  0.
     999903    2    3    3    0    0 -0.99020958774E-01  0.86701917341E-01  0.36853692071E-02  0.13304157274E+00  0.19081545660E-01 0.  0.
         14    1    1    2    0    0  0.16040592107E-01 -0.15654941788E-01 -0.89067624529E-02  0.24118627965E-01  0.00000000000E+00 0.  1.
     999901    1    3    3    0    0  0.82980366667E-01 -0.71046975553E-01  0.52213932457E-02  0.88676979929E+00  0.88000000000E+00 0. -1.
        -11    1    4    4    0    0 -0.28468710224E-01  0.36796659662E-01  0.29212573856E-02  0.46618199127E-01  0.51100000000E-03 0. -1.
         11    1    4    4    0    0 -0.70552248550E-01  0.49905257679E-01  0.76411182157E-03  0.86423373617E-01  0.51100000000E-03 0.  1.
</event>
<event>
 8    1  0.1143506E+005  0.1043930E+01  0.7957747E-01            NaN
         13   -1    0    0    0    0  0.00000000000E+00  0.00000000000E+00  0.74505805969E-08  0.10566000000E+00  0.10566000000E+00 0.  1.
     999900   -1    0    0    0    0 -0.00000000000E+00 -0.00000000000E+00 -0.74505805969E-08  0.93827000000E+00  0.93827000000E+00 0. -1.
     999902    2    1    2    0    0 -0.20093416202E-01  0.69447479945E-02 -0.42272398903E-02  0.10222541043E+01  0.10220242704E+01 0.  0.
     999903    2    3    3    0    0  0.84355207355E-01  0.66764743642E-01  0.71689982298E-01  0.13082190186E+00  0.20039571904E-01 0.  0.
         14    1    1    2    0    0  0.20093416202E-01 -0.69447479945E-02  0.42272398903E-02  0.21675895748E-01  0.00000000000E+00 0.  1.
     999901    1    3    3    0    0 -0.10444862356E+00 -0.59819995647E-01 -0.75917222188E-01  0.89143220240E+00  0.88000000000E+00 0. -1.
        -11    1    4    4    0    0  0.11188675631E-01  0.11134048434E-01  0.19606451591E-01  0.25175932196E-01  0.51100000000E-03 0. -1.
         11    1    4    4    0    0  0.73166531724E-01  0.55630695207E-01  0.52083530706E-01  0.10564596966E+00  0.51100000000E-03 0.  1.
</event>
<event>
 8    1  0.1143506E+005  0.1043930E+01  0.7957747E-01            NaN
         13   -1    0    0    0    0  0.00000000000E+00  0.00000000000E+00  0.74505805969E-08  0.10566000000E+00  0.10566000000E+00 0. -1.
     999900   -1    0    0    0    0 -0.00000000000E+00 -0.00000000000E+00 -0.74505805969E-08  0.93827000000E+00  0.93827000000E+00 0.  1.
     999902    2    1    2    0    0  0.25824928418E-01 -0.63868521227E-03  0.19165901976E-02  0.10180261747E+01  0.10176965580E+01 0.  0.
     999903    2    3    3    0    0  0.12911321612E+00 -0.27750962569E-02 -0.16571478655E-01  0.13178983867E+00  0.20396664838E-01 0.  0.
         14    1    1    2    0    0 -0.25824928418E-01  0.63868521227E-03 -0.19165901976E-02  0.25903825288E-01  0.00000000000E+00 0.  1.
     999901    1    3    3    0    0 -0.10328828770E+00  0.21364110446E-02  0.18488068853E-01  0.88623633604E+00  0.88000000000E+00 0. -1.
        -11    1    4    4    0    0  0.84476051222E-01  0.29927769329E-02 -0.22692842478E-02  0.84561047273E-01  0.51100000000E-03 0.  1.
         11    1    4    4    0    0  0.44637164896E-01 -0.57678731898E-02 -0.14302194407E-01  0.47228791399E-01  0.51100000000E-03 0. -1.
</event>
<event>
 8    1  0.1143506E+005  0.1043930E+01  0.7957747E-01            NaN
         13   -1    0    0    0    0  0.00000000000E+00  0.00000000000E+00  0.74505805969E-08  0.10566000000E+00  0.10566000000E+00 0.  1.
     999900   -1    0    0    0    0 -0.00000000000E+00 -0.00000000000E+00 -0.74505805969E-08  0.93827000000E+00  0.93827000000E+00 0.  1.
     999902    2    1    2    0    0  0.18649485365E-01  0.10125084093E-01  0.10032329670E-01  0.10204572867E+01  0.10201872895E+01 0.  0.
     999903    2    3    3    0    0  0.23619234212E-02  0.78707396094E-01 -0.10211624755E+00  0.13054373943E+00  0.20334871767E-01 0.  0.
         14    1    1    2    0    0 -0.18649485365E-01 -0.10125084093E-01 -0.10032329670E-01  0.23472713326E-01  0.00000000000E+00 0.  1.
     999901    1    3    3    0    0  0.16287561944E-01 -0.68582312001E-01  0.11214857722E+00  0.88991354724E+00  0.88000000000E+00 0. -1.
        -11    1    4    4    0    0  0.52622742378E-02  0.33483303191E-01 -0.29454356182E-01  0.44907052250E-01  0.51100000000E-03 0. -1.
         11    1    4    4    0    0 -0.29003508166E-02  0.45224092903E-01 -0.72661891365E-01  0.85636687182E-01  0.51100000000E-03 0.  1.
</event>
<event>
 8    1  0.1143506E+005  0.1043930E+01  0.7957747E-01            NaN
         13   -1    0    0    0    0  0.00000000000E+00  0.00000000000E+00  0.74505805969E-08  0.10566000000E+00  0.10566000000E+00 0. -1.
     999900   -1    0    0    0    0 -0.00000000000E+00 -0.00000000000E+00 -0.74505805969E-08  0.93827000000E+00  0.93827000000E+00 0.  1.
     999902    2    1    2    0    0  0.93631602103E-02 -0.79482051698E-02 -0.20152742848E-01  0.10203296657E+01  0.10200566901E+01 0.  0.
     999903    2    3    3    0    0 -0.66079816438E-01 -0.10673158174E+00  0.28852130968E-01  0.13024468332E+00  0.19314745376E-01 0.  0.
         14    1    1    2    0    0 -0.93631602103E-02  0.79482051698E-02  0.20152742848E-01  0.23600334295E-01  0.00000000000E+00 0. -1.
     999901    1    3    3    0    0  0.75442976649E-01  0.98783376575E-01 -0.49004873815E-01  0.89008498239E+00  0.88000000000E+00 0. -1.
        -11    1    4    4    0    0 -0.24925781605E-01 -0.46456033637E-01  0.29767214355E-02  0.52807003715E-01  0.51100000000E-03 0. -1.
         11    1    4    4    0    0 -0.41154034834E-01 -0.60275548108E-01  0.25875409532E-01  0.77437679603E-01  0.51100000000E-03 0.  1.
</event>
<event>
 8    1  0.1143506E+005  0.1043930E+01  0.7957747E-01            NaN
         13   -1    0    0    0    0  0.00000000000E+00  0.00000000000E+00  0.74505805969E-08  0.10566000000E+00  0.10566000000E+00 0. -1.
     999900   -1    0    0    0    0 -0.00000000000E+00 -0.00000000000E+00 -0.74505805969E-08  0.93827000000E+00  0.93827000000E+00 0.  1.
     999902    2    1    2    0    0 -0.36059458539E-02  0.31333027949E-01  0.10138861012E-01  0.10108005873E+01  0.10102575262E+01 0.  0.
     999903    2    3    3    0    0 -0.88431005698E-01  0.65983132072E-01 -0.52462155356E-01  0.12383113584E+00  0.20200395370E-01 0.  0.
         14    1    1    2    0    0  0.36059458539E-02 -0.31333027949E-01 -0.10138861012E-01  0.33129412741E-01  0.00000000000E+00 0.  1.
     999901    1    3    3    0    0  0.84825059844E-01 -0.34650104123E-01  0.62601016367E-01  0.88696945142E+00  0.88000000000E+00 0. -1.
        -11    1    4    4    0    0 -0.86366607133E-01  0.66170914871E-01 -0.53731738026E-01  0.12134719443E+00  0.51100000000E-03 0.  1.
         11    1    4    4    0    0 -0.20643985643E-02 -0.18778279931E-03  0.12695826706E-02  0.24839414183E-02  0.51100000000E-03 0. -1.
</event>
<event>
 8    1  0.1143506E+005  0.1043930E+01  0.7957747E-01            NaN
         13   -1    0    0    0    0  0.00000000000E+00  0.00000000000E+00  0.74505805969E-08  0.10566000000E+00  0.10566000000E+00 0. -1.
     999900   -1    0    0    0    0 -0.00000000000E+00 -0.00000000000E+00 -0.74505805969E-08  0.93827000000E+00  0.93827000000E+00 0.  1.
     999902    2    1    2    0    0  0.25319081704E-02 -0.22208372075E-01 -0.17443334113E-01  0.10155770063E+01  0.10151811481E+01 0.  0.
     999903    2    3    3    0    0 -0.95181378172E-01  0.77513965795E-01  0.50461387073E-03  0.12438984307E+00  0.20116380868E-01 0.  0.
         14    1    1    2    0    0 -0.25319081704E-02  0.22208372075E-01  0.17443334113E-01  0.28352993743E-01  0.00000000000E+00 0. -1.
     999901    1    3    3    0    0  0.97713286342E-01 -0.99722337870E-01 -0.17947947983E-01  0.89118716319E+00  0.88000000000E+00 0. -1.
        -11    1    4    4    0    0 -0.82775826856E-01  0.57835510220E-01  0.27163658510E-02  0.10101694669E+00  0.51100000000E-03 0. -1.
         11    1    4    4    0    0 -0.12405551316E-01  0.19678455574E-01 -0.22117519802E-02  0.23372896378E-01  0.51100000000E-03 0.  1.
</event>
<event>
 8    1  0.1143506E+005  0.1043930E+01  0.7957747E-01            NaN
         13   -1    0    0    0    0  0.00000000000E+00  0.00000000000E+00  0.74505805969E-08  0.10566000000E+00  0.10566000000E+00 0.  1.
     999900   -1    0    0    0    0 -0.00000000000E+00 -0.00000000000E+00 -0.74505805969E-08  0.93827000000E+00  0.93827000000E+00 0.  1.
     999902    2    1    2    0    0 -0.22610478143E-01 -0.53703940025E-02 -0.41537226406E-02  0.10203221991E+01  0.10200490486E+01 0.  0.
     999903    2    3    3    0    0  0.11076502709E+00 -0.56712461945E-01 -0.25299851059E-01  0.12854184937E+00  0.19943169535E-01 0.  0.
         14    1    1    2    0    0  0.22610478143E-01  0.53703940025E-02  0.41537226406E-02  0.23607800943E-01  0.00000000000E+00 0.  1.
     999901    1    3    3    0    0 -0.13337550523E+00  0.51342067943E-01  0.21146128419E-01  0.89178034968E+00  0.88000000000E+00 0. -1.
        -11    1    4    4    0    0  0.57243821818E-01 -0.40353092908E-01 -0.15209847857E-01  0.71671666901E-01  0.51100000000E-03 0.  1.
         11    1    4    4    0    0  0.53521205268E-01 -0.16359369037E-01 -0.10090003202E-01  0.56870182471E-01  0.51100000000E-03 0. -1.
</event>
<event>
 8    1  0.1143506E+005  0.1043930E+01  0.7957747E-01            NaN
         13   -1    0    0    0    0  0.00000000000E+00  0.00000000000E+00  0.74505805969E-08  0.10566000000E+00  0.10566000000E+00 0.  1.
     999900   -1    0    0    0    0 -0.00000000000E+00 -0.00000000000E+00 -0.74505805969E-08  0.93827000000E+00  0.93827000000E+00 0.  1.
     999902    2    1    2    0    0 -0.17253170675E-01 -0.75001235547E-02  0.14176752362E-01  0.10203735983E+01  0.10201016499E+01 0.  0.
     999903    2    3    3    0    0 -0.77627642718E-01 -0.37004213987E-01 -0.96704694599E-01  0.13087359075E+00  0.19512458347E-01 0.  0.
         14    1    1    2    0    0  0.17253170675E-01  0.75001235547E-02 -0.14176752362E-01  0.23556401661E-01  0.00000000000E+00 0. -1.
     999901    1    3    3    0    0  0.60374472043E-01  0.29504090432E-01  0.11088144696E+00  0.88950000759E+00  0.88000000000E+00 0. -1.
        -11    1    4    4    0    0 -0.55872539671E-01 -0.16543888815E-01 -0.65792502647E-01  0.87888312487E-01  0.51100000000E-03 0. -1.
         11    1    4    4    0    0 -0.21755103047E-01 -0.20460325172E-01 -0.30912191952E-01  0.42985278259E-01  0.51100000000E-03 0.  1.
</event>
<event>
 8    1  0.1143506E+005  0.1043930E+01  0.7957747E-01            NaN
         13   -1    0    0    0    0  0.00000000000E+00  0.00000000000E+00  0.74505805969E-08  0.10566000000E+00  0.10566000000E+00 0.  1.
     999900   -1    0    0    0    0 -0.00000000000E+00 -0.00000000000E+00 -0.74505805969E-08  0.93827000000E+00  0.93827000000E+00 0.  1.
     999902    2    1    2    0    0  0.19640094987E-01 -0.69725505681E-02  0.11784521477E-01  0.10199878878E+01  0.10197068532E+01 0.  0.
     999903    2    3    3    0    0  0.42020275553E-01 -0.11926564840E+00  0.33290622607E-01  0.13230938475E+00  0.20186859402E-01 0.  0.
         14    1    1    2    0    0 -0.19640094987E-01  0.69725505681E-02 -0.11784521477E-01  0.23942112250E-01  0.00000000000E+00 0. -1.
     999901    1    3    3    0    0 -0.22380180565E-01  0.11229309784E+00 -0.21506101129E-01  0.88767850300E+00  0.88000000000E+00 0. -1.
        -11    1    4    4    0    0  0.30771655064E-01 -0.10183724599E+00  0.21820825810E-01  0.10860077801E+00  0.51100000000E-03 0.  1.
         11    1    4    4    0    0  0.11248620489E-01 -0.17428402418E-01  0.11469796797E-01  0.23708606735E-01  0.51100000000E-03 0. -1.
</event>
<event>
 8    1  0.1143506E+005  0.1043930E+01  0.7957747E-01            NaN
         13   -1    0    0    0    0  0.00000000000E+00  0.00000000000E+00  0.74505805969E-08  0.10566000000E+00  0.10566000000E+00 0. -1.
     999900   -1    0    0    0    0 -0.00000000000E+00 -0.00000000000E+00 -0.74505805969E-08  0.93827000000E+00  0.93827000000E+00 0.  1.
     999902    2    1    2    0    0 -0.89027015577E-03 -0.20806368564E-01  0.10998085010E-01  0.10203788763E+01  0.10201070511E+01 0.  0.
     999903    2    3    3    0    0 -0.69024868122E-01  0.32654933972E-01  0.10465685029E+00  0.13118126124E+00  0.20608004673E-01 0.  0.
         14    1    1    2    0    0  0.89027015577E-03  0.20806368564E-01 -0.10998085010E-01  0.23551123703E-01  0.00000000000E+00 0.  1.
     999901    1    3    3    0    0  0.68134597966E-01 -0.53461302536E-01 -0.93658765277E-01  0.88919761506E+00  0.88000000000E+00 0.  1.
        -11    1    4    4    0    0 -0.25191781128E-01  0.20885459455E-01  0.54192056699E-01  0.63307727674E-01  0.51100000000E-03 0. -1.
         11    1    4    4    0    0 -0.43833086994E-01  0.11769474517E-01  0.50464793588E-01  0.67873533566E-01  0.51100000000E-03 0.  1.
</event>
<event>
 8    1  0.1143506E+005  0.1043930E+01  0.7957747E-01            NaN
         13   -1    0    0    0    0  0.00000000000E+00  0.00000000000E+00  0.74505805969E-08  0.10566000000E+00  0.10566000000E+00 0. -1.
     999900   -1    0    0    0    0 -0.00000000000E+00 -0.00000000000E+00 -0.74505805969E-08  0.93827000000E+00  0.93827000000E+00 0.  1.
     999902    2    1    2    0    0  0.48907278723E-02  0.31282127944E-02 -0.23329561781E-01  0.10198889229E+01  0.10196055324E+01 0.  0.
     999903    2    3    3    0    0  0.10254954363E+00  0.50126115729E-01 -0.63091289322E-01  0.13234904091E+00  0.22510474540E-01 0.  0.
         14    1    1    2    0    0 -0.48907278723E-02 -0.31282127944E-02  0.23329561781E-01  0.24041077083E-01  0.00000000000E+00 0. -1.
     999901    1    3    3    0    0 -0.97658815761E-01 -0.46997902935E-01  0.39761727541E-01  0.88753988201E+00  0.88000000000E+00 0. -1.
        -11    1    4    4    0    0  0.35171783159E-01  0.10969442613E-01 -0.10432329476E-01  0.38294616085E-01  0.51100000000E-03 0.  1.
         11    1    4    4    0    0  0.67377760474E-01  0.39156673116E-01 -0.52658959846E-01  0.94054424825E-01  0.51100000000E-03 0. -1.
</event>
<event>
 8    1  0.1143506E+005  0.1043930E+01  0.7957747E-01            NaN
         13   -1    0    0    0    0  0.00000000000E+00  0.00000000000E+00  0.74505805969E-08  0.10566000000E+00  0.10566000000E+00 0.  1.
     999900   -1    0    0    0    0 -0.00000000000E+00 -0.00000000000E+00 -0.74505805969E-08  0.93827000000E+00  0.93827000000E+00 0.  1.
     999902    2    1    2    0    0  0.22734569050E-01  0.13295391108E-02 -0.53946662555E-02  0.10205263522E+01  0.10202579600E+01 0.  0.
     999903    2    3    3    0    0 -0.17931624636E-01 -0.99622845274E-01  0.79150371942E-01  0.12980025141E+00  0.18359450591E-01 0.  0.
         14    1    1    2    0    0 -0.22734569050E-01 -0.13295391108E-02  0.53946662555E-02  0.23403647753E-01  0.00000000000E+00 0. -1.
     999901    1    3    3    0    0  0.40666193686E-01  0.10095238438E+00 -0.84545038197E-01  0.89072610083E+00  0.88000000000E+00 0.  1.
        -11    1    4    4    0    0 -0.55511475626E-02 -0.56317873809E-01  0.33984883685E-01  0.66013268286E-01  0.51100000000E-03 0.  1.
         11    1    4    4    0    0 -0.12380477074E-01 -0.43304971465E-01  0.45165488257E-01  0.63786983128E-01  0.51100000000E-03 0. -1.
</event>
<event>
 8    1  0.1143506E+005  0.1043930E+01  0.7957747E-01            NaN
         13   -1    0    0    0    0  0.00000000000E+00  0.00000000000E+00  0.74505805969E-08  0.10566000000E+00  0.10566000000E+00 0.  1.
     999900   -1    0    0    0    0 -0.00000000000E+00 -0.00000000000E+00 -0.74505805969E-08  0.93827000000E+00  0.93827000000E+00 0.  1.
     999902    2    1    2    0    0  0.16907141275E-01  0.15893873318E-01  0.48253719847E-02  0.10202287163E+01  0.10199533728E+01 0.  0.
     999903    2    3    3    0    0 -0.60346176175E-01  0.95612388180E-01 -0.64339331681E-01  0.13056199615E+00  0.11112852296E-01 0.  0.
         14    1    1    2    0    0 -0.16907141275E-01 -0.15893873318E-01 -0.48253719847E-02  0.23701283719E-01  0.00000000000E+00 0.  1.
     999901    1    3    3    0    0  0.77253317450E-01 -0.79718514862E-01  0.69164703666E-01  0.88966672013E+00  0.88000000000E+00 0. -1.
        -11    1    4    4    0    0 -0.47513139018E-01  0.80764837058E-01 -0.56513998664E-01  0.10942828908E+00  0.51100000000E-03 0.  1.
         11    1    4    4    0    0 -0.12833037157E-01  0.14847551122E-01 -0.78253330172E-02  0.21133707077E-01  0.51100000000E-03 0. -1.
</event>
<event>
 8    1  0.1143506E+005  0.1043930E+01  0.7957747E-01            NaN
         13   -1    0    0    0    0  0.00000000000E+00  0.00000000000E+00  0.74505805969E-08  0.10566000000E+00  0.10566000000E+00 0. -1.
     999900   -1    0    0    0    0 -0.00000000000E+00 -0.00000000000E+00 -0.74505805969E-08  0.93827000000E+00  0.93827000000E+00 0.  1.
     999902    2    1    2    0    0 -0.14276752865E-01  0.17364322304E-01  0.70887237950E-02  0.10203589295E+01  0.10200866383E+01 0.  0.
     999903    2    3    3    0    0 -0.54101964584E-01 -0.43184233976E-01  0.10986741407E+00  0.13141819221E+00  0.20198810243E-01 0.  0.
         14    1    1    2    0    0  0.14276752865E-01 -0.17364322304E-01 -0.70887237950E-02  0.23571070542E-01  0.00000000000E+00 0. -1.
     999901    1    3    3    0    0  0.39825211719E-01  0.60548556280E-01 -0.10277869027E+00  0.88894073724E+00  0.88000000000E+00 0.  1.
        -11    1    4    4    0    0 -0.21233365457E-01 -0.26548913340E-01  0.65068614328E-01  0.73415845018E-01  0.51100000000E-03 0. -1.
         11    1    4    4    0    0 -0.32868599127E-01 -0.16635320636E-01  0.44798799739E-01  0.58002347197E-01  0.51100000000E-03 0.  1.
</event>
<event>
 8    1  0.1143506E+005  0.1043930E+01  0.7957747E-01            NaN
         13   -1    0    0    0    0  0.00000000000E+00  0.00000000000E+00  0.74505805969E-08  0.10566000000E+00  0.10566000000E+00 0.  1.
     999900   -1    0    0    0    0 -0.00000000000E+00 -0.00000000000E+00 -0.74505805969E-08  0.93827000000E+00  0.93827000000E+00 0. -1.
     999902    2    1    2    0    0  0.21554475446E-01  0.84349037282E-02  0.11137457364E-03  0.10207836090E+01  0.10205211516E+01 0.  0.
     999903    2    3    3    0    0 -0.83627507402E-01  0.61730213829E-01 -0.75169996276E-01  0.12973314779E+00  0.19390255361E-01 0.  0.
         14    1    1    2    0    0 -0.21554475446E-01 -0.84349037282E-02 -0.11137457364E-03  0.23146391013E-01  0.00000000000E+00 0.  1.
     999901    1    3    3    0    0  0.10518198285E+00 -0.53295310100E-01  0.75281370849E-01  0.89105046119E+00  0.88000000000E+00 0.  1.
        -11    1    4    4    0    0 -0.46471862856E-01  0.40879035739E-01 -0.54066900717E-01  0.82184064602E-01  0.51100000000E-03 0.  1.
         11    1    4    4    0    0 -0.37155644546E-01  0.20851178090E-01 -0.21103095559E-01  0.47549083193E-01  0.51100000000E-03 0. -1.
</event>
<event>
 8    1  0.1143506E+005  0.1043930E+01  0.7957747E-01            NaN
         13   -1    0    0    0    0  0.00000000000E+00  0.00000000000E+00  0.74505805969E-08  0.10566000000E+00  0.10566000000E+00 0. -1.
     999900   -1    0    0    0    0 -0.00000000000E+00 -0.00000000000E+00 -0.74505805969E-08  0.93827000000E+00  0.93827000000E+00 0.  1.
     999902    2    1    2    0    0  0.15866002930E-01  0.29162100198E-02 -0.17154116998E-01  0.10203822175E+01  0.10201104704E+01 0.  0.
     999903    2    3    3    0    0  0.48042914684E-01 -0.22908503695E-02 -0.12287193308E+00  0.13345565699E+00  0.19988266470E-01 0.  0.
         14    1    1    2    0    0 -0.15866002930E-01 -0.29162100198E-02  0.17154116998E-01  0.23547782483E-01  0.00000000000E+00 0. -1.
     999901    1    3    3    0    0 -0.32176911754E-01  0.52070603893E-02  0.10571781609E+00  0.88692656053E+00  0.88000000000E+00 0. -1.
        -11    1    4    4    0    0  0.12806129501E-02 -0.15039076021E-02 -0.23918083689E-01  0.24004948573E-01  0.51100000000E-03 0. -1.
         11    1    4    4    0    0  0.46762301734E-01 -0.78694276746E-03 -0.98953849394E-01  0.10945070842E+00  0.51100000000E-03 0.  1.
</event>
<event>
 8    1  0.1143506E+005  0.1043930E+01  0.7957747E-01            NaN
         13   -1    0    0    0    0  0.00000000000E+00  0.00000000000E+00  0.74505805969E-08  0.10566000000E+00  0.10566000000E+00 0.  1.
     999900   -1    0    0    0    0 -0.00000000000E+00 -0.00000000000E+00 -0.74505805969E-08  0.93827000000E+00  0.93827000000E+00 0. -1.
     999902    2    1    2    0    0  0.58752376143E-03 -0.10727156455E-01 -0.21226000090E-01  0.10201400830E+01  0.10198626520E+01 0.  0.
     999903    2    3    3    0    0 -0.25482059819E-01 -0.10144706439E+00 -0.79969685464E-01  0.13314484885E+00  0.19787822913E-01 0.  0.
         14    1    1    2    0    0 -0.58752376143E-03  0.10727156455E-01  0.21226000090E-01  0.23789916974E-01  0.00000000000E+00 0.  1.
     999901    1    3    3    0    0  0.26069583580E-01  0.90719907934E-01  0.58743685374E-01  0.88699523418E+00  0.88000000000E+00 0.  1.
        -11    1    4    4    0    0  0.14719194617E-03 -0.37949434399E-01 -0.29871379241E-01  0.48298464318E-01  0.51100000000E-03 0. -1.
         11    1    4    4    0    0 -0.25629251765E-01 -0.63497629990E-01 -0.50098306223E-01  0.84846384530E-01  0.51100000000E-03 0.  1.
</event>
<event>
 8    1  0.1143506E+005  0.1043930E+01  0.7957747E-01            NaN
         13   -1    0    0    0    0  0.00000000000E+00  0.00000000000E+00  0.74505805969E-08  0.10566000000E+00  0.10566000000E+00 0.  1.
     999900   -1    0    0    0    0 -0.00000000000E+00 -0.00000000000E+00 -0.74505805969E-08  0.93827000000E+00  0.93827000000E+00 0.  1.
     999902    2    1    2    0    0 -0.27493061831E-03  0.22556817769E-01 -0.12008805037E-01  0.10183742372E+01  0.10180535300E+01 0.  0.
     999903    2    3    3    0    0 -0.85267936497E-01 -0.62124867817E-01 -0.70210469686E-01  0.12832804024E+00  0.20210286073E-01 0.  0.
         14    1    1    2    0    0  0.27493061831E-03 -0.22556817769E-01  0.12008805037E-01  0.25555762817E-01  0.00000000000E+00 0.  1.
     999901    1    3    3    0    0  0.84993005879E-01  0.84681685586E-01  0.58201664649E-01  0.89004619694E+00  0.88000000000E+00 0. -1.
        -11    1    4    4    0    0 -0.77885599967E-01 -0.62643146474E-01 -0.64372795714E-01  0.11888838644E+00  0.51100000000E-03 0. -1.
         11    1    4    4    0    0 -0.73823365301E-02  0.51827865750E-03 -0.58376739719E-02  0.94396537973E-02  0.51100000000E-03 0.  1.
</event>
<event>
 8    1  0.1143506E+005  0.1043930E+01  0.7957747E-01            NaN
         13   -1    0    0    0    0  0.00000000000E+00  0.00000000000E+00  0.74505805969E-08  0.10566000000E+00  0.10566000000E+00 0.  1.
     999900   -1    0    0    0    0 -0.00000000000E+00 -0.00000000000E+00 -0.74505805969E-08  0.93827000000E+00  0.93827000000E+00 0. -1.
     999902    2    1    2    0    0  0.66992624999E-02 -0.15188192166E-01 -0.16861150069E-01  0.10202686458E+01  0.10199942402E+01 0.  0.
     999903    2    3    3    0    0  0.75258023073E-02  0.73332065788E-01  0.10240744851E+00  0.12782171865E+00  0.20417557983E-01 0.  0.
         14    1    1    2    0    0 -0.66992624999E-02  0.15188192166E-01  0.16861150069E-01  0.23661354166E-01  0.00000000000E+00 0.  1.
     999901    1    3    3    0    0 -0.82653980746E-03 -0.88520257954E-01 -0.11926859858E+00  0.89244692719E+00  0.88000000000E+00 0. -1.
        -11    1    4    4    0    0  0.68305410296E-03  0.38938087581E-01  0.37614325450E-01  0.54145543006E-01  0.51100000000E-03 0.  1.
         11    1    4    4    0    0  0.68427482044E-02  0.34393978207E-01  0.64793123063E-01  0.73676175642E-01  0.51100000000E-03 0. -1.
</event>
<event>
 8    1  0.1143506E+005  0.1043930E+01  0.7957747E-01            NaN
         13   -1    0    0    0    0  0.00000000000E+00  0.00000000000E+00  0.74505805969E-08  0.10566000000E+00  0.10566000000E+00 0.  1.
     999900   -1    0    0    0    0 -0.00000000000E+00 -0.00000000000E+00 -0.74505805969E-08  0.93827000000E+00  0.93827000000E+00 0. -1.
     999902    2    1    2    0    0 -0.17720366625E-01 -0.47488091996E-02 -0.16863891915E-01  0.10190110628E+01  0.10187063329E+01 0.  0.
     999903    2    3    3    0    0 -0.10533845610E+00  0.95139786638E-02  0.72918790996E-01  0.12999965290E+00  0.19901094230E-01 0.  0.
         14    1    1    2    0    0  0.17720366625E-01  0.47488091996E-02  0.16863891915E-01  0.24918937230E-01  0.00000000000E+00 0.  1.
     999901    1    3    3    0    0  0.87618089474E-01 -0.14262787863E-01 -0.89782682911E-01  0.88901140987E+00  0.88000000000E+00 0. -1.
        -11    1    4    4    0    0 -0.56761298454E-01  0.15046805771E-01  0.39147449738E-01  0.70576450096E-01  0.51100000000E-03 0.  1.
         11    1    4    4    0    0 -0.48577157646E-01 -0.55328271074E-02  0.33771341257E-01  0.59423202809E-01  0.51100000000E-03 0. -1.
</event>
<event>
 8    1  0.1143506E+005  0.1043930E+01  0.7957747E-01            NaN
         13   -1    0    0    0    0  0.00000000000E+00  0.00000000000E+00  0.74505805969E-08  0.10566000000E+00  0.10566000000E+00 0.  1.
     999900   -1    0    0    0    0 -0.00000000000E+00 -0.00000000000E+00 -0.74505805969E-08  0.93827000000E+00  0.93827000000E+00 0. -1.
     999902    2    1    2    0    0  0.29652797252E-02  0.68226261813E-02  0.22363237561E-01  0.10203618964E+01  0.10200896746E+01 0.  0.
     999903    2    3    3    0    0  0.73068285247E-01  0.52439305036E-01 -0.91321511007E-01  0.12911583903E+00  0.15570051178E-01 0.  0.
         14    1    1    2    0    0 -0.29652797252E-02 -0.68226261813E-02 -0.22363237561E-01  0.23568103574E-01  0.00000000000E+00 0. -1.
     999901    1    3    3    0    0 -0.70103005521E-01 -0.45616678854E-01  0.11368474857E+00  0.89124605740E+00  0.88000000000E+00 0.  1.
        -11    1    4    4    0    0  0.23483707275E-01  0.92029026173E-02 -0.29776261192E-01  0.39026462504E-01  0.51100000000E-03 0.  1.
         11    1    4    4    0    0  0.49584577971E-01  0.43236402418E-01 -0.61545249814E-01  0.90089376523E-01  0.51100000000E-03 0. -1.
</event>
<event>
 8    1  0.1143506E+005  0.1043930E+01  0.7957747E-01            NaN
         13   -1    0    0    0    0  0.00000000000E+00  0.00000000000E+00  0.74505805969E-08  0.10566000000E+00  0.10566000000E+00 0. -1.
     999900   -1    0    0    0    0 -0.00000000000E+00 -0.00000000000E+00 -0.74505805969E-08  0.93827000000E+00  0.93827000000E+00 0.  1.
     999902    2    1    2    0    0 -0.16596073024E-01 -0.89333686847E-02  0.15210814186E-01  0.10197100994E+01  0.10194224263E+01 0.  0.
     999903    2    3    3    0    0 -0.10141305905E+00 -0.26433538646E-01 -0.75898085881E-01  0.13077758863E+00  0.18945124331E-01 0.  0.
         14    1    1    2    0    0  0.16596073024E-01  0.89333686847E-02 -0.15210814186E-01  0.24219900580E-01  0.00000000000E+00 0.  1.
     999901    1    3    3    0    0  0.84816986029E-01  0.17500169961E-01  0.91108900067E-01  0.88893251079E+00  0.88000000000E+00 0. -1.
        -11    1    4    4    0    0 -0.89068496007E-01 -0.19053025474E-01 -0.58740132239E-01  0.10838301997E+00  0.51100000000E-03 0.  1.
         11    1    4    4    0    0 -0.12344563046E-01 -0.73805131718E-02 -0.17157953642E-01  0.22394568664E-01  0.51100000000E-03 0. -1.
</event>
<event>
 8    1  0.1143506E+005  0.1043930E+01  0.7957747E-01            NaN
         13   -1    0    0    0    0  0.00000000000E+00  0.00000000000E+00  0.74505805969E-08  0.10566000000E+00  0.10566000000E+00 0.  1.
     999900   -1    0    0    0    0 -0.00000000000E+00 -0.00000000000E+00 -0.74505805969E-08  0.93827000000E+00  0.93827000000E+00 0.  1.
     999902    2    1    2    0    0 -0.19245551076E-01 -0.14997207380E-01 -0.22500566922E-02  0.10194275466E+01  0.10191330397E+01 0.  0.
     999903    2    3    3    0    0 -0.26584344386E-01 -0.12361363732E+00  0.32658116793E-01  0.13203250084E+00  0.19467151477E-01 0.  0.
         14    1    1    2    0    0  0.19245551076E-01  0.14997207380E-01  0.22500566922E-02  0.24502453357E-01  0.00000000000E+00 0. -1.
     999901    1    3    3    0    0  0.73387933102E-02  0.10861642994E+00 -0.34908173485E-01  0.88739504580E+00  0.88000000000E+00 0.  1.
        -11    1    4    4    0    0 -0.13059495027E-01 -0.46837802217E-01  0.21910876466E-01  0.53335520579E-01  0.51100000000E-03 0.  1.
         11    1    4    4    0    0 -0.13524849359E-01 -0.76775835107E-01  0.10747240327E-01  0.78696980261E-01  0.51100000000E-03 0. -1.
</event>
<event>
 8    1  0.1143506E+005  0.1043930E+01  0.7957747E-01            NaN
         13   -1    0    0    0    0  0.00000000000E+00  0.00000000000E+00  0.74505805969E-08  0.10566000000E+00  0.10566000000E+00 0.  1.
     999900   -1    0    0    0    0 -0.00000000000E+00 -0.00000000000E+00 -0.74505805969E-08  0.93827000000E+00  0.93827000000E+00 0.  1.
     999902    2    1    2    0    0  0.34253444294E-02  0.26939190763E-01 -0.90576929419E-02  0.10153031807E+01  0.10148995290E+01 0.  0.
     999903    2    3    3    0    0 -0.71975941856E-01 -0.60454205545E-01  0.77562130744E-01  0.12354875621E+00  0.20326432580E-01 0.  0.
         14    1    1    2    0    0 -0.34253444294E-02 -0.26939190763E-01  0.90576929419E-02  0.28626819328E-01  0.00000000000E+00 0.  1.
     999901    1    3    3    0    0  0.75401286285E-01  0.87393396308E-01 -0.86619823686E-01  0.89175442446E+00  0.88000000000E+00 0.  1.
        -11    1    4    4    0    0 -0.50957264908E-01 -0.53428420797E-01  0.62646211637E-01  0.96829995091E-01  0.51100000000E-03 0. -1.
         11    1    4    4    0    0 -0.21018676948E-01 -0.70257847476E-02  0.14915919107E-01  0.26718761120E-01  0.51100000000E-03 0.  1.
</event>
<event>
 8    1  0.1143506E+005  0.1043930E+01  0.7957747E-01            NaN
         13   -1    0    0    0    0  0.00000000000E+00  0.00000000000E+00  0.74505805969E-08  0.10566000000E+00  0.10566000000E+00 0.  1.
     999900   -1    0    0    0    0 -0.00000000000E+00 -0.00000000000E+00 -0.74505805969E-08  0.93827000000E+00  0.93827000000E+00 0.  1.
     999902    2    1    2    0    0 -0.63754869642E-02 -0.21827991611E-01  0.65458451695E-02  0.10202666076E+01  0.10199921541E+01 0.  0.
     999903    2    3    3    0    0 -0.10903196482E+00 -0.72652910986E-01  0.10350273517E-01  0.13283435746E+00  0.19272351542E-01 0.  0.
         14    1    1    2    0    0  0.63754869642E-02  0.21827991611E-01 -0.65458451695E-02  0.23663392419E-01  0.00000000000E+00 0. -1.
     999901    1    3    3    0    0  0.10265647785E+00  0.50824919375E-01 -0.38044283475E-02  0.88743225012E+00  0.88000000000E+00 0. -1.
        -11    1    4    4    0    0 -0.73676649298E-01 -0.48886600365E-01 -0.21058289916E-02  0.88446842701E-01  0.51100000000E-03 0.  1.
         11    1    4    4    0    0 -0.35355315520E-01 -0.23766310621E-01  0.12456102509E-01  0.44387514762E-01  0.51100000000E-03 0. -1.
</event>
<event>
 8    1  0.1143506E+005  0.1043930E+01  0.7957747E-01            NaN
         13   -1    0    0    0    0  0.00000000000E+00  0.00000000000E+00  0.74505805969E-08  0.10566000000E+00  0.10566000000E+00 0.  1.
     999900   -1    0    0    0    0 -0.00000000000E+00 -0.00000000000E+00 -0.74505805969E-08  0.93827000000E+00  0.93827000000E+00 0. -1.
     999902    2    1    2    0    0  0.92077361341E-02 -0.20989303892E-01 -0.42331495406E-03  0.10210059411E+01  0.10207485583E+01 0.  0.
     999903    2    3    3    0    0  0.61087604601E-01  0.40742079764E-01 -0.10659695510E+00  0.13096373625E+00  0.19924278605E-01 0.  0.
         14    1    1    2    0    0 -0.92077361341E-02  0.20989303892E-01  0.42331495406E-03  0.22924058937E-01  0.00000000000E+00 0. -1.
     999901    1    3    3    0    0 -0.51879868467E-01 -0.61731383656E-01  0.10617364014E+00  0.89004220481E+00  0.88000000000E+00 0.  1.
        -11    1    4    4    0    0  0.37852641636E-01  0.30404001719E-01 -0.83578808864E-01  0.96658699616E-01  0.51100000000E-03 0. -1.
         11    1    4    4    0    0  0.23234962965E-01  0.10338078045E-01 -0.23018146235E-01  0.34305036638E-01  0.51100000000E-03 0.  1.
</event>
<event>
 8    1  0.1143506E+005  0.1043930E+01  0.7957747E-01            NaN
         13   -1    0    0    0    0  0.00000000000E+00  0.00000000000E+00  0.74505805969E-08  0.10566000000E+00  0.10566000000E+00 0.  1.
     999900   -1    0    0    0    0 -0.00000000000E+00 -0.00000000000E+00 -0.74505805969E-08  0.93827000000E+00  0.93827000000E+00 0.  1.
     999902    2    1    2    0    0  0.57496277684E-02 -0.15995671362E-01  0.13835866017E-01  0.10220130908E+01  0.10217780614E+01 0.  0.
     999903    2    3    3    0    0  0.61513783437E-01 -0.22829871578E-01 -0.11217382653E+00  0.13126352441E+00  0.18493157997E-01 0.  0.
         14    1    1    2    0    0 -0.57496277684E-02  0.15995671362E-01 -0.13835866017E-01  0.21916909231E-01  0.00000000000E+00 0. -1.
     999901    1    3    3    0    0 -0.55764155668E-01  0.68342002157E-02  0.12600969255E+00  0.89074956636E+00  0.88000000000E+00 0. -1.
        -11    1    4    4    0    0  0.15935188348E-01 -0.21339656732E-03 -0.16782201967E-01  0.23149064552E-01  0.51100000000E-03 0.  1.
         11    1    4    4    0    0  0.45578595089E-01 -0.22616475010E-01 -0.95391624566E-01  0.10811445986E+00  0.51100000000E-03 0. -1.
</event>
<event>
 7    1  0.1143506E+005  0.1043930E+01  0.7957747E-01            NaN
         13   -1    0    0    0    0  0.00000000000E+00  0.00000000000E+00  0.74505805969E-08  0.10566000000E+00  0.10566000000E+00 0. -1.
     999900   -1    0    0    0    0 -0.00000000000E+00 -0.00000000000E+00 -0.74505805969E-08  0.93827000000E+00  0.93827000000E+00 0. -1.
     999903    2    1    2    0    0  0.77548082681E-01  0.67805227446E-01  0.79733978170E-02  0.10541685697E+00  0.20925693883E-01 0.  0.
         14    1    1    2    0    0 -0.30888865771E-01  0.37334751176E-01 -0.15879712948E-01  0.50991871483E-01  0.00000000000E+00 0.  1.
     999901    1    1    2    0    0 -0.46659216910E-01 -0.10513997862E+00  0.79063151312E-02  0.88752127155E+00  0.88000000000E+00 0.  1.
        -11    1    3    3    0    0  0.54965337158E-01  0.55433652166E-01  0.13097957881E-01  0.79157410917E-01  0.51100000000E-03 0.  1.
         11    1    3    3    0    0  0.22582745523E-01  0.12371575280E-01 -0.51245600638E-02  0.26259446055E-01  0.51100000000E-03 0. -1.
</event>
<event>
 8    1  0.1143506E+005  0.1043930E+01  0.7957747E-01            NaN
         13   -1    0    0    0    0  0.00000000000E+00  0.00000000000E+00  0.74505805969E-08  0.10566000000E+00  0.10566000000E+00 0. -1.
     999900   -1    0    0    0    0 -0.00000000000E+00 -0.00000000000E+00 -0.74505805969E-08  0.93827000000E+00  0.93827000000E+00 0. -1.
     999902    2    1    2    0    0 -0.57367702441E-02  0.12846222806E-01 -0.10738847996E-01  0.10262308805E+01  0.10260782433E+01 0.  0.
     999903    2    3    3    0    0  0.61767413028E-02  0.55462546089E-01 -0.12449864281E+00  0.13780565933E+00  0.19396946439E-01 0.  0.
         14    1    1    2    0    0  0.57367702441E-02 -0.12846222806E-01  0.10738847996E-01  0.17699119455E-01  0.00000000000E+00 0.  1.
     999901    1    3    3    0    0 -0.11913511547E-01 -0.42616323283E-01  0.11375979481E+00  0.88842522121E+00  0.88000000000E+00 0.  1.
        -11    1    4    4    0    0  0.68869378341E-02  0.30337854028E-01 -0.89191755688E-01  0.94462932960E-01  0.51100000000E-03 0. -1.
         11    1    4    4    0    0 -0.71019653131E-03  0.25124692061E-01 -0.35306887122E-01  0.43342726374E-01  0.51100000000E-03 0.  1.
</event>
<event>
 8    1  0.1143506E+005  0.1043930E+01  0.7957747E-01            NaN
         13   -1    0    0    0    0  0.00000000000E+00  0.00000000000E+00  0.74505805969E-08  0.10566000000E+00  0.10566000000E+00 0. -1.
     999900   -1    0    0    0    0 -0.00000000000E+00 -0.00000000000E+00 -0.74505805969E-08  0.93827000000E+00  0.93827000000E+00 0. -1.
     999902    2    1    2    0    0  0.11472693225E-01  0.19579530975E-01 -0.12248948502E-01  0.10181420675E+01  0.10178154313E+01 0.  0.
     999903    2    3    3    0    0 -0.14750022887E-01  0.11999589689E+00  0.44117661080E-01  0.13025228152E+00  0.20067644964E-01 0.  0.
         14    1    1    2    0    0 -0.11472693225E-01 -0.19579530975E-01  0.12248948502E-01  0.25787932496E-01  0.00000000000E+00 0. -1.
     999901    1    3    3    0    0  0.26222716113E-01 -0.10041636592E+00 -0.56366609582E-01  0.88788978599E+00  0.88000000000E+00 0.  1.
        -11    1    4    4    0    0 -0.11443982432E-01  0.11817502238E+00  0.43101104278E-01  0.12631020133E+00  0.51100000000E-03 0. -1.
         11    1    4    4    0    0 -0.33060404552E-02  0.18208745154E-02  0.10165568027E-02  0.39420801901E-02  0.51100000000E-03 0.  1.
</event>
<event>
 7    1  0.1143506E+005  0.1043930E+01  0.7957747E-01            NaN
         13   -1    0    0    0    0  0.00000000000E+00  0.00000000000E+00  0.74505805969E-08  0.10566000000E+00  0.10566000000E+00 0.  1.
     999900   -1    0    0    0    0 -0.00000000000E+00 -0.00000000000E+00 -0.74505805969E-08  0.93827000000E+00  0.93827000000E+00 0. -1.
     999903    2    1    2    0    0  0.49292676951E-01 -0.19102253835E-01  0.89232963008E-01  0.10594035258E+00  0.21591028569E-01 0.  0.
         14    1    1    2    0    0 -0.27767745424E-01  0.33108970409E-01  0.25493106517E-01  0.50171207753E-01  0.00000000000E+00 0.  1.
     999901    1    1    2    0    0 -0.21524931527E-01 -0.14006716573E-01 -0.11472606953E+00  0.88781843967E+00  0.88000000000E+00 0. -1.
        -11    1    3    3    0    0  0.38326784901E-01 -0.12650010298E-01  0.81747690390E-01  0.91169683593E-01  0.51100000000E-03 0. -1.
         11    1    3    3    0    0  0.10965892050E-01 -0.64522435370E-02  0.74852726186E-02  0.14770668986E-01  0.51100000000E-03 0.  1.
</event>
<event>
 8    1  0.1143506E+005  0.1043930E+01  0.7957747E-01            NaN
         13   -1    0    0    0    0  0.00000000000E+00  0.00000000000E+00  0.74505805969E-08  0.10566000000E+00  0.10566000000E+00 0. -1.
     999900   -1    0    0    0    0 -0.00000000000E+00 -0.00000000000E+00 -0.74505805969E-08  0.93827000000E+00  0.93827000000E+00 0. -1.
     999902    2    1    2    0    0 -0.23361352269E-01  0.33718506197E-02 -0.25503981801E-02  0.10201891768E+01  0.10199129030E+01 0.  0.
     999903    2    3    3    0    0  0.17679973068E-01 -0.11905581884E+00 -0.44566630998E-01  0.12977450458E+00  0.19192915189E-01 0.  0.
         14    1    1    2    0    0  0.23361352269E-01 -0.33718506197E-02  0.25503981801E-02  0.23740823223E-01  0.00000000000E+00 0. -1.
     999901    1    3    3    0    0 -0.41041325338E-01  0.12242766946E+00  0.42016232817E-01  0.89041467219E+00  0.88000000000E+00 0. -1.
        -11    1    4    4    0    0  0.19071760496E-01 -0.64739334858E-01 -0.26595217707E-01  0.72542954531E-01  0.51100000000E-03 0.  1.
         11    1    4    4    0    0 -0.13917874280E-02 -0.54316483985E-01 -0.17971413290E-01  0.57231550053E-01  0.51100000000E-03 0. -1.
</event>
<event>
 8    1  0.1143506E+005  0.1043930E+01  0.7957747E-01            NaN
         13   -1    0    0    0    0  0.00000000000E+00  0.00000000000E+00  0.74505805969E-08  0.10566000000E+00  0.10566000000E+00 0. -1.
     999900   -1    0    0    0    0 -0.00000000000E+00 -0.00000000000E+00 -0.74505805969E-08  0.93827000000E+00  0.93827000000E+00 0. -1.
     999902    2    1    2    0    0 -0.16397487876E-01  0.16428203840E-01 -0.66353688747E-02  0.10197889228E+01  0.10195031414E+01 0.  0.
     999903    2    3    3    0    0 -0.26249360100E-01  0.12155439634E+00  0.40264578144E-01  0.13223713229E+00  0.20023054954E-01 0.  0.
         14    1    1    2    0    0  0.16397487876E-01 -0.16428203840E-01  0.66353688747E-02  0.24141077237E-01  0.00000000000E+00 0. -1.
     999901    1    3    3    0    0  0.98518722232E-02 -0.10512619250E+00 -0.46899947019E-01  0.88755179047E+00  0.88000000000E+00 0.  1.
        -11    1    4    4    0    0 -0.12396250806E-01  0.92031854402E-01  0.24669330670E-01  0.96085203104E-01  0.51100000000E-03 0. -1.
         11    1    4    4    0    0 -0.13853109294E-01  0.29522541934E-01  0.15595247474E-01  0.36151929190E-01  0.51100000000E-03 0.  1.
</event>
<event>
 8    1  0.1143506E+005  0.1043930E+01  0.7957747E-01            NaN
         13   -1    0    0    0    0  0.00000000000E+00  0.00000000000E+00  0.74505805969E-08  0.10566000000E+00  0.10566000000E+00 0. -1.
     999900   -1    0    0    0    0 -0.00000000000E+00 -0.00000000000E+00 -0.74505805969E-08  0.93827000000E+00  0.93827000000E+00 0.  1.
     999902    2    1    2    0    0  0.92630687235E-02  0.45607980595E-02 -0.20163059957E-01  0.10212770905E+01  0.10210258279E+01 0.  0.
     999903    2    3    3    0    0 -0.60755963370E-01  0.86636871549E-01  0.72553540184E-01  0.12985378219E+00  0.20018840089E-01 0.  0.
         14    1    1    2    0    0 -0.92630687235E-02 -0.45607980595E-02  0.20163059957E-01  0.22652909480E-01  0.00000000000E+00 0. -1.
     999901    1    3    3    0    0  0.70019032093E-01 -0.82076073489E-01 -0.92716600141E-01  0.89142330833E+00  0.88000000000E+00 0.  1.
        -11    1    4    4    0    0 -0.21304095496E-01  0.40843645265E-01  0.21991101388E-01  0.51048383957E-01  0.51100000000E-03 0.  1.
         11    1    4    4    0    0 -0.39451867874E-01  0.45793226284E-01  0.50562438797E-01  0.78805398231E-01  0.51100000000E-03 0. -1.
</event>
<event>
 8    1  0.1143506E+005  0.1043930E+01  0.7957747E-01            NaN
         13   -1    0    0    0    0  0.00000000000E+00  0.00000000000E+00  0.74505805969E-08  0.10566000000E+00  0.10566000000E+00 0.  1.
     999900   -1    0    0    0    0 -0.00000000000E+00 -0.00000000000E+00 -0.74505805969E-08  0.93827000000E+00  0.93827000000E+00 0. -1.
     999902    2    1    2    0    0 -0.22547786872E-02  0.23961361564E-01 -0.90240913002E-02  0.10182265936E+01  0.10179021225E+01 0.  0.
     999903    2    3    3    0    0  0.78469749181E-01 -0.52587632402E-02 -0.10023039672E+00  0.12935716833E+00  0.22405098615E-01 0.  0.
         14    1    1    2    0    0  0.22547786872E-02 -0.23961361564E-01  0.90240913002E-02  0.25703406364E-01  0.00000000000E+00 0.  1.
     999901    1    3    3    0    0 -0.80724527868E-01  0.29220124804E-01  0.91206305423E-01  0.88886942530E+00  0.88000000000E+00 0. -1.
        -11    1    4    4    0    0  0.20393704120E-01 -0.11196933730E-01 -0.31832792940E-01  0.39431742544E-01  0.51100000000E-03 0. -1.
         11    1    4    4    0    0  0.58076045061E-01  0.59381704897E-02 -0.68397603783E-01  0.89925425787E-01  0.51100000000E-03 0.  1.
</event>
<event>
 8    1  0.1143506E+005  0.1043930E+01  0.7957747E-01            NaN
         13   -1    0    0    0    0  0.00000000000E+00  0.00000000000E+00  0.74505805969E-08  0.10566000000E+00  0.10566000000E+00 0. -1.
     999900   -1    0    0    0    0 -0.00000000000E+00 -0.00000000000E+00 -0.74505805969E-08  0.93827000000E+00  0.93827000000E+00 0. -1.
     999902    2    1    2    0    0 -0.20457982424E-01  0.95813798114E-02  0.87382508235E-02  0.10197083380E+01  0.10194206225E+01 0.  0.
     999903    2    3    3    0    0  0.39084592699E-02 -0.72467247977E-01  0.10633296769E+00  0.13018575278E+00  0.19361098295E-01 0.  0.
         14    1    1    2    0    0  0.20457982424E-01 -0.95813798114E-02 -0.87382508235E-02  0.24221662028E-01  0.00000000000E+00 0.  1.
     999901    1    3    3    0    0 -0.24366441694E-01  0.82048627788E-01 -0.97594716863E-01  0.88952258519E+00  0.88000000000E+00 0. -1.
        -11    1    4    4    0    0 -0.58530599842E-02 -0.40522708806E-01  0.67625826554E-01  0.79056067309E-01  0.51100000000E-03 0. -1.
         11    1    4    4    0    0  0.97615192542E-02 -0.31944539171E-01  0.38707141133E-01  0.51129685474E-01  0.51100000000E-03 0.  1.
</event>
<event>
 8    1  0.1143506E+005  0.1043930E+01  0.7957747E-01            NaN
         13   -1    0    0    0    0  0.00000000000E+00  0.00000000000E+00  0.74505805969E-08  0.10566000000E+00  0.10566000000E+00 0. -1.
     999900   -1    0    0    0    0 -0.00000000000E+00 -0.00000000000E+00 -0.74505805969E-08  0.93827000000E+00  0.93827000000E+00 0.  1.
     999902    2    1    2    0    0 -0.10775167823E-01  0.31219084272E-02 -0.22172580136E-01  0.10190809786E+01  0.10187779773E+01 0.  0.
     999903    2    3    3    0    0 -0.19328945539E-01 -0.11886752396E+00  0.39996549468E-01  0.12845221791E+00  0.19928671012E-01 0.  0.
         14    1    1    2    0    0  0.10775167823E-01 -0.31219084272E-02  0.22172580136E-01  0.24849021383E-01  0.00000000000E+00 0. -1.
     999901    1    3    3    0    0  0.85537777167E-02  0.12198943239E+00 -0.62169129603E-01  0.89062876071E+00  0.88000000000E+00 0. -1.
        -11    1    4    4    0    0 -0.12540791606E-01 -0.97844580664E-01  0.25058756830E-01  0.10177934876E+00  0.51100000000E-03 0. -1.
         11    1    4    4    0    0 -0.67881539338E-02 -0.21022943295E-01  0.14937792638E-01  0.26672869147E-01  0.51100000000E-03 0.  1.
</event>
<event>
 8    1  0.1143506E+005  0.1043930E+01  0.7957747E-01            NaN
         13   -1    0    0    0    0  0.00000000000E+00  0.00000000000E+00  0.74505805969E-08  0.10566000000E+00  0.10566000000E+00 0.  1.
     999900   -1    0    0    0    0 -0.00000000000E+00 -0.00000000000E+00 -0.74505805969E-08  0.93827000000E+00  0.93827000000E+00 0.  1.
     999902    2    1    2    0    0  0.20989854768E-01 -0.52924120736E-02 -0.17124114202E-01  0.10163289327E+01  0.10159540740E+01 0.  0.
     999903    2    3    3    0    0  0.69679734175E-01  0.83258360696E-01  0.62881252934E-01  0.12693992755E+00  0.19299566198E-01 0.  0.
         14    1    1    2    0    0 -0.20989854768E-01  0.52924120736E-02  0.17124114202E-01  0.27601067297E-01  0.00000000000E+00 0.  1.
     999901    1    3    3    0    0 -0.48689879407E-01 -0.88550772770E-01 -0.80005367136E-01  0.88938900515E+00  0.88000000000E+00 0. -1.
        -11    1    4    4    0    0  0.12817112272E-01  0.56877054904E-02  0.94041181420E-02  0.16891622769E-01  0.51100000000E-03 0. -1.
         11    1    4    4    0    0  0.56862621904E-01  0.77570655206E-01  0.53477134792E-01  0.11004830478E+00  0.51100000000E-03 0.  1.
</event>
<event>
 8    1  0.1143506E+005  0.1043930E+01  0.7957747E-01            NaN
         13   -1    0    0    0    0  0.00000000000E+00  0.00000000000E+00  0.74505805969E-08  0.10566000000E+00  0.10566000000E+00 0. -1.
     999900   -1    0    0    0    0 -0.00000000000E+00 -0.00000000000E+00 -0.74505805969E-08  0.93827000000E+00  0.93827000000E+00 0.  1.
     999902    2    1    2    0    0  0.23029465013E-01 -0.18991349608E-02 -0.75521458886E-04  0.10208222378E+01  0.10205606657E+01 0.  0.
     999903    2    3    3    0    0 -0.26029710816E-01 -0.35884956504E-01 -0.12109979186E+00  0.13053648991E+00  0.20232144229E-01 0.  0.
         14    1    1    2    0    0 -0.23029465013E-01  0.18991349608E-02  0.75521458886E-04  0.23107762243E-01  0.00000000000E+00 0.  1.
     999901    1    3    3    0    0  0.49059175829E-01  0.33985821543E-01  0.12102427040E+00  0.89028574785E+00  0.88000000000E+00 0. -1.
        -11    1    4    4    0    0 -0.18322864807E-02 -0.93281780287E-02 -0.10160879808E-01  0.13923964183E-01  0.51100000000E-03 0. -1.
         11    1    4    4    0    0 -0.24197424335E-01 -0.26556778476E-01 -0.11093891205E+00  0.11661252572E+00  0.51100000000E-03 0.  1.
</event>
<event>
 8    1  0.1143506E+005  0.1043930E+01  0.7957747E-01            NaN
         13   -1    0    0    0    0  0.00000000000E+00  0.00000000000E+00  0.74505805969E-08  0.10566000000E+00  0.10566000000E+00 0. -1.
     999900   -1    0    0    0    0 -0.00000000000E+00 -0.00000000000E+00 -0.74505805969E-08  0.93827000000E+00  0.93827000000E+00 0.  1.
     999902    2    1    2    0    0  0.69290404501E-02 -0.21644451026E-01  0.66103887666E-03  0.10211938870E+01  0.10209407544E+01 0.  0.
     999903    2    3    3    0    0  0.15050095463E-01 -0.13157071335E+00  0.10252689901E-01  0.13426562922E+00  0.19615900605E-01 0.  0.
         14    1    1    2    0    0 -0.69290404501E-02  0.21644451026E-01 -0.66103887666E-03  0.22736112996E-01  0.00000000000E+00 0. -1.
     999901    1    3    3    0    0 -0.81210550128E-02  0.10992626232E+00 -0.95916510239E-02  0.88692825778E+00  0.88000000000E+00 0. -1.
        -11    1    4    4    0    0 -0.25573301746E-02 -0.62503961520E-01  0.32040560233E-02  0.62640340351E-01  0.51100000000E-03 0.  1.
         11    1    4    4    0    0  0.17607425638E-01 -0.69066751826E-01  0.70486338773E-02  0.71625288871E-01  0.51100000000E-03 0. -1.
</event>
<event>
 8    1  0.1143506E+005  0.1043930E+01  0.7957747E-01            NaN
         13   -1    0    0    0    0  0.00000000000E+00  0.00000000000E+00  0.74505805969E-08  0.10566000000E+00  0.10566000000E+00 0. -1.
     999900   -1    0    0    0    0 -0.00000000000E+00 -0.00000000000E+00 -0.74505805969E-08  0.93827000000E+00  0.93827000000E+00 0.  1.
     999902    2    1    2    0    0  0.15618028679E-01  0.18247256729E-01 -0.29280075608E-02  0.10197337518E+01  0.10194466470E+01 0.  0.
     999903    2    3    3    0    0  0.24217620393E-01  0.79299973617E-02 -0.12679448365E+00  0.13095745672E+00  0.20582429176E-01 0.  0.
         14    1    1    2    0    0 -0.15618028679E-01 -0.18247256729E-01  0.29280075608E-02  0.24196248184E-01  0.00000000000E+00 0. -1.
     999901    1    3    3    0    0 -0.85995917137E-02  0.10317259367E-01  0.12386647609E+00  0.88877629509E+00  0.88000000000E+00 0. -1.
        -11    1    4    4    0    0  0.13792136814E-01  0.45795312389E-02 -0.10963463363E+00  0.11059479715E+00  0.51100000000E-03 0. -1.
         11    1    4    4    0    0  0.10425483579E-01  0.33504661227E-02 -0.17159850022E-01  0.20362659573E-01  0.51100000000E-03 0.  1.
</event>
<event>
 8    1  0.1143506E+005  0.1043930E+01  0.7957747E-01            NaN
         13   -1    0    0    0    0  0.00000000000E+00  0.00000000000E+00  0.74505805969E-08  0.10566000000E+00  0.10566000000E+00 0. -1.
     999900   -1    0    0    0    0 -0.00000000000E+00 -0.00000000000E+00 -0.74505805969E-08  0.93827000000E+00  0.93827000000E+00 0. -1.
     999902    2    1    2    0    0  0.18074993990E-01  0.11324701209E-01  0.17118968616E-01  0.10165801672E+01  0.10162121939E+01 0.  0.
     999903    2    3    3    0    0  0.94324505305E-01 -0.80597168964E-01 -0.22444323862E-01  0.12763198411E+00  0.19828256293E-01 0.  0.
         14    1    1    2    0    0 -0.18074993990E-01 -0.11324701209E-01 -0.17118968616E-01  0.27349832754E-01  0.00000000000E+00 0.  1.
     999901    1    3    3    0    0 -0.76249511316E-01  0.91921870173E-01  0.39563292479E-01  0.88894818314E+00  0.88000000000E+00 0.  1.
        -11    1    4    4    0    0  0.61524140207E-01 -0.48884891622E-01 -0.23409066324E-01  0.81995109393E-01  0.51100000000E-03 0. -1.
         11    1    4    4    0    0  0.32800365098E-01 -0.31712277341E-01  0.96474246184E-03  0.45636874715E-01  0.51100000000E-03 0.  1.
</event>
<event>
 8    1  0.1143506E+005  0.1043930E+01  0.7957747E-01            NaN
         13   -1    0    0    0    0  0.00000000000E+00  0.00000000000E+00  0.74505805969E-08  0.10566000000E+00  0.10566000000E+00 0.  1.
     999900   -1    0    0    0    0 -0.00000000000E+00 -0.00000000000E+00 -0.74505805969E-08  0.93827000000E+00  0.93827000000E+00 0.  1.
     999902    2    1    2    0    0  0.19391208570E-01  0.12470832980E-01 -0.50901294157E-02  0.10203196196E+01  0.10200464088E+01 0.  0.
     999903    2    3    3    0    0  0.58110100587E-01 -0.11480102191E+00 -0.30691008751E-02  0.13031885432E+00  0.20433452678E-01 0.  0.
         14    1    1    2    0    0 -0.19391208570E-01 -0.12470832980E-01  0.50901294157E-02  0.23610380397E-01  0.00000000000E+00 0. -1.
     999901    1    3    3    0    0 -0.38718892016E-01  0.12727185489E+00 -0.20210285405E-02  0.89000076528E+00  0.88000000000E+00 0. -1.
        -11    1    4    4    0    0  0.12378698062E-01 -0.37905614225E-01  0.62541854889E-02  0.40366368584E-01  0.51100000000E-03 0.  1.
         11    1    4    4    0    0  0.45731402524E-01 -0.76895407689E-01 -0.93232863641E-02  0.89952485736E-01  0.51100000000E-03 0. -1.
</event>
<event>
 8    1  0.1143506E+005  0.1043930E+01  0.7957747E-01            NaN
         13   -1    0    0    0    0  0.00000000000E+00  0.00000000000E+00  0.74505805969E-08  0.10566000000E+00  0.10566000000E+00 0.  1.
     999900   -1    0    0    0    0 -0.00000000000E+00 -0.00000000000E+00 -0.74505805969E-08  0.93827000000E+00  0.93827000000E+00 0. -1.
     999902    2    1    2    0    0 -0.58914596967E-02 -0.22465366083E-01  0.24553804490E-02  0.10205755387E+01  0.10203082864E+01 0.  0.
     999903    2    3    3    0    0 -0.53692270778E-01 -0.86971010601E-01 -0.82396397739E-01  0.13285614609E+00  0.20365965890E-01 0.  0.
         14    1    1    2    0    0  0.58914596967E-02  0.22465366083E-01 -0.24553804490E-02  0.23354461324E-01  0.00000000000E+00 0. -1.
     999901    1    3    3    0    0  0.47800811081E-01  0.64505644518E-01  0.84851778188E-01  0.88771939259E+00  0.88000000000E+00 0.  1.
        -11    1    4    4    0    0 -0.33678955520E-01 -0.37543990851E-01 -0.33880123138E-01  0.60761395299E-01  0.51100000000E-03 0.  1.
         11    1    4    4    0    0 -0.20013315258E-01 -0.49427019751E-01 -0.48516274601E-01  0.72094750788E-01  0.51100000000E-03 0. -1.
</event>
<event>
 8    1  0.1143506E+005  0.1043930E+01  0.7957747E-01            NaN
         13   -1    0    0    0    0  0.00000000000E+00  0.00000000000E+00  0.74505805969E-08  0.10566000000E+00  0.10566000000E+00 0.  1.
     999900   -1    0    0    0    0 -0.00000000000E+00 -0.00000000000E+00 -0.74505805969E-08  0.93827000000E+00  0.93827000000E+00 0. -1.
     999902    2    1    2    0    0  0.19205467273E-01  0.13350444344E-01  0.63036540902E-02  0.10197056240E+01  0.10194178433E+01 0.  0.
     999903    2    3    3    0    0  0.30242429583E-01 -0.57764467562E-01 -0.10939173090E+00  0.12922004448E+00  0.21907324026E-01 0.  0.
         14    1    1    2    0    0 -0.19205467273E-01 -0.13350444344E-01 -0.63036540902E-02  0.24224375993E-01  0.00000000000E+00 0. -1.
     999901    1    3    3    0    0 -0.11036962310E-01  0.71114911906E-01  0.11569538499E+00  0.89048557952E+00  0.88000000000E+00 0.  1.
        -11    1    4    4    0    0  0.32938772405E-01 -0.45952634572E-01 -0.87078031404E-01  0.10382413990E+00  0.51100000000E-03 0. -1.
         11    1    4    4    0    0 -0.26963428221E-02 -0.11811832990E-01 -0.22313699500E-01  0.25395904583E-01  0.51100000000E-03 0.  1.
</event>
<event>
 8    1  0.1143506E+005  0.1043930E+01  0.7957747E-01            NaN
         13   -1    0    0    0    0  0.00000000000E+00  0.00000000000E+00  0.74505805969E-08  0.10566000000E+00  0.10566000000E+00 0.  1.
     999900   -1    0    0    0    0 -0.00000000000E+00 -0.00000000000E+00 -0.74505805969E-08  0.93827000000E+00  0.93827000000E+00 0. -1.
     999902    2    1    2    0    0  0.12726018513E-01  0.17185879466E-01 -0.79874507713E-02  0.10211022675E+01  0.10208470676E+01 0.  0.
     999903    2    3    3    0    0 -0.26849395041E-02  0.92427528617E-01 -0.94380926144E-01  0.13354233378E+00  0.19383981684E-01 0.  0.
         14    1    1    2    0    0 -0.12726018513E-01 -0.17185879466E-01  0.79874507713E-02  0.22827732477E-01  0.00000000000E+00 0.  1.
     999901    1    3    3    0    0  0.15410958017E-01 -0.75241649151E-01  0.86393475373E-01  0.88755993374E+00  0.88000000000E+00 0.  1.
        -11    1    4    4    0    0  0.73434615096E-02  0.27483449460E-01 -0.33592382611E-01  0.44022445544E-01  0.51100000000E-03 0.  1.
         11    1    4    4    0    0 -0.10028401014E-01  0.64944079157E-01 -0.60788543533E-01  0.89519888239E-01  0.51100000000E-03 0. -1.
</event>
<event>
 8    1  0.1143506E+005  0.1043930E+01  0.7957747E-01            NaN
         13   -1    0    0    0    0  0.00000000000E+00  0.00000000000E+00  0.74505805969E-08  0.10566000000E+00  0.10566000000E+00 0. -1.
     999900   -1    0    0    0    0 -0.00000000000E+00 -0.00000000000E+00 -0.74505805969E-08  0.93827000000E+00  0.93827000000E+00 0. -1.
     999902    2    1    2    0    0 -0.47335018449E-02 -0.19790395057E-01  0.17880202618E-01  0.10168418583E+01  0.10164809872E+01 0.  0.
     999903    2    3    3    0    0 -0.33208973510E-01 -0.70698538400E-01 -0.98458410954E-01  0.12727052075E+00  0.20065081879E-01 0.  0.
         14    1    1    2    0    0  0.47335018449E-02  0.19790395057E-01 -0.17880202618E-01  0.27088141721E-01  0.00000000000E+00 0.  1.
     999901    1    3    3    0    0  0.28475471665E-01  0.50908143344E-01  0.11633861357E+00  0.88957133753E+00  0.88000000000E+00 0.  1.
        -11    1    4    4    0    0 -0.31734655051E-01 -0.46380459506E-01 -0.66086370171E-01  0.86751972880E-01  0.51100000000E-03 0.  1.
         11    1    4    4    0    0 -0.14743184593E-02 -0.24318078895E-01 -0.32372040783E-01  0.40518547871E-01  0.51100000000E-03 0. -1.
</event>
<event>
 8    1  0.1143506E+005  0.1043930E+01  0.7957747E-01            NaN
         13   -1    0    0    0    0  0.00000000000E+00  0.00000000000E+00  0.74505805969E-08  0.10566000000E+00  0.10566000000E+00 0. -1.
     999900   -1    0    0    0    0 -0.00000000000E+00 -0.00000000000E+00 -0.74505805969E-08  0.93827000000E+00  0.93827000000E+00 0. -1.
     999902    2    1    2    0    0 -0.50798552019E-02  0.18406477148E-01  0.14990211938E-01  0.10196542964E+01  0.10193652802E+01 0.  0.
     999903    2    3    3    0    0 -0.63521876895E-01  0.13742564590E-01 -0.10990521186E+00  0.12890400097E+00  0.17697427671E-01 0.  0.
         14    1    1    2    0    0  0.50798552019E-02 -0.18406477148E-01 -0.14990211938E-01  0.24275703570E-01  0.00000000000E+00 0.  1.
     999901    1    3    3    0    0  0.58442021693E-01  0.46639125576E-02  0.12489542380E+00  0.89075029546E+00  0.88000000000E+00 0.  1.
        -11    1    4    4    0    0 -0.50661825931E-01  0.32812726320E-02 -0.82436063981E-01  0.96816078842E-01  0.51100000000E-03 0.  1.
         11    1    4    4    0    0 -0.12860050964E-01  0.10461291958E-01 -0.27469147878E-01  0.32087922126E-01  0.51100000000E-03 0. -1.
</event>
<event>
 8    1  0.1143506E+005  0.1043930E+01  0.7957747E-01            NaN
         13   -1    0    0    0    0  0.00000000000E+00  0.00000000000E+00  0.74505805969E-08  0.10566000000E+00  0.10566000000E+00 0. -1.
     999900   -1    0    0    0    0 -0.00000000000E+00 -0.00000000000E+00 -0.74505805969E-08  0.93827000000E+00  0.93827000000E+00 0.  1.
     999902    2    1    2    0    0  0.21004611271E-01  0.15503954239E-01  0.12130401405E-01  0.10151426255E+01  0.10147343678E+01 0.  0.
     999903    2    3    3    0    0 -0.97021718743E-01  0.69460903530E-01  0.33453517081E-01  0.12536948464E+00  0.18982593261E-01 0.  0.
         14    1    1    2    0    0 -0.21004611271E-01 -0.15503954239E-01 -0.12130401405E-01  0.28787374488E-01  0.00000000000E+00 0.  1.
     999901    1    3    3    0    0  0.11802633001E+00 -0.53956949291E-01 -0.21323115676E-01  0.88977314087E+00  0.88000000000E+00 0. -1.
        -11    1    4    4    0    0 -0.46592259278E-01  0.41827118342E-01  0.24172554170E-01  0.67118700446E-01  0.51100000000E-03 0. -1.
         11    1    4    4    0    0 -0.50429459465E-01  0.27633785189E-01  0.92809629104E-02  0.58250784195E-01  0.51100000000E-03 0.  1.
</event>
<event>
 8    1  0.1143506E+005  0.1043930E+01  0.7957747E-01            NaN
         13   -1    0    0    0    0  0.00000000000E+00  0.00000000000E+00  0.74505805969E-08  0.10566000000E+00  0.10566000000E+00 0.  1.
     999900   -1    0    0    0    0 -0.00000000000E+00 -0.00000000000E+00 -0.74505805969E-08  0.93827000000E+00  0.93827000000E+00 0. -1.
     999902    2    1    2    0    0  0.59162138270E-02  0.34277018040E-02 -0.22069580219E-01  0.10208255178E+01  0.10205640209E+01 0.  0.
     999903    2    3    3    0    0  0.68423582329E-02 -0.12413397776E+00  0.30301784461E-01  0.13008672352E+00  0.23415703977E-01 0.  0.
         14    1    1    2    0    0 -0.59162138270E-02 -0.34277018040E-02  0.22069580219E-01  0.23104482178E-01  0.00000000000E+00 0.  1.
     999901    1    3    3    0    0 -0.92614440585E-03  0.12756167957E+00 -0.52371364680E-01  0.89073879430E+00  0.88000000000E+00 0.  1.
        -11    1    4    4    0    0 -0.61415464279E-02 -0.84965953155E-01  0.22158116928E-01  0.88023718706E-01  0.51100000000E-03 0. -1.
         11    1    4    4    0    0  0.12983904661E-01 -0.39168024609E-01  0.81436675334E-02  0.42063004813E-01  0.51100000000E-03 0.  1.
</event>
<event>
 8    1  0.1143506E+005  0.1043930E+01  0.7957747E-01            NaN
         13   -1    0    0    0    0  0.00000000000E+00  0.00000000000E+00  0.74505805969E-08  0.10566000000E+00  0.10566000000E+00 0.  1.
     999900   -1    0    0    0    0 -0.00000000000E+00 -0.00000000000E+00 -0.74505805969E-08  0.93827000000E+00  0.93827000000E+00 0.  1.
     999902    2    1    2    0    0 -0.16171901289E-01  0.44397767902E-02  0.21710878950E-01  0.10164963660E+01  0.10161261033E+01 0.  0.
     999903    2    3    3    0    0 -0.56499882038E-01 -0.74566126023E-01 -0.82289237532E-01  0.12594355851E+00  0.18382532373E-01 0.  0.
         14    1    1    2    0    0  0.16171901289E-01 -0.44397767902E-02 -0.21710878950E-01  0.27433633993E-01  0.00000000000E+00 0. -1.
     999901    1    3    3    0    0  0.40327980748E-01  0.79005902814E-01  0.10400011648E+00  0.89055280750E+00  0.88000000000E+00 0. -1.
        -11    1    4    4    0    0 -0.45726770603E-01 -0.46657906230E-01 -0.53843699788E-01  0.84659924943E-01  0.51100000000E-03 0.  1.
         11    1    4    4    0    0 -0.10773111435E-01 -0.27908219793E-01 -0.28445537744E-01  0.41283633568E-01  0.51100000000E-03 0. -1.
</event>
<event>
 8    1  0.1143506E+005  0.1043930E+01  0.7957747E-01            NaN
         13   -1    0    0    0    0  0.00000000000E+00  0.00000000000E+00  0.74505805969E-08  0.10566000000E+00  0.10566000000E+00 0.  1.
     999900   -1    0    0    0    0 -0.00000000000E+00 -0.00000000000E+00 -0.74505805969E-08  0.93827000000E+00  0.93827000000E+00 0. -1.
     999902    2    1    2    0    0  0.19365583883E-01  0.10364284918E-01  0.79679448050E-02  0.10205648040E+01  0.10202973031E+01 0.  0.
     999903    2    3    3    0    0 -0.19412589000E-01 -0.89209584037E-01 -0.88727146327E-01  0.12884251384E+00  0.19816366503E-01 0.  0.
         14    1    1    2    0    0 -0.19365583883E-01 -0.10364284918E-01 -0.79679448050E-02  0.23365196028E-01  0.00000000000E+00 0. -1.
     999901    1    3    3    0    0  0.38778172884E-01  0.99573868955E-01  0.96695091132E-01  0.89172229013E+00  0.88000000000E+00 0.  1.
        -11    1    4    4    0    0 -0.17611714754E-01 -0.53183420311E-01 -0.64255346597E-01  0.85250568208E-01  0.51100000000E-03 0. -1.
         11    1    4    4    0    0 -0.18008742464E-02 -0.36026163727E-01 -0.24471799730E-01  0.43591945631E-01  0.51100000000E-03 0.  1.
</event>
<event>
 8    1  0.1143506E+005  0.1043930E+01  0.7957747E-01            NaN
         13   -1    0    0    0    0  0.00000000000E+00  0.00000000000E+00  0.74505805969E-08  0.10566000000E+00  0.10566000000E+00 0. -1.
     999900   -1    0    0    0    0 -0.00000000000E+00 -0.00000000000E+00 -0.74505805969E-08  0.93827000000E+00  0.93827000000E+00 0. -1.
     999902    2    1    2    0    0 -0.14520981179E-01 -0.10280866877E-01  0.16237150493E-01  0.10198426553E+01  0.10195581599E+01 0.  0.
     999903    2    3    3    0    0 -0.11738666724E+00  0.11260124764E-01  0.57132152062E-01  0.13264607910E+00  0.20602898960E-01 0.  0.
         14    1    1    2    0    0  0.14520981179E-01  0.10280866877E-01 -0.16237150493E-01  0.24087344692E-01  0.00000000000E+00 0.  1.
     999901    1    3    3    0    0  0.10286568606E+00 -0.21540991642E-01 -0.40895001569E-01  0.88719657621E+00  0.88000000000E+00 0.  1.
        -11    1    4    4    0    0 -0.29397207537E-01  0.77505630435E-03  0.49963664739E-02  0.29833225139E-01  0.51100000000E-03 0.  1.
         11    1    4    4    0    0 -0.87989459701E-01  0.10485068460E-01  0.52135785588E-01  0.10281285396E+00  0.51100000000E-03 0. -1.
</event>
<event>
 8    1  0.1143506E+005  0.1043930E+01  0.7957747E-01            NaN
         13   -1    0    0    0    0  0.00000000000E+00  0.00000000000E+00  0.74505805969E-08  0.10566000000E+00  0.10566000000E+00 0. -1.
     999900   -1    0    0    0    0 -0.00000000000E+00 -0.00000000000E+00 -0.74505805969E-08  0.93827000000E+00  0.93827000000E+00 0. -1.
     999902    2    1    2    0    0 -0.56213482714E-02 -0.17823450162E-01  0.17646287091E-01  0.10182265687E+01  0.10179020969E+01 0.  0.
     999903    2    3    3    0    0 -0.11378741904E+00  0.23791138278E-01 -0.49972174737E-01  0.12805583833E+00  0.19684625758E-01 0.  0.
         14    1    1    2    0    0  0.56213482714E-02  0.17823450162E-01 -0.17646287091E-01  0.25703431292E-01  0.00000000000E+00 0.  1.
     999901    1    3    3    0    0  0.10816607077E+00 -0.41614588441E-01  0.67618461828E-01  0.89017073037E+00  0.88000000000E+00 0. -1.
        -11    1    4    4    0    0 -0.43203493919E-01  0.13448887665E-01 -0.28808732067E-01  0.53643439772E-01  0.51100000000E-03 0. -1.
         11    1    4    4    0    0 -0.70583925119E-01  0.10342250613E-01 -0.21163442670E-01  0.74412398561E-01  0.51100000000E-03 0.  1.
</event>
<event>
 8    1  0.1143506E+005  0.1043930E+01  0.7957747E-01            NaN
         13   -1    0    0    0    0  0.00000000000E+00  0.00000000000E+00  0.74505805969E-08  0.10566000000E+00  0.10566000000E+00 0. -1.
     999900   -1    0    0    0    0 -0.00000000000E+00 -0.00000000000E+00 -0.74505805969E-08  0.93827000000E+00  0.93827000000E+00 0.  1.
     999902    2    1    2    0    0 -0.11997550429E-01  0.19356519071E-01  0.14969137156E-02  0.10211077127E+01  0.10208526359E+01 0.  0.
     999903    2    3    3    0    0 -0.13200430880E+00  0.58082871588E-02  0.83744696470E-02  0.13283271169E+00  0.10748200367E-01 0.  0.
         14    1    1    2    0    0  0.11997550429E-01 -0.19356519071E-01 -0.14969137156E-02  0.22822287298E-01  0.00000000000E+00 0. -1.
     999901    1    3    3    0    0  0.12000675838E+00  0.13548231912E-01 -0.68775559313E-02  0.88827500101E+00  0.88000000000E+00 0.  1.
        -11    1    4    4    0    0 -0.60596140195E-01 -0.15775865838E-02  0.59750637920E-03  0.60621771014E-01  0.51100000000E-03 0.  1.
         11    1    4    4    0    0 -0.71408168609E-01  0.73858737425E-02  0.77769632678E-02  0.72210940678E-01  0.51100000000E-03 0. -1.
</event>
<event>
 8    1  0.1143506E+005  0.1043930E+01  0.7957747E-01            NaN
         13   -1    0    0    0    0  0.00000000000E+00  0.00000000000E+00  0.74505805969E-08  0.10566000000E+00  0.10566000000E+00 0.  1.
     999900   -1    0    0    0    0 -0.00000000000E+00 -0.00000000000E+00 -0.74505805969E-08  0.93827000000E+00  0.93827000000E+00 0.  1.
     999902    2    1    2    0    0  0.25202227178E-01 -0.26983637886E-02  0.15962381533E-02  0.10185335160E+01  0.10182168442E+01 0.  0.
     999903    2    3    3    0    0 -0.97025452622E-01  0.42145028076E-01 -0.65992462836E-01  0.12639072028E+00  0.20723589795E-01 0.  0.
         14    1    1    2    0    0 -0.25202227178E-01  0.26983637886E-02 -0.15962381533E-02  0.25396483971E-01  0.00000000000E+00 0. -1.
     999901    1    3    3    0    0  0.12222767980E+00 -0.44843391865E-01  0.67588700990E-01  0.89214279575E+00  0.88000000000E+00 0. -1.
        -11    1    4    4    0    0 -0.80141408776E-01  0.28577156156E-01 -0.45131353363E-01  0.96314066636E-01  0.51100000000E-03 0. -1.
         11    1    4    4    0    0 -0.16884043846E-01  0.13567871921E-01 -0.20861109473E-01  0.30076653645E-01  0.51100000000E-03 0.  1.
</event>
<event>
 8    1  0.1143506E+005  0.1043930E+01  0.7957747E-01            NaN
         13   -1    0    0    0    0  0.00000000000E+00  0.00000000000E+00  0.74505805969E-08  0.10566000000E+00  0.10566000000E+00 0. -1.
     999900   -1    0    0    0    0 -0.00000000000E+00 -0.00000000000E+00 -0.74505805969E-08  0.93827000000E+00  0.93827000000E+00 0. -1.
     999902    2    1    2    0    0 -0.95845414787E-02 -0.13015142756E-01 -0.17685871460E-01  0.10199707132E+01  0.10196892705E+01 0.  0.
     999903    2    3    3    0    0 -0.23414703569E-01 -0.78595984149E-01  0.98780352246E-01  0.12977045401E+00  0.18900679242E-01 0.  0.
         14    1    1    2    0    0  0.95845414787E-02  0.13015142756E-01  0.17685871460E-01  0.23959286835E-01  0.00000000000E+00 0.  1.
     999901    1    3    3    0    0  0.13830162091E-01  0.65580841393E-01 -0.11646622371E+00  0.89020025916E+00  0.88000000000E+00 0. -1.
        -11    1    4    4    0    0 -0.13313749838E-01 -0.20952020918E-01  0.38011369573E-01  0.45402295681E-01  0.51100000000E-03 0.  1.
         11    1    4    4    0    0 -0.10100953732E-01 -0.57643963230E-01  0.60768982673E-01  0.84368158326E-01  0.51100000000E-03 0. -1.
</event>
<event>
 8    1  0.1143506E+005  0.1043930E+01  0.7957747E-01            NaN
         13   -1    0    0    0    0  0.00000000000E+00  0.00000000000E+00  0.74505805969E-08  0.10566000000E+00  0.10566000000E+00 0.  1.
     999900   -1    0    0    0    0 -0.00000000000E+00 -0.00000000000E+00 -0.74505805969E-08  0.93827000000E+00  0.93827000000E+00 0. -1.
     999902    2    1    2    0    0 -0.14029837805E-01 -0.18972067947E-01  0.41242068598E-02  0.10199761946E+01  0.10196948822E+01 0.  0.
     999903    2    3    3    0    0  0.37091249578E-01  0.58525185793E-01  0.10707232315E+00  0.12912407188E+00  0.20188744045E-01 0.  0.
         14    1    1    2    0    0  0.14029837805E-01  0.18972067947E-01 -0.41242068598E-02  0.23953805402E-01  0.00000000000E+00 0. -1.
     999901    1    3    3    0    0 -0.51121087383E-01 -0.77497253740E-01 -0.10294811629E+00  0.89085212272E+00  0.88000000000E+00 0. -1.
        -11    1    4    4    0    0  0.36417969499E-01  0.45707598897E-01  0.79154595878E-01  0.98392907616E-01  0.51100000000E-03 0.  1.
         11    1    4    4    0    0  0.67328007898E-03  0.12817586896E-01  0.27917727269E-01  0.30731164260E-01  0.51100000000E-03 0. -1.
</event>
<event>
 8    1  0.1143506E+005  0.1043930E+01  0.7957747E-01            NaN
         13   -1    0    0    0    0  0.00000000000E+00  0.00000000000E+00  0.74505805969E-08  0.10566000000E+00  0.10566000000E+00 0.  1.
     999900   -1    0    0    0    0 -0.00000000000E+00 -0.00000000000E+00 -0.74505805969E-08  0.93827000000E+00  0.93827000000E+00 0.  1.
     999902    2    1    2    0    0  0.15263877612E-02 -0.58633708863E-02  0.23678758077E-01  0.10194883846E+01  0.10191953561E+01 0.  0.
     999903    2    3    3    0    0 -0.10804112366E+00  0.54078079863E-01 -0.38912017836E-01  0.12846895594E+00  0.19819293233E-01 0.  0.
         14    1    1    2    0    0 -0.15263877612E-02  0.58633708863E-02 -0.23678758077E-01  0.24441615368E-01  0.00000000000E+00 0. -1.
     999901    1    3    3    0    0  0.10956751142E+00 -0.59941450749E-01  0.62590775913E-01  0.89101942869E+00  0.88000000000E+00 0. -1.
        -11    1    4    4    0    0 -0.89180442986E-01  0.50986001492E-01 -0.37268635076E-01  0.10927916563E+00  0.51100000000E-03 0. -1.
         11    1    4    4    0    0 -0.18860680676E-01  0.30920783701E-02 -0.16433827595E-02  0.19189790309E-01  0.51100000000E-03 0.  1.
</event>
<event>
 8    1  0.1143506E+005  0.1043930E+01  0.7957747E-01            NaN
         13   -1    0    0    0    0  0.00000000000E+00  0.00000000000E+00  0.74505805969E-08  0.10566000000E+00  0.10566000000E+00 0.  1.
     999900   -1    0    0    0    0 -0.00000000000E+00 -0.00000000000E+00 -0.74505805969E-08  0.93827000000E+00  0.93827000000E+00 0. -1.
     999902    2    1    2    0    0 -0.21201638061E-01  0.29675115203E-02  0.50386986367E-02  0.10219367268E+01  0.10217000389E+01 0.  0.
     999903    2    3    3    0    0  0.37287306703E-01  0.66611480970E-01  0.10586056978E+00  0.13197236731E+00  0.19565603993E-01 0.  0.
         14    1    1    2    0    0  0.21201638061E-01 -0.29675115203E-02 -0.50386986367E-02  0.21993273177E-01  0.00000000000E+00 0. -1.
     999901    1    3    3    0    0 -0.58488944764E-01 -0.63643969450E-01 -0.10082187115E+00  0.88996435952E+00  0.88000000000E+00 0. -1.
        -11    1    4    4    0    0  0.33801209844E-02  0.23449543358E-01  0.27536194441E-01  0.36329181478E-01  0.51100000000E-03 0.  1.
         11    1    4    4    0    0  0.33907185719E-01  0.43161937612E-01  0.78324375342E-01  0.95643185829E-01  0.51100000000E-03 0. -1.
</event>
<event>
 8    1  0.1143506E+005  0.1043930E+01  0.7957747E-01            NaN
         13   -1    0    0    0    0  0.00000000000E+00  0.00000000000E+00  0.74505805969E-08  0.10566000000E+00  0.10566000000E+00 0. -1.
     999900   -1    0    0    0    0 -0.00000000000E+00 -0.00000000000E+00 -0.74505805969E-08  0.93827000000E+00  0.93827000000E+00 0.  1.
     999902    2    1    2    0    0  0.13042808539E-01  0.47745850683E-02 -0.27080115004E-01  0.10134957406E+01  0.10130386824E+01 0.  0.
     999903    2    3    3    0    0 -0.38485810449E-01 -0.11550837434E+00  0.40647237791E-02  0.12327487480E+00  0.18889961089E-01 0.  0.
         14    1    1    2    0    0 -0.13042808539E-01 -0.47745850683E-02  0.27080115004E-01  0.30434259409E-01  0.00000000000E+00 0. -1.
     999901    1    3    3    0    0  0.51528618988E-01  0.12028295941E+00 -0.31144838783E-01  0.89022086579E+00  0.88000000000E+00 0. -1.
        -11    1    4    4    0    0 -0.27600970008E-01 -0.56156866675E-01 -0.21495081028E-02  0.62612209083E-01  0.51100000000E-03 0.  1.
         11    1    4    4    0    0 -0.10884840441E-01 -0.59351507665E-01  0.62142318819E-02  0.60662665721E-01  0.51100000000E-03 0. -1.
</event>
<event>
 8    1  0.1143506E+005  0.1043930E+01  0.7957747E-01            NaN
         13   -1    0    0    0    0  0.00000000000E+00  0.00000000000E+00  0.74505805969E-08  0.10566000000E+00  0.10566000000E+00 0.  1.
     999900   -1    0    0    0    0 -0.00000000000E+00 -0.00000000000E+00 -0.74505805969E-08  0.93827000000E+00  0.93827000000E+00 0.  1.
     999902    2    1    2    0    0  0.19597489731E-02  0.21063296759E-01  0.51139165050E-02  0.10221663783E+01  0.10219346602E+01 0.  0.
     999903    2    3    3    0    0 -0.96254104781E-01 -0.30191761724E-01 -0.81149295431E-01  0.13103542060E+00  0.20215789339E-01 0.  0.
         14    1    1    2    0    0 -0.19597489731E-02 -0.21063296759E-01 -0.51139165050E-02  0.21763621675E-01  0.00000000000E+00 0.  1.
     999901    1    3    3    0    0  0.98213853754E-01  0.51255058484E-01  0.86263211936E-01  0.89113095773E+00  0.88000000000E+00 0. -1.
        -11    1    4    4    0    0 -0.46533879569E-01 -0.24415630559E-01 -0.46332027244E-01  0.70060279995E-01  0.51100000000E-03 0. -1.
         11    1    4    4    0    0 -0.49720225212E-01 -0.57761311649E-02 -0.34817268186E-01  0.60975140601E-01  0.51100000000E-03 0.  1.
</event>
<event>
 8    1  0.1143506E+005  0.1043930E+01  0.7957747E-01            NaN
         13   -1    0    0    0    0  0.00000000000E+00  0.00000000000E+00  0.74505805969E-08  0.10566000000E+00  0.10566000000E+00 0. -1.
     999900   -1    0    0    0    0 -0.00000000000E+00 -0.00000000000E+00 -0.74505805969E-08  0.93827000000E+00  0.93827000000E+00 0. -1.
     999902    2    1    2    0    0 -0.20376376743E-01 -0.53353947801E-02  0.66357295883E-02  0.10218461581E+01  0.10216074954E+01 0.  0.
     999903    2    3    3    0    0 -0.13250854940E+00 -0.49283473340E-02 -0.10590228835E-01  0.13456349541E+00  0.20307069666E-01 0.  0.
         14    1    1    2    0    0  0.20376376743E-01  0.53353947801E-02 -0.66357295883E-02  0.22083841916E-01  0.00000000000E+00 0.  1.
     999901    1    3    3    0    0  0.11213217266E+00 -0.40704744610E-03  0.17225958423E-01  0.88728266267E+00  0.88000000000E+00 0.  1.
        -11    1    4    4    0    0 -0.13607733262E-01 -0.67758686098E-02 -0.19364541235E-02  0.15332768032E-01  0.51100000000E-03 0. -1.
         11    1    4    4    0    0 -0.11890081614E+00  0.18475212758E-02 -0.86537747115E-02  0.11923072738E+00  0.51100000000E-03 0.  1.
</event>
<event>
 8    1  0.1143506E+005  0.1043930E+01  0.7957747E-01            NaN
         13   -1    0    0    0    0  0.00000000000E+00  0.00000000000E+00  0.74505805969E-08  0.10566000000E+00  0.10566000000E+00 0.  1.
     999900   -1    0    0    0    0 -0.00000000000E+00 -0.00000000000E+00 -0.74505805969E-08  0.93827000000E+00  0.93827000000E+00 0. -1.
     999902    2    1    2    0    0  0.13133686005E-01  0.15266666851E-01 -0.16580988710E-01  0.10178437199E+01  0.10175093828E+01 0.  0.
     999903    2    3    3    0    0 -0.15902605821E-01  0.95648302685E-01  0.82444084021E-01  0.12817508568E+00  0.15176788864E-01 0.  0.
         14    1    1    2    0    0 -0.13133686005E-01 -0.15266666851E-01  0.16580988710E-01  0.26086280137E-01  0.00000000000E+00 0.  1.
     999901    1    3    3    0    0  0.29036291826E-01 -0.80381635834E-01 -0.99025072731E-01  0.88966863418E+00  0.88000000000E+00 0. -1.
        -11    1    4    4    0    0 -0.40558623687E-02  0.49413543681E-01  0.33685252097E-01  0.59942519538E-01  0.51100000000E-03 0. -1.
         11    1    4    4    0    0 -0.11846743452E-01  0.46234759003E-01  0.48758831925E-01  0.68232566141E-01  0.51100000000E-03 0.  1.
</event>
<event>
 8    1  0.1143506E+005  0.1043930E+01  0.7957747E-01            NaN
         13   -1    0    0    0    0  0.00000000000E+00  0.00000000000E+00  0.74505805969E-08  0.10566000000E+00  0.10566000000E+00 0.  1.
     999900   -1    0    0    0    0 -0.00000000000E+00 -0.00000000000E+00 -0.74505805969E-08  0.93827000000E+00  0.93827000000E+00 0.  1.
     999902    2    1    2    0    0  0.80285598518E-02  0.21607817553E-01  0.14583376904E-02  0.10208327642E+01  0.10205714332E+01 0.  0.
     999903    2    3    3    0    0  0.39321406935E-01 -0.24201429667E-01  0.12097916157E+00  0.13102213449E+00  0.19973981842E-01 0.  0.
         14    1    1    2    0    0 -0.80285598518E-02 -0.21607817553E-01 -0.14583376904E-02  0.23097235798E-01  0.00000000000E+00 0.  1.
     999901    1    3    3    0    0 -0.31292847083E-01  0.45809247220E-01 -0.11952082388E+00  0.88981062971E+00  0.88000000000E+00 0.  1.
        -11    1    4    4    0    0  0.14646993907E-01 -0.20043394784E-01  0.51512973612E-01  0.57184960229E-01  0.51100000000E-03 0.  1.
         11    1    4    4    0    0  0.24674413028E-01 -0.41580348828E-02  0.69466187958E-01  0.73837174260E-01  0.51100000000E-03 0. -1.
</event>
<event>
 7    1  0.1143506E+005  0.1043930E+01  0.7957747E-01            NaN
         13   -1    0    0    0    0  0.00000000000E+00  0.00000000000E+00  0.74505805969E-08  0.10566000000E+00  0.10566000000E+00 0. -1.
     999900   -1    0    0    0    0 -0.00000000000E+00 -0.00000000000E+00 -0.74505805969E-08  0.93827000000E+00  0.93827000000E+00 0. -1.
     999903    2    1    2    0    0  0.73476054428E-01  0.11151028811E-01 -0.14008293157E-01  0.78295679159E-01  0.20270793771E-01 0.  0.
         14    1    1    2    0    0  0.62345896117E-01 -0.28946959410E-01  0.29744118947E-01  0.74897595647E-01  0.00000000000E+00 0. -1.
     999901    1    1    2    0    0 -0.13582195054E+00  0.17795930600E-01 -0.15735825790E-01  0.89073672519E+00  0.88000000000E+00 0.  1.
        -11    1    3    3    0    0  0.18424008268E-01  0.74749406021E-02  0.39344471155E-02  0.20274610052E-01  0.51100000000E-03 0.  1.
         11    1    3    3    0    0  0.55052046159E-01  0.36760882085E-02 -0.17942740272E-01  0.58021069107E-01  0.51100000000E-03 0. -1.
</event>
<event>
 8    1  0.1143506E+005  0.1043930E+01  0.7957747E-01            NaN
         13   -1    0    0    0    0  0.00000000000E+00  0.00000000000E+00  0.74505805969E-08  0.10566000000E+00  0.10566000000E+00 0. -1.
     999900   -1    0    0    0    0 -0.00000000000E+00 -0.00000000000E+00 -0.74505805969E-08  0.93827000000E+00  0.93827000000E+00 0.  1.
     999902    2    1    2    0    0  0.17459079074E-01  0.35235344037E-02  0.85722604265E-02  0.10241634023E+01  0.10239726345E+01 0.  0.
     999903    2    3    3    0    0  0.65577706707E-01 -0.66173020599E-01  0.96652822014E-01  0.13572027104E+00  0.19972974151E-01 0.  0.
         14    1    1    2    0    0 -0.17459079074E-01 -0.35235344037E-02 -0.85722604265E-02  0.19766597725E-01  0.00000000000E+00 0.  1.
     999901    1    3    3    0    0 -0.48118627633E-01  0.69696555003E-01 -0.88080561587E-01  0.88844313123E+00  0.88000000000E+00 0.  1.
        -11    1    4    4    0    0  0.56429166646E-01 -0.58369775403E-01  0.72998581518E-01  0.10918028922E+00  0.51100000000E-03 0. -1.
         11    1    4    4    0    0  0.91485400609E-02 -0.78032451962E-02  0.23654240496E-01  0.26539981825E-01  0.51100000000E-03 0.  1.
</event>
<event>
 8    1  0.1143506E+005  0.1043930E+01  0.7957747E-01            NaN
         13   -1    0    0    0    0  0.00000000000E+00  0.00000000000E+00  0.74505805969E-08  0.10566000000E+00  0.10566000000E+00 0.  1.
     999900   -1    0    0    0    0 -0.00000000000E+00 -0.00000000000E+00 -0.74505805969E-08  0.93827000000E+00  0.93827000000E+00 0.  1.
     999902    2    1    2    0    0 -0.15708440310E-01  0.10823030445E-01 -0.15515915423E-01  0.10193406381E+01  0.10190440127E+01 0.  0.
     999903    2    3    3    0    0 -0.60040127358E-01  0.11300425647E+00  0.16589508955E-01  0.13173877937E+00  0.26554007398E-01 0.  0.
         14    1    1    2    0    0  0.15708440310E-01 -0.10823030445E-01  0.15515915423E-01  0.24589361854E-01  0.00000000000E+00 0.  1.
     999901    1    3    3    0    0  0.44331687048E-01 -0.10218122603E+00 -0.32105424378E-01  0.88760185878E+00  0.88000000000E+00 0.  1.
        -11    1    4    4    0    0 -0.42498777145E-01  0.52963087799E-01  0.47406468157E-02  0.68073266274E-01  0.51100000000E-03 0.  1.
         11    1    4    4    0    0 -0.17541350213E-01  0.60041168671E-01  0.11848862140E-01  0.63665513096E-01  0.51100000000E-03 0. -1.
</event>
<event>
 8    1  0.1143506E+005  0.1043930E+01  0.7957747E-01            NaN
         13   -1    0    0    0    0  0.00000000000E+00  0.00000000000E+00  0.74505805969E-08  0.10566000000E+00  0.10566000000E+00 0.  1.
     999900   -1    0    0    0    0 -0.00000000000E+00 -0.00000000000E+00 -0.74505805969E-08  0.93827000000E+00  0.93827000000E+00 0.  1.
     999902    2    1    2    0    0 -0.18336298325E-01  0.80684332977E-02 -0.12631375557E-01  0.10202472827E+01  0.10199723754E+01 0.  0.
     999903    2    3    3    0    0  0.11733858031E+00 -0.20569229371E-01 -0.44299999885E-01  0.12882668037E+00  0.21033020673E-01 0.  0.
         14    1    1    2    0    0  0.18336298325E-01 -0.80684332977E-02  0.12631375557E-01  0.23682717340E-01  0.00000000000E+00 0. -1.
     999901    1    3    3    0    0 -0.13567487864E+00  0.28637662669E-01  0.31668624328E-01  0.89142060229E+00  0.88000000000E+00 0.  1.
        -11    1    4    4    0    0  0.46552384489E-01 -0.76238020399E-02 -0.67464163213E-02  0.47655242244E-01  0.51100000000E-03 0. -1.
         11    1    4    4    0    0  0.70786195825E-01 -0.12945427331E-01 -0.37553583564E-01  0.81171438127E-01  0.51100000000E-03 0.  1.
</event>
<event>
 8    1  0.1143506E+005  0.1043930E+01  0.7957747E-01            NaN
         13   -1    0    0    0    0  0.00000000000E+00  0.00000000000E+00  0.74505805969E-08  0.10566000000E+00  0.10566000000E+00 0. -1.
     999900   -1    0    0    0    0 -0.00000000000E+00 -0.00000000000E+00 -0.74505805969E-08  0.93827000000E+00  0.93827000000E+00 0. -1.
     999902    2    1    2    0    0  0.10673419401E-02 -0.19095635852E-01  0.14626235786E-01  0.10198528469E+01  0.10195685951E+01 0.  0.
     999903    2    3    3    0    0 -0.10779144268E+00 -0.34584571672E-01  0.63830460163E-01  0.13164611545E+00  0.21006769293E-01 0.  0.
         14    1    1    2    0    0 -0.10673419401E-02  0.19095635852E-01 -0.14626235786E-01  0.24077153085E-01  0.00000000000E+00 0.  1.
     999901    1    3    3    0    0  0.10885878462E+00  0.15488935820E-01 -0.49204224377E-01  0.88820673146E+00  0.88000000000E+00 0. -1.
        -11    1    4    4    0    0 -0.62780081558E-01 -0.28594009742E-01  0.45692132658E-01  0.82746529483E-01  0.51100000000E-03 0. -1.
         11    1    4    4    0    0 -0.45011361121E-01 -0.59905619302E-02  0.18138327505E-01  0.48899585969E-01  0.51100000000E-03 0.  1.
</event>
<event>
 8    1  0.1143506E+005  0.1043930E+01  0.7957747E-01            NaN
         13   -1    0    0    0    0  0.00000000000E+00  0.00000000000E+00  0.74505805969E-08  0.10566000000E+00  0.10566000000E+00 0.  1.
     999900   -1    0    0    0    0 -0.00000000000E+00 -0.00000000000E+00 -0.74505805969E-08  0.93827000000E+00  0.93827000000E+00 0.  1.
     999902    2    1    2    0    0  0.34582315463E-02 -0.11862863539E-01 -0.19371377413E-01  0.10209531168E+01  0.10206945330E+01 0.  0.
     999903    2    3    3    0    0 -0.92784031306E-01 -0.91446470684E-01 -0.81159509439E-02  0.13206459272E+00  0.20096132105E-01 0.  0.
         14    1    1    2    0    0 -0.34582315463E-02  0.11862863539E-01  0.19371377413E-01  0.22976883158E-01  0.00000000000E+00 0.  1.
     999901    1    3    3    0    0  0.96242262852E-01  0.79583607145E-01 -0.11255426469E-01  0.88888852412E+00  0.88000000000E+00 0.  1.
        -11    1    4    4    0    0 -0.42354909592E-01 -0.44395372697E-01  0.60310668344E-02  0.61656486858E-01  0.51100000000E-03 0. -1.
         11    1    4    4    0    0 -0.50429121714E-01 -0.47051097987E-01 -0.14147017778E-01  0.70408105866E-01  0.51100000000E-03 0.  1.
</event>
<event>
 8    1  0.1143506E+005  0.1043930E+01  0.7957747E-01            NaN
         13   -1    0    0    0    0  0.00000000000E+00  0.00000000000E+00  0.74505805969E-08  0.10566000000E+00  0.10566000000E+00 0. -1.
     999900   -1    0    0    0    0 -0.00000000000E+00 -0.00000000000E+00 -0.74505805969E-08  0.93827000000E+00  0.93827000000E+00 0.  1.
     999902    2    1    2    0    0  0.12983471649E-01  0.96138850291E-02  0.17408113839E-01  0.10201804790E+01  0.10199040004E+01 0.  0.
     999903    2    3    3    0    0 -0.29958453611E-02  0.11637171651E+00  0.60140421774E-01  0.13255520709E+00  0.20066417277E-01 0.  0.
         14    1    1    2    0    0 -0.12983471649E-01 -0.96138850291E-02 -0.17408113839E-01  0.23749521024E-01  0.00000000000E+00 0.  1.
     999901    1    3    3    0    0  0.15979317010E-01 -0.10675783148E+00 -0.42732307935E-01  0.88762527189E+00  0.88000000000E+00 0.  1.
        -11    1    4    4    0    0 -0.87667498459E-02  0.59717762772E-01  0.23150732499E-01  0.64647386873E-01  0.51100000000E-03 0.  1.
         11    1    4    4    0    0  0.57709044848E-02  0.56653953737E-01  0.36989689275E-01  0.67907820214E-01  0.51100000000E-03 0. -1.
</event>
<event>
 7    1  0.1143506E+005  0.1043930E+01  0.7957747E-01            NaN
         13   -1    0    0    0    0  0.00000000000E+00  0.00000000000E+00  0.74505805969E-08  0.10566000000E+00  0.10566000000E+00 0.  1.
     999900   -1    0    0    0    0 -0.00000000000E+00 -0.00000000000E+00 -0.74505805969E-08  0.93827000000E+00  0.93827000000E+00 0.  1.
     999903    2    1    2    0    0 -0.92911456561E-01 -0.38632406434E-01 -0.43116445601E-01  0.11115597869E+00  0.19277503187E-01 0.  0.
         14    1    1    2    0    0  0.26758288149E-01  0.31837480416E-01  0.27998675591E-01  0.50135386492E-01  0.00000000000E+00 0. -1.
     999901    1    1    2    0    0  0.66153168412E-01  0.67949260178E-02  0.15117770010E-01  0.88263863482E+00  0.88000000000E+00 0. -1.
        -11    1    3    3    0    0 -0.50571235245E-01 -0.31299009013E-01 -0.24554626947E-01  0.64344919185E-01  0.51100000000E-03 0.  1.
         11    1    3    3    0    0 -0.42340221316E-01 -0.73333974203E-02 -0.18561818654E-01  0.46811059500E-01  0.51100000000E-03 0. -1.
</event>
<event>
 8    1  0.1143506E+005  0.1043930E+01  0.7957747E-01            NaN
         13   -1    0    0    0    0  0.00000000000E+00  0.00000000000E+00  0.74505805969E-08  0.10566000000E+00  0.10566000000E+00 0. -1.
     999900   -1    0    0    0    0 -0.00000000000E+00 -0.00000000000E+00 -0.74505805969E-08  0.93827000000E+00  0.93827000000E+00 0. -1.
     999902    2    1    2    0    0 -0.78941181817E-02  0.10825989064E-01  0.23508435391E-01  0.10168714399E+01  0.10165113672E+01 0.  0.
     999903    2    3    3    0    0 -0.66544895695E-01  0.94789752612E-01  0.56394759350E-01  0.13032119450E+00  0.19746506263E-01 0.  0.
         14    1    1    2    0    0  0.78941181817E-02 -0.10825989064E-01 -0.23508435391E-01  0.27058560117E-01  0.00000000000E+00 0.  1.
     999901    1    3    3    0    0  0.58650777514E-01 -0.83963763548E-01 -0.32886323959E-01  0.88655024539E+00  0.88000000000E+00 0.  1.
        -11    1    4    4    0    0 -0.37065177458E-01  0.51038848549E-01  0.41476633177E-01  0.75494129983E-01  0.51100000000E-03 0.  1.
         11    1    4    4    0    0 -0.29479718237E-01  0.43750904063E-01  0.14918126173E-01  0.54827064513E-01  0.51100000000E-03 0. -1.
</event>
<event>
 8    1  0.1143506E+005  0.1043930E+01  0.7957747E-01            NaN
         13   -1    0    0    0    0  0.00000000000E+00  0.00000000000E+00  0.74505805969E-08  0.10566000000E+00  0.10566000000E+00 0.  1.
     999900   -1    0    0    0    0 -0.00000000000E+00 -0.00000000000E+00 -0.74505805969E-08  0.93827000000E+00  0.93827000000E+00 0.  1.
     999902    2    1    2    0    0 -0.12083080552E-01 -0.12235285263E-01 -0.10577877009E-01  0.10237410297E+01  0.10235419392E+01 0.  0.
     999903    2    3    3    0    0 -0.13056565269E-01 -0.11342917587E+00  0.68298044648E-01  0.13443649117E+00  0.19284590232E-01 0.  0.
         14    1    1    2    0    0  0.12083080552E-01  0.12235285263E-01  0.10577877009E-01  0.20188970333E-01  0.00000000000E+00 0.  1.
     999901    1    3    3    0    0  0.97348471741E-03  0.10119389061E+00 -0.78875921657E-01  0.88930453849E+00  0.88000000000E+00 0.  1.
        -11    1    4    4    0    0  0.15278585860E-02 -0.63275522915E-01  0.32874709548E-01  0.71324145988E-01  0.51100000000E-03 0.  1.
         11    1    4    4    0    0 -0.14584423855E-01 -0.50153652957E-01  0.35423335100E-01  0.63112345185E-01  0.51100000000E-03 0. -1.
</event>
<event>
 8    1  0.1143506E+005  0.1043930E+01  0.7957747E-01            NaN
         13   -1    0    0    0    0  0.00000000000E+00  0.00000000000E+00  0.74505805969E-08  0.10566000000E+00  0.10566000000E+00 0. -1.
     999900   -1    0    0    0    0 -0.00000000000E+00 -0.00000000000E+00 -0.74505805969E-08  0.93827000000E+00  0.93827000000E+00 0. -1.
     999902    2    1    2    0    0  0.15631695929E-01 -0.19043623611E-01 -0.50127002425E-02  0.10187876715E+01  0.10184773846E+01 0.  0.
     999903    2    3    3    0    0  0.39807905467E-01 -0.12443214888E+00 -0.33635721214E-02  0.13216827742E+00  0.19725894832E-01 0.  0.
         14    1    1    2    0    0 -0.15631695929E-01  0.19043623611E-01  0.50127002425E-02  0.25142328484E-01  0.00000000000E+00 0.  1.
     999901    1    3    3    0    0 -0.24176209537E-01  0.10538852527E+00 -0.16491281211E-02  0.88661939410E+00  0.88000000000E+00 0. -1.
        -11    1    4    4    0    0  0.35128680505E-01 -0.79862143950E-01 -0.40981175596E-02  0.87344386877E-01  0.51100000000E-03 0.  1.
         11    1    4    4    0    0  0.46792249618E-02 -0.44570004926E-01  0.73454543818E-03  0.44823890543E-01  0.51100000000E-03 0. -1.
</event>
<event>
 8    1  0.1143506E+005  0.1043930E+01  0.7957747E-01            NaN
         13   -1    0    0    0    0  0.00000000000E+00  0.00000000000E+00  0.74505805969E-08  0.10566000000E+00  0.10566000000E+00 0. -1.
     999900   -1    0    0    0    0 -0.00000000000E+00 -0.00000000000E+00 -0.74505805969E-08  0.93827000000E+00  0.93827000000E+00 0. -1.
     999902    2    1    2    0    0  0.50476079836E-02  0.21880462804E-01 -0.66906670152E-02  0.10204992931E+01  0.10202302727E+01 0.  0.
     999903    2    3    3    0    0 -0.11993668209E+00 -0.38980271023E-01 -0.22005336072E-01  0.12945516361E+00  0.19238901435E-01 0.  0.
         14    1    1    2    0    0 -0.50476079836E-02 -0.21880462804E-01  0.66906670152E-02  0.23430706861E-01  0.00000000000E+00 0. -1.
     999901    1    3    3    0    0  0.12498429008E+00  0.60860733828E-01  0.15314669057E-01  0.89104412953E+00  0.88000000000E+00 0.  1.
        -11    1    4    4    0    0 -0.65059477893E-01 -0.16951455997E-01 -0.28482922970E-02  0.67293843806E-01  0.51100000000E-03 0.  1.
         11    1    4    4    0    0 -0.54877204199E-01 -0.22028815027E-01 -0.19157043775E-01  0.62161319801E-01  0.51100000000E-03 0. -1.
</event>
<event>
 8    1  0.1143506E+005  0.1043930E+01  0.7957747E-01            NaN
         13   -1    0    0    0    0  0.00000000000E+00  0.00000000000E+00  0.74505805969E-08  0.10566000000E+00  0.10566000000E+00 0.  1.
     999900   -1    0    0    0    0 -0.00000000000E+00 -0.00000000000E+00 -0.74505805969E-08  0.93827000000E+00  0.93827000000E+00 0. -1.
     999902    2    1    2    0    0  0.20358030273E-01  0.11001440595E-01 -0.10921411558E-02  0.10207637775E+01  0.10205008651E+01 0.  0.
     999903    2    3    3    0    0  0.29889524895E-01 -0.11108816821E+00  0.58192998025E-01  0.13030802359E+00  0.18968162253E-01 0.  0.
         14    1    1    2    0    0 -0.20358030273E-01 -0.11001440595E-01  0.10921411558E-02  0.23166222482E-01  0.00000000000E+00 0.  1.
     999901    1    3    3    0    0 -0.95314946216E-02  0.12208960881E+00 -0.59285139180E-01  0.89045575392E+00  0.88000000000E+00 0. -1.
        -11    1    4    4    0    0  0.22328119080E-01 -0.49102688658E-01  0.23155562430E-01  0.58703152620E-01  0.51100000000E-03 0.  1.
         11    1    4    4    0    0  0.75614058152E-02 -0.61985479552E-01  0.35037435595E-01  0.71604870974E-01  0.51100000000E-03 0. -1.
</event>
<event>
 8    1  0.1143506E+005  0.1043930E+01  0.7957747E-01            NaN
         13   -1    0    0    0    0  0.00000000000E+00  0.00000000000E+00  0.74505805969E-08  0.10566000000E+00  0.10566000000E+00 0.  1.
     999900   -1    0    0    0    0 -0.00000000000E+00 -0.00000000000E+00 -0.74505805969E-08  0.93827000000E+00  0.93827000000E+00 0.  1.
     999902    2    1    2    0    0 -0.70911463744E-02  0.18751857567E-01  0.14635799732E-01  0.10191081718E+01  0.10188058415E+01 0.  0.
     999903    2    3    3    0    0  0.60812567676E-01 -0.88600655126E-01  0.67677294484E-01  0.12840683215E+00  0.18969814947E-01 0.  0.
         14    1    1    2    0    0  0.70911463744E-02 -0.18751857567E-01 -0.14635799732E-01  0.24821828154E-01  0.00000000000E+00 0. -1.
     999901    1    3    3    0    0 -0.67903714050E-01  0.10735251269E+00 -0.53041494752E-01  0.89070133969E+00  0.88000000000E+00 0.  1.
        -11    1    4    4    0    0  0.29324836174E-02 -0.14489741061E-01  0.12579997543E-01  0.19418277868E-01  0.51100000000E-03 0.  1.
         11    1    4    4    0    0  0.57880084058E-01 -0.74110914065E-01  0.55097296940E-01  0.10898855429E+00  0.51100000000E-03 0. -1.
</event>
<event>
 8    1  0.1143506E+005  0.1043930E+01  0.7957747E-01            NaN
         13   -1    0    0    0    0  0.00000000000E+00  0.00000000000E+00  0.74505805969E-08  0.10566000000E+00  0.10566000000E+00 0.  1.
     999900   -1    0    0    0    0 -0.00000000000E+00 -0.00000000000E+00 -0.74505805969E-08  0.93827000000E+00  0.93827000000E+00 0. -1.
     999902    2    1    2    0    0  0.82421477690E-02 -0.68718558568E-02  0.21462233734E-01  0.10199345238E+01  0.10196522201E+01 0.  0.
     999903    2    3    3    0    0  0.80403312637E-01 -0.21394292424E-01  0.10202831775E+00  0.13319384647E+00  0.20209272222E-01 0.  0.
         14    1    1    2    0    0 -0.82421477690E-02  0.68718558568E-02 -0.21462233734E-01  0.23995476232E-01  0.00000000000E+00 0. -1.
     999901    1    3    3    0    0 -0.72161164868E-01  0.14522436568E-01 -0.80566084015E-01  0.88674067730E+00  0.88000000000E+00 0. -1.
        -11    1    4    4    0    0  0.35229311302E-01 -0.14054876346E-01  0.32490951575E-01  0.49945640242E-01  0.51100000000E-03 0.  1.
         11    1    4    4    0    0  0.45174001335E-01 -0.73394160782E-02  0.69537366174E-01  0.83248206229E-01  0.51100000000E-03 0. -1.
</event>
<event>
 8    1  0.1143506E+005  0.1043930E+01  0.7957747E-01            NaN
         13   -1    0    0    0    0  0.00000000000E+00  0.00000000000E+00  0.74505805969E-08  0.10566000000E+00  0.10566000000E+00 0. -1.
     999900   -1    0    0    0    0 -0.00000000000E+00 -0.00000000000E+00 -0.74505805969E-08  0.93827000000E+00  0.93827000000E+00 0.  1.
     999902    2    1    2    0    0 -0.12146643439E-01  0.18364539371E-01 -0.11671808186E-01  0.10190095594E+01  0.10187047923E+01 0.  0.
     999903    2    3    3    0    0  0.15086919111E-01  0.12803557258E+00  0.15372148262E-01  0.13137180782E+00  0.20038112998E-01 0.  0.
         14    1    1    2    0    0  0.12146643439E-01 -0.18364539371E-01  0.11671808186E-01  0.24920440596E-01  0.00000000000E+00 0. -1.
     999901    1    3    3    0    0 -0.27233562551E-01 -0.10967103321E+00 -0.27043956449E-01  0.88763775158E+00  0.88000000000E+00 0.  1.
        -11    1    4    4    0    0 -0.11710058853E-02  0.36995619738E-01 -0.27936191570E-02  0.37122938509E-01  0.51100000000E-03 0.  1.
         11    1    4    4    0    0  0.16257924997E-01  0.91039952847E-01  0.18165767419E-01  0.94248869311E-01  0.51100000000E-03 0. -1.
</event>
<event>
 8    1  0.1143506E+005  0.1043930E+01  0.7957747E-01            NaN
         13   -1    0    0    0    0  0.00000000000E+00  0.00000000000E+00  0.74505805969E-08  0.10566000000E+00  0.10566000000E+00 0. -1.
     999900   -1    0    0    0    0 -0.00000000000E+00 -0.00000000000E+00 -0.74505805969E-08  0.93827000000E+00  0.93827000000E+00 0.  1.
     999902    2    1    2    0    0 -0.10464825413E-01  0.18920527163E-01 -0.82797145158E-02  0.10207771904E+01  0.10205145858E+01 0.  0.
     999903    2    3    3    0    0 -0.83251866749E-01  0.10223463685E+00  0.10348084708E-01  0.13365476980E+00  0.19331847929E-01 0.  0.
         14    1    1    2    0    0  0.10464825413E-01 -0.18920527163E-01  0.82797145158E-02  0.23152809581E-01  0.00000000000E+00 0. -1.
     999901    1    3    3    0    0  0.72787041336E-01 -0.83314109687E-01 -0.18627799224E-01  0.88712242062E+00  0.88000000000E+00 0.  1.
        -11    1    4    4    0    0 -0.66719513441E-01  0.91861170253E-01  0.11376185282E-01  0.11410366684E+00  0.51100000000E-03 0.  1.
         11    1    4    4    0    0 -0.16532353308E-01  0.10373466596E-01 -0.10281005737E-02  0.19551102959E-01  0.51100000000E-03 0. -1.
</event>
<event>
 8    1  0.1143506E+005  0.1043930E+01  0.7957747E-01            NaN
         13   -1    0    0    0    0  0.00000000000E+00  0.00000000000E+00  0.74505805969E-08  0.10566000000E+00  0.10566000000E+00 0. -1.
     999900   -1    0    0    0    0 -0.00000000000E+00 -0.00000000000E+00 -0.74505805969E-08  0.93827000000E+00  0.93827000000E+00 0.  1.
     999902    2    1    2    0    0 -0.20933459198E-01  0.33523012215E-02  0.11068206697E-01  0.10200144645E+01  0.10197340609E+01 0.  0.
     999903    2    3    3    0    0 -0.12712826548E+00 -0.71784505469E-02  0.33146720361E-01  0.13329258345E+00  0.21332643879E-01 0.  0.
         14    1    1    2    0    0  0.20933459198E-01 -0.33523012215E-02 -0.11068206697E-01  0.23915535473E-01  0.00000000000E+00 0.  1.
     999901    1    3    3    0    0  0.10619480629E+00  0.10530751768E-01 -0.22078513664E-01  0.88672188108E+00  0.88000000000E+00 0.  1.
        -11    1    4    4    0    0 -0.64385190674E-01 -0.58847255683E-02  0.27564991283E-01  0.70286361682E-01  0.51100000000E-03 0.  1.
         11    1    4    4    0    0 -0.62743074810E-01 -0.12937249786E-02  0.55817290788E-02  0.63006221768E-01  0.51100000000E-03 0. -1.
</event>
<event>
 8    1  0.1143506E+005  0.1043930E+01  0.7957747E-01            NaN
         13   -1    0    0    0    0  0.00000000000E+00  0.00000000000E+00  0.74505805969E-08  0.10566000000E+00  0.10566000000E+00 0.  1.
     999900   -1    0    0    0    0 -0.00000000000E+00 -0.00000000000E+00 -0.74505805969E-08  0.93827000000E+00  0.93827000000E+00 0. -1.
     999902    2    1    2    0    0 -0.65887281623E-02 -0.27845664770E-01  0.60705071011E-02  0.10146786164E+01  0.10142568960E+01 0.  0.
     999903    2    3    3    0    0 -0.80214759392E-02  0.11987998457E+00 -0.12434358638E-01  0.12217239778E+00  0.18328304036E-01 0.  0.
         14    1    1    2    0    0  0.65887281623E-02  0.27845664770E-01 -0.60705071011E-02  0.29251383587E-01  0.00000000000E+00 0. -1.
     999901    1    3    3    0    0  0.14327477770E-02 -0.14772564934E+00  0.18504865739E-01  0.89250621863E+00  0.88000000000E+00 0. -1.
        -11    1    4    4    0    0 -0.12961447272E-01  0.97481610948E-01 -0.69655116571E-02  0.98587235797E-01  0.51100000000E-03 0. -1.
         11    1    4    4    0    0  0.49399713323E-02  0.22398373620E-01 -0.54688469804E-02  0.23585161986E-01  0.51100000000E-03 0.  1.
</event>
<event>
 8    1  0.1143506E+005  0.1043930E+01  0.7957747E-01            NaN
         13   -1    0    0    0    0  0.00000000000E+00  0.00000000000E+00  0.74505805969E-08  0.10566000000E+00  0.10566000000E+00 0.  1.
     999900   -1    0    0    0    0 -0.00000000000E+00 -0.00000000000E+00 -0.74505805969E-08  0.93827000000E+00  0.93827000000E+00 0. -1.
     999902    2    1    2    0    0  0.10553063131E-01  0.20296162943E-01  0.78373999155E-02  0.10197488873E+01  0.10194621460E+01 0.  0.
     999903    2    3    3    0    0 -0.54136035864E-01 -0.26013249428E-04  0.11712677410E+00  0.13039977835E+00  0.18833744306E-01 0.  0.
         14    1    1    2    0    0 -0.10553063131E-01 -0.20296162943E-01 -0.78373999155E-02  0.24181112652E-01  0.00000000000E+00 0. -1.
     999901    1    3    3    0    0  0.64689098995E-01  0.20322176192E-01 -0.10928937419E+00  0.88934910900E+00  0.88000000000E+00 0. -1.
        -11    1    4    4    0    0 -0.38718639438E-01 -0.58278225361E-02  0.95443896215E-01  0.10316440763E+00  0.51100000000E-03 0. -1.
         11    1    4    4    0    0 -0.15417396426E-01  0.58018092867E-02  0.21682877890E-01  0.27235370718E-01  0.51100000000E-03 0.  1.
</event>
<event>
 8    1  0.1143506E+005  0.1043930E+01  0.7957747E-01            NaN
         13   -1    0    0    0    0  0.00000000000E+00  0.00000000000E+00  0.74505805969E-08  0.10566000000E+00  0.10566000000E+00 0.  1.
     999900   -1    0    0    0    0 -0.00000000000E+00 -0.00000000000E+00 -0.74505805969E-08  0.93827000000E+00  0.93827000000E+00 0.  1.
     999902    2    1    2    0    0  0.11288040355E-01 -0.17378041960E-01  0.11423251811E-01  0.10202676485E+01  0.10199932194E+01 0.  0.
     999903    2    3    3    0    0  0.46081746984E-01  0.88112813442E-01  0.83047994614E-01  0.13039741841E+00  0.14802770676E-01 0.  0.
         14    1    1    2    0    0 -0.11288040355E-01  0.17378041960E-01 -0.11423251811E-01  0.23662351518E-01  0.00000000000E+00 0. -1.
     999901    1    3    3    0    0 -0.34793706629E-01 -0.10549085540E+00 -0.71624742802E-01  0.88987023008E+00  0.88000000000E+00 0.  1.
        -11    1    4    4    0    0  0.28747534514E-01  0.64781543128E-01  0.65080358529E-01  0.96222571457E-01  0.51100000000E-03 0.  1.
         11    1    4    4    0    0  0.17334212471E-01  0.23331270314E-01  0.17967636085E-01  0.34174846948E-01  0.51100000000E-03 0. -1.
</event>
<event>
 8    1  0.1143506E+005  0.1043930E+01  0.7957747E-01            NaN
         13   -1    0    0    0    0  0.00000000000E+00  0.00000000000E+00  0.74505805969E-08  0.10566000000E+00  0.10566000000E+00 0.  1.
     999900   -1    0    0    0    0 -0.00000000000E+00 -0.00000000000E+00 -0.74505805969E-08  0.93827000000E+00  0.93827000000E+00 0. -1.
     999902    2    1    2    0    0 -0.16655321863E-01 -0.15775031000E-01  0.73717219372E-02  0.10198344893E+01  0.10195497987E+01 0.  0.
     999903    2    3    3    0    0 -0.29972244467E-01  0.85407766269E-01  0.90605561563E-01  0.13003497769E+00  0.22514565463E-01 0.  0.
         14    1    1    2    0    0  0.16655321863E-01  0.15775031000E-01 -0.73717219372E-02  0.24095510655E-01  0.00000000000E+00 0.  1.
     999901    1    3    3    0    0  0.13316922604E-01 -0.10118279727E+00 -0.83233839626E-01  0.88979951166E+00  0.88000000000E+00 0.  1.
        -11    1    4    4    0    0  0.25600392778E-02  0.19331790508E-01  0.21640018422E-01  0.29134574712E-01  0.51100000000E-03 0.  1.
         11    1    4    4    0    0 -0.32532283745E-01  0.66075975760E-01  0.68965543142E-01  0.10090040297E+00  0.51100000000E-03 0. -1.
</event>
<event>
 7    1  0.1143506E+005  0.1043930E+01  0.7957747E-01            NaN
         13   -1    0    0    0    0  0.00000000000E+00  0.00000000000E+00  0.74505805969E-08  0.10566000000E+00  0.10566000000E+00 0. -1.
     999900   -1    0    0    0    0 -0.00000000000E+00 -0.00000000000E+00 -0.74505805969E-08  0.93827000000E+00  0.93827000000E+00 0.  1.
     999903    2    1    2    0    0 -0.70697897655E-02 -0.64081920079E-01  0.94583425749E-01  0.11623965409E+00  0.20227662951E-01 0.  0.
         14    1    1    2    0    0 -0.11727627264E-01 -0.12912250800E-01 -0.38598192955E-01  0.42356628305E-01  0.00000000000E+00 0.  1.
     999901    1    1    2    0    0  0.18797417029E-01  0.76994170879E-01 -0.55985232794E-01  0.88533371760E+00  0.88000000000E+00 0. -1.
        -11    1    3    3    0    0  0.65947455633E-03 -0.23759693731E-01  0.51508994448E-01  0.56730905007E-01  0.51100000000E-03 0. -1.
         11    1    3    3    0    0 -0.77292643218E-02 -0.40322226348E-01  0.43074431301E-01  0.59508749084E-01  0.51100000000E-03 0.  1.
</event>
<event>
 8    1  0.1143506E+005  0.1043930E+01  0.7957747E-01            NaN
         13   -1    0    0    0    0  0.00000000000E+00  0.00000000000E+00  0.74505805969E-08  0.10566000000E+00  0.10566000000E+00 0. -1.
     999900   -1    0    0    0    0 -0.00000000000E+00 -0.00000000000E+00 -0.74505805969E-08  0.93827000000E+00  0.93827000000E+00 0. -1.
     999902    2    1    2    0    0  0.20822896960E-01  0.55538262285E-02  0.10141751778E-01  0.10201120834E+01  0.10198339911E+01 0.  0.
     999903    2    3    3    0    0  0.95632519116E-01  0.83587667840E-01  0.34665752215E-01  0.13315820260E+00  0.19922741192E-01 0.  0.
         14    1    1    2    0    0 -0.20822896960E-01 -0.55538262285E-02 -0.10141751778E-01  0.23817916632E-01  0.00000000000E+00 0.  1.
     999901    1    3    3    0    0 -0.74809622157E-01 -0.78033841612E-01 -0.24524000438E-01  0.88695388076E+00  0.88000000000E+00 0. -1.
        -11    1    4    4    0    0  0.19067597658E-01  0.12795954498E-01 -0.88692720668E-03  0.22986028209E-01  0.51100000000E-03 0.  1.
         11    1    4    4    0    0  0.76564921459E-01  0.70791713342E-01  0.35552679422E-01  0.11017217440E+00  0.51100000000E-03 0. -1.
</event>
<event>
 8    1  0.1143506E+005  0.1043930E+01  0.7957747E-01            NaN
         13   -1    0    0    0    0  0.00000000000E+00  0.00000000000E+00  0.74505805969E-08  0.10566000000E+00  0.10566000000E+00 0.  1.
     999900   -1    0    0    0    0 -0.00000000000E+00 -0.00000000000E+00 -0.74505805969E-08  0.93827000000E+00  0.93827000000E+00 0.  1.
     999902    2    1    2    0    0 -0.18278100139E-01  0.72432549183E-02  0.13258795404E-01  0.10202160939E+01  0.10199404536E+01 0.  0.
     999903    2    3    3    0    0  0.78780537936E-01 -0.82454984440E-01 -0.55902934817E-01  0.12766385550E+00  0.12950840223E-01 0.  0.
         14    1    1    2    0    0  0.18278100139E-01 -0.72432549183E-02 -0.13258795404E-01  0.23713906090E-01  0.00000000000E+00 0. -1.
     999901    1    3    3    0    0 -0.97058638076E-01  0.89698239359E-01  0.69161730221E-01  0.89255223841E+00  0.88000000000E+00 0. -1.
        -11    1    4    4    0    0  0.15941398413E-01 -0.21237258955E-01 -0.81652732725E-02  0.27786366440E-01  0.51100000000E-03 0.  1.
         11    1    4    4    0    0  0.62839139523E-01 -0.61217725485E-01 -0.47737661545E-01  0.99877489057E-01  0.51100000000E-03 0. -1.
</event>
<event>
 8    1  0.1143506E+005  0.1043930E+01  0.7957747E-01            NaN
         13   -1    0    0    0    0  0.00000000000E+00  0.00000000000E+00  0.74505805969E-08  0.10566000000E+00  0.10566000000E+00 0. -1.
     999900   -1    0    0    0    0 -0.00000000000E+00 -0.00000000000E+00 -0.74505805969E-08  0.93827000000E+00  0.93827000000E+00 0. -1.
     999902    2    1    2    0    0  0.13276494191E-01 -0.16560048069E-01 -0.99094065255E-02  0.10205057214E+01  0.10202368502E+01 0.  0.
     999903    2    3    3    0    0 -0.42941418848E-01  0.44781864733E-01 -0.11313255971E+00  0.13057409293E+00  0.20030896516E-01 0.  0.
         14    1    1    2    0    0 -0.13276494191E-01  0.16560048069E-01  0.99094065255E-02  0.23424278595E-01  0.00000000000E+00 0. -1.
     999901    1    3    3    0    0  0.56217913038E-01 -0.61341912802E-01  0.10322315318E+00  0.88993162848E+00  0.88000000000E+00 0. -1.
        -11    1    4    4    0    0  0.15977669752E-03  0.80596017671E-02 -0.20114307171E-01  0.21675543435E-01  0.51100000000E-03 0. -1.
         11    1    4    4    0    0 -0.43101195545E-01  0.36722262966E-01 -0.93018252539E-01  0.10889854949E+00  0.51100000000E-03 0.  1.
</event>
<event>
 8    1  0.1143506E+005  0.1043930E+01  0.7957747E-01            NaN
         13   -1    0    0    0    0  0.00000000000E+00  0.00000000000E+00  0.74505805969E-08  0.10566000000E+00  0.10566000000E+00 0.  1.
     999900   -1    0    0    0    0 -0.00000000000E+00 -0.00000000000E+00 -0.74505805969E-08  0.93827000000E+00  0.93827000000E+00 0. -1.
     999902    2    1    2    0    0 -0.27157726576E-01 -0.99368192282E-03 -0.21986530088E-02  0.10166653050E+01  0.10162996501E+01 0.  0.
     999903    2    3    3    0    0  0.10387946115E+00 -0.26089013344E-01 -0.60603287875E-01  0.12469466561E+00  0.20110247734E-01 0.  0.
         14    1    1    2    0    0  0.27157726576E-01  0.99368192282E-03  0.21986530088E-02  0.27264694967E-01  0.00000000000E+00 0.  1.
     999901    1    3    3    0    0 -0.13103718772E+00  0.25095331421E-01  0.58404634866E-01  0.89197063943E+00  0.88000000000E+00 0. -1.
        -11    1    4    4    0    0  0.70155644658E-01 -0.26947679672E-01 -0.39550487779E-01  0.84926404149E-01  0.51100000000E-03 0.  1.
         11    1    4    4    0    0  0.33723816489E-01  0.85866632848E-03 -0.21052800096E-01  0.39768261458E-01  0.51100000000E-03 0. -1.
</event>
<event>
 8    1  0.1143506E+005  0.1043930E+01  0.7957747E-01            NaN
         13   -1    0    0    0    0  0.00000000000E+00  0.00000000000E+00  0.74505805969E-08  0.10566000000E+00  0.10566000000E+00 0.  1.
     999900   -1    0    0    0    0 -0.00000000000E+00 -0.00000000000E+00 -0.74505805969E-08  0.93827000000E+00  0.93827000000E+00 0.  1.
     999902    2    1    2    0    0  0.37351868123E-02  0.11689756781E-01 -0.19889525640E-01  0.10205591792E+01  0.10202915480E+01 0.  0.
     999903    2    3    3    0    0 -0.91412391928E-01  0.82343702203E-01  0.39411359841E-01  0.13063691476E+00  0.19391686975E-01 0.  0.
         14    1    1    2    0    0 -0.37351868123E-02 -0.11689756781E-01  0.19889525640E-01  0.23370820788E-01  0.00000000000E+00 0.  1.
     999901    1    3    3    0    0  0.95147578740E-01 -0.70653945422E-01 -0.59300885481E-01  0.88992226445E+00  0.88000000000E+00 0.  1.
        -11    1    4    4    0    0 -0.28363437848E-01  0.31738776461E-01  0.22073636544E-01  0.47951445120E-01  0.51100000000E-03 0. -1.
         11    1    4    4    0    0 -0.63048954080E-01  0.50604925742E-01  0.17337723297E-01  0.82685469643E-01  0.51100000000E-03 0.  1.
</event>
<event>
 8    1  0.1143506E+005  0.1043930E+01  0.7957747E-01            NaN
         13   -1    0    0    0    0  0.00000000000E+00  0.00000000000E+00  0.74505805969E-08  0.10566000000E+00  0.10566000000E+00 0.  1.
     999900   -1    0    0    0    0 -0.00000000000E+00 -0.00000000000E+00 -0.74505805969E-08  0.93827000000E+00  0.93827000000E+00 0.  1.
     999902    2    1    2    0    0  0.13388648533E-01  0.45274631750E-02  0.19192864721E-01  0.10200947344E+01  0.10198162321E+01 0.  0.
     999903    2    3    3    0    0  0.73536443081E-01  0.16042914327E-01 -0.10356198510E+00  0.12946623943E+00  0.19272748500E-01 0.  0.
         14    1    1    2    0    0 -0.13388648533E-01 -0.45274631750E-02 -0.19192864721E-01  0.23835265648E-01  0.00000000000E+00 0. -1.
     999901    1    3    3    0    0 -0.60147794548E-01 -0.11515451152E-01  0.12275484982E+00  0.89062849492E+00  0.88000000000E+00 0. -1.
        -11    1    4    4    0    0  0.45127808021E-01  0.18322848091E-01 -0.58214873791E-01  0.75904403499E-01  0.51100000000E-03 0.  1.
         11    1    4    4    0    0  0.28408635060E-01 -0.22799337640E-02 -0.45347111307E-01  0.53561835936E-01  0.51100000000E-03 0. -1.
</event>
<event>
 8    1  0.1143506E+005  0.1043930E+01  0.7957747E-01            NaN
         13   -1    0    0    0    0  0.00000000000E+00  0.00000000000E+00  0.74505805969E-08  0.10566000000E+00  0.10566000000E+00 0. -1.
     999900   -1    0    0    0    0 -0.00000000000E+00 -0.00000000000E+00 -0.74505805969E-08  0.93827000000E+00  0.93827000000E+00 0.  1.
     999902    2    1    2    0    0  0.14387618790E-01 -0.18444255877E-01 -0.70964291992E-03  0.10205270570E+01  0.10202586811E+01 0.  0.
     999903    2    3    3    0    0  0.36627168743E-01 -0.34251213121E-01  0.12026100127E+00  0.13183230947E+00  0.20058771252E-01 0.  0.
         14    1    1    2    0    0 -0.14387618790E-01  0.18444255877E-01  0.70964291992E-03  0.23402943028E-01  0.00000000000E+00 0.  1.
     999901    1    3    3    0    0 -0.22239549953E-01  0.15806957244E-01 -0.12097064419E+00  0.88869474750E+00  0.88000000000E+00 0.  1.
        -11    1    4    4    0    0  0.88407774625E-02 -0.21038420288E-01  0.43319462607E-01  0.48965410607E-01  0.51100000000E-03 0. -1.
         11    1    4    4    0    0  0.27786391281E-01 -0.13212792833E-01  0.76941538662E-01  0.82866898865E-01  0.51100000000E-03 0.  1.
</event>
<event>
 8    1  0.1143506E+005  0.1043930E+01  0.7957747E-01            NaN
         13   -1    0    0    0    0  0.00000000000E+00  0.00000000000E+00  0.74505805969E-08  0.10566000000E+00  0.10566000000E+00 0.  1.
     999900   -1    0    0    0    0 -0.00000000000E+00 -0.00000000000E+00 -0.74505805969E-08  0.93827000000E+00  0.93827000000E+00 0.  1.
     999902    2    1    2    0    0 -0.21002250397E-02  0.22486635907E-01 -0.10541441413E-02  0.10213209098E+01  0.10210706292E+01 0.  0.
     999903    2    3    3    0    0  0.93688972019E-02 -0.51069733418E-01  0.11770290795E+00  0.13022870489E+00  0.20239741400E-01 0.  0.
         14    1    1    2    0    0  0.21002250397E-02 -0.22486635907E-01  0.10541441413E-02  0.22609090197E-01  0.00000000000E+00 0.  1.
     999901    1    3    3    0    0 -0.11469122242E-01  0.73556369325E-01 -0.11875705209E+00  0.89109220491E+00  0.88000000000E+00 0.  1.
        -11    1    4    4    0    0  0.67057033902E-02 -0.40206909525E-01  0.10791254694E+00  0.11535571482E+00  0.51100000000E-03 0. -1.
         11    1    4    4    0    0  0.26631938117E-02 -0.10862823893E-01  0.97903610045E-02  0.14872990076E-01  0.51100000000E-03 0.  1.
</event>
<event>
 8    1  0.1143506E+005  0.1043930E+01  0.7957747E-01            NaN
         13   -1    0    0    0    0  0.00000000000E+00  0.00000000000E+00  0.74505805969E-08  0.10566000000E+00  0.10566000000E+00 0.  1.
     999900   -1    0    0    0    0 -0.00000000000E+00 -0.00000000000E+00 -0.74505805969E-08  0.93827000000E+00  0.93827000000E+00 0. -1.
     999902    2    1    2    0    0  0.22910756681E-01  0.44334434979E-02  0.53730786083E-02  0.10199836398E+01  0.10197025043E+01 0.  0.
     999903    2    3    3    0    0 -0.68594085975E-01 -0.97858085461E-01  0.42134638971E-01  0.12858692372E+00  0.21861281513E-01 0.  0.
         14    1    1    2    0    0 -0.22910756681E-01 -0.44334434979E-02 -0.53730786083E-02  0.23946360197E-01  0.00000000000E+00 0. -1.
     999901    1    3    3    0    0  0.91504842656E-01  0.10229152896E+00 -0.36761560362E-01  0.89139671608E+00  0.88000000000E+00 0. -1.
        -11    1    4    4    0    0 -0.40255735688E-01 -0.57450370435E-01  0.36000486487E-01  0.78850272461E-01  0.51100000000E-03 0. -1.
         11    1    4    4    0    0 -0.28338350287E-01 -0.40407715025E-01  0.61341524834E-02  0.49736651257E-01  0.51100000000E-03 0.  1.
</event>
<event>
 8    1  0.1143506E+005  0.1043930E+01  0.7957747E-01            NaN
         13   -1    0    0    0    0  0.00000000000E+00  0.00000000000E+00  0.74505805969E-08  0.10566000000E+00  0.10566000000E+00 0. -1.
     999900   -1    0    0    0    0 -0.00000000000E+00 -0.00000000000E+00 -0.74505805969E-08  0.93827000000E+00  0.93827000000E+00 0. -1.
     999902    2    1    2    0    0  0.18728976286E-01  0.14060391058E-01 -0.34471263242E-02  0.10202582483E+01  0.10199835986E+01 0.  0.
     999903    2    3    3    0    0  0.11943871842E+00 -0.46441442818E-01  0.24592262431E-01  0.13200764660E+00  0.19970586392E-01 0.  0.
         14    1    1    2    0    0 -0.18728976286E-01 -0.14060391058E-01  0.34471263242E-02  0.23671751716E-01  0.00000000000E+00 0. -1.
     999901    1    3    3    0    0 -0.10070974214E+00  0.60501833876E-01 -0.28039388755E-01  0.88825060168E+00  0.88000000000E+00 0.  1.
        -11    1    4    4    0    0  0.42135508751E-01 -0.17438645437E-01 -0.84297836747E-03  0.45612270125E-01  0.51100000000E-03 0. -1.
         11    1    4    4    0    0  0.77303209672E-01 -0.29002797381E-01  0.25435240798E-01  0.86395376479E-01  0.51100000000E-03 0.  1.
</event>
<event>
 8    1  0.1143506E+005  0.1043930E+01  0.7957747E-01            NaN
         13   -1    0    0    0    0  0.00000000000E+00  0.00000000000E+00  0.74505805969E-08  0.10566000000E+00  0.10566000000E+00 0. -1.
     999900   -1    0    0    0    0 -0.00000000000E+00 -0.00000000000E+00 -0.74505805969E-08  0.93827000000E+00  0.93827000000E+00 0.  1.
     999902    2    1    2    0    0 -0.21419566610E-01  0.10876766019E-01  0.47432873244E-02  0.10194432557E+01  0.10191491308E+01 0.  0.
     999903    2    3    3    0    0 -0.11204515898E+00  0.67270431716E-01 -0.13777270005E-01  0.13280000467E+00  0.19146786612E-01 0.  0.
         14    1    1    2    0    0  0.21419566610E-01 -0.10876766019E-01 -0.47432873244E-02  0.24486744321E-01  0.00000000000E+00 0.  1.
     999901    1    3    3    0    0  0.90625592365E-01 -0.56393665697E-01  0.18520557329E-01  0.88664325101E+00  0.88000000000E+00 0. -1.
        -11    1    4    4    0    0 -0.36482835090E-01  0.12686974234E-01 -0.41968796818E-03  0.38631513437E-01  0.51100000000E-03 0. -1.
         11    1    4    4    0    0 -0.75562323885E-01  0.54583457482E-01 -0.13357582037E-01  0.94168491230E-01  0.51100000000E-03 0.  1.
</event>
<event>
 8    1  0.1143506E+005  0.1043930E+01  0.7957747E-01            NaN
         13   -1    0    0    0    0  0.00000000000E+00  0.00000000000E+00  0.74505805969E-08  0.10566000000E+00  0.10566000000E+00 0. -1.
     999900   -1    0    0    0    0 -0.00000000000E+00 -0.00000000000E+00 -0.74505805969E-08  0.93827000000E+00  0.93827000000E+00 0. -1.
     999902    2    1    2    0    0 -0.18292520839E-01 -0.52860505664E-02  0.14506615449E-01  0.10199925703E+01  0.10197116469E+01 0.  0.
     999903    2    3    3    0    0  0.31181382025E-01 -0.11570937696E+00  0.45106125897E-01  0.13118589383E+00  0.28534849696E-01 0.  0.
         14    1    1    2    0    0  0.18292520839E-01  0.52860505664E-02 -0.14506615449E-01  0.23937429708E-01  0.00000000000E+00 0.  1.
     999901    1    3    3    0    0 -0.49473902864E-01  0.11042332639E+00 -0.30599510449E-01  0.88880667646E+00  0.88000000000E+00 0. -1.
        -11    1    4    4    0    0  0.31000148666E-01 -0.71713781717E-01  0.36996627753E-01  0.86445863357E-01  0.51100000000E-03 0.  1.
         11    1    4    4    0    0  0.18123335846E-03 -0.43995595239E-01  0.81094981446E-02  0.44740030477E-01  0.51100000000E-03 0. -1.
</event>
<event>
 8    1  0.1143506E+005  0.1043930E+01  0.7957747E-01            NaN
         13   -1    0    0    0    0  0.00000000000E+00  0.00000000000E+00  0.74505805969E-08  0.10566000000E+00  0.10566000000E+00 0. -1.
     999900   -1    0    0    0    0 -0.00000000000E+00 -0.00000000000E+00 -0.74505805969E-08  0.93827000000E+00  0.93827000000E+00 0.  1.
     999902    2    1    2    0    0  0.13420474209E-01 -0.78978805358E-02 -0.17529956729E-01  0.10204825049E+01  0.10202130943E+01 0.  0.
     999903    2    3    3    0    0 -0.11854782678E+00 -0.26069683684E-01 -0.42326805436E-01  0.13011138528E+00  0.20104687964E-01 0.  0.
         14    1    1    2    0    0 -0.13420474209E-01  0.78978805358E-02  0.17529956729E-01  0.23447495130E-01  0.00000000000E+00 0.  1.
     999901    1    3    3    0    0  0.13196830099E+00  0.18171803148E-01  0.24796848707E-01  0.89037111959E+00  0.88000000000E+00 0. -1.
        -11    1    4    4    0    0 -0.77989962598E-01 -0.26349776896E-01 -0.31354512774E-01  0.88091495621E-01  0.51100000000E-03 0.  1.
         11    1    4    4    0    0 -0.40557864186E-01  0.28009321279E-03 -0.10972292663E-01  0.42019889657E-01  0.51100000000E-03 0. -1.
</event>
<event>
 8    1  0.1143506E+005  0.1043930E+01  0.7957747E-01            NaN
         13   -1    0    0    0    0  0.00000000000E+00  0.00000000000E+00  0.74505805969E-08  0.10566000000E+00  0.10566000000E+00 0. -1.
     999900   -1    0    0    0    0 -0.00000000000E+00 -0.00000000000E+00 -0.74505805969E-08  0.93827000000E+00  0.93827000000E+00 0. -1.
     999902    2    1    2    0    0  0.45974828860E-03 -0.59775974123E-02 -0.22964517366E-01  0.10201958032E+01  0.10199196855E+01 0.  0.
     999903    2    3    3    0    0  0.18504754549E-01  0.12241681233E+00  0.30644782687E-01  0.12908149867E+00  0.19865263949E-01 0.  0.
         14    1    1    2    0    0 -0.45974828860E-03  0.59775974123E-02  0.22964517366E-01  0.23734196788E-01  0.00000000000E+00 0. -1.
     999901    1    3    3    0    0 -0.18045006260E-01 -0.12839440974E+00 -0.53609300054E-01  0.89111430454E+00  0.88000000000E+00 0.  1.
        -11    1    4    4    0    0  0.71805526728E-02  0.65344129839E-01  0.26050602898E-01  0.70712874878E-01  0.51100000000E-03 0. -1.
         11    1    4    4    0    0  0.11324201876E-01  0.57072682489E-01  0.45941797895E-02  0.58368623794E-01  0.51100000000E-03 0.  1.
</event>
<event>
 8    1  0.1143506E+005  0.1043930E+01  0.7957747E-01            NaN
         13   -1    0    0    0    0  0.00000000000E+00  0.00000000000E+00  0.74505805969E-08  0.10566000000E+00  0.10566000000E+00 0. -1.
     999900   -1    0    0    0    0 -0.00000000000E+00 -0.00000000000E+00 -0.74505805969E-08  0.93827000000E+00  0.93827000000E+00 0. -1.
     999902    2    1    2    0    0 -0.14371783164E-01 -0.10541161347E-01  0.14839340813E-01  0.10207379697E+01  0.10204744644E+01 0.  0.
     999903    2    3    3    0    0 -0.42933633863E-02  0.12352829878E+00 -0.33283437086E-01  0.12922689493E+00  0.17723702192E-01 0.  0.
         14    1    1    2    0    0  0.14371783164E-01  0.10541161347E-01 -0.14839340813E-01  0.23192030304E-01  0.00000000000E+00 0.  1.
     999901    1    3    3    0    0 -0.10078419778E-01 -0.13406946013E+00  0.48122777899E-01  0.89151107477E+00  0.88000000000E+00 0.  1.
        -11    1    4    4    0    0  0.58370993304E-02  0.53815959275E-01 -0.18811338663E-01  0.57309308010E-01  0.51100000000E-03 0.  1.
         11    1    4    4    0    0 -0.10130462717E-01  0.69712339505E-01 -0.14472098422E-01  0.71917586916E-01  0.51100000000E-03 0. -1.
</event>
<event>
 8    1  0.1143506E+005  0.1043930E+01  0.7957747E-01            NaN
         13   -1    0    0    0    0  0.00000000000E+00  0.00000000000E+00  0.74505805969E-08  0.10566000000E+00  0.10566000000E+00 0.  1.
     999900   -1    0    0    0    0 -0.00000000000E+00 -0.00000000000E+00 -0.74505805969E-08  0.93827000000E+00  0.93827000000E+00 0. -1.
     999902    2    1    2    0    0 -0.20191282158E-02 -0.16658192404E-01 -0.14988350680E-01  0.10214306020E+01  0.10211827710E+01 0.  0.
     999903    2    3    3    0    0 -0.11232565519E+00  0.18255877113E-01  0.60868286777E-01  0.13062155875E+00  0.20167136910E-01 0.  0.
         14    1    1    2    0    0  0.20191282158E-02  0.16658192404E-01  0.14988350680E-01  0.22499397970E-01  0.00000000000E+00 0.  1.
     999901    1    3    3    0    0  0.11030652698E+00 -0.34914069517E-01 -0.75856637457E-01  0.89080904328E+00  0.88000000000E+00 0. -1.
        -11    1    4    4    0    0 -0.36464917974E-01  0.33458675121E-03  0.28205794502E-01  0.46104556778E-01  0.51100000000E-03 0. -1.
         11    1    4    4    0    0 -0.75860737219E-01  0.17921290362E-01  0.32662492274E-01  0.84517001972E-01  0.51100000000E-03 0.  1.
</event>
<event>
 8    1  0.1143506E+005  0.1043930E+01  0.7957747E-01            NaN
         13   -1    0    0    0    0  0.00000000000E+00  0.00000000000E+00  0.74505805969E-08  0.10566000000E+00  0.10566000000E+00 0. -1.
     999900   -1    0    0    0    0 -0.00000000000E+00 -0.00000000000E+00 -0.74505805969E-08  0.93827000000E+00  0.93827000000E+00 0. -1.
     999902    2    1    2    0    0 -0.20069957683E-01  0.81074760449E-02  0.94244392212E-02  0.10203216450E+01  0.10200484817E+01 0.  0.
     999903    2    3    3    0    0 -0.13086492180E+00  0.16379474767E-01  0.36422376705E-02  0.13331691907E+00  0.19136877051E-01 0.  0.
         14    1    1    2    0    0  0.20069957683E-01 -0.81074760449E-02 -0.94244392212E-02  0.23608354958E-01  0.00000000000E+00 0.  1.
     999901    1    3    3    0    0  0.11079496412E+00 -0.82719987222E-02  0.57822015507E-02  0.88700472597E+00  0.88000000000E+00 0. -1.
        -11    1    4    4    0    0 -0.74194491502E-01  0.37527498595E-03  0.54780562727E-02  0.74399150681E-01  0.51100000000E-03 0. -1.
         11    1    4    4    0    0 -0.56670430302E-01  0.16004199781E-01 -0.18358186022E-02  0.58917768391E-01  0.51100000000E-03 0.  1.
</event>
<event>
 8    1  0.1143506E+005  0.1043930E+01  0.7957747E-01            NaN
         13   -1    0    0    0    0  0.00000000000E+00  0.00000000000E+00  0.74505805969E-08  0.10566000000E+00  0.10566000000E+00 0.  1.
     999900   -1    0    0    0    0 -0.00000000000E+00 -0.00000000000E+00 -0.74505805969E-08  0.93827000000E+00  0.93827000000E+00 0. -1.
     999902    2    1    2    0    0  0.99833421627E-02 -0.19045564086E-01  0.11772948505E-01  0.10194146385E+01  0.10191198174E+01 0.  0.
     999903    2    3    3    0    0 -0.36418013099E-01  0.80158891015E-01  0.93808992672E-01  0.12883925023E+00  0.69069390393E-02 0.  0.
         14    1    1    2    0    0 -0.99833421627E-02  0.19045564086E-01 -0.11772948505E-01  0.24515361482E-01  0.00000000000E+00 0. -1.
     999901    1    3    3    0    0  0.46401355261E-01 -0.99204455101E-01 -0.82036044167E-01  0.89057538829E+00  0.88000000000E+00 0. -1.
        -11    1    4    4    0    0 -0.20426668383E-01  0.49278194253E-01  0.52631792447E-01  0.74939681793E-01  0.51100000000E-03 0.  1.
         11    1    4    4    0    0 -0.15991344716E-01  0.30880696762E-01  0.41177200225E-01  0.53899568437E-01  0.51100000000E-03 0. -1.
</event>
<event>
 8    1  0.1143506E+005  0.1043930E+01  0.7957747E-01            NaN
         13   -1    0    0    0    0  0.00000000000E+00  0.00000000000E+00  0.74505805969E-08  0.10566000000E+00  0.10566000000E+00 0. -1.
     999900   -1    0    0    0    0 -0.00000000000E+00 -0.00000000000E+00 -0.74505805969E-08  0.93827000000E+00  0.93827000000E+00 0.  1.
     999902    2    1    2    0    0  0.56177707946E-02  0.18418495330E-01 -0.11009896415E-01  0.10217485181E+01  0.10215077171E+01 0.  0.
     999903    2    3    3    0    0  0.20228781713E-01  0.13108160534E+00  0.73856194546E-02  0.13425493900E+00  0.19448660714E-01 0.  0.
         14    1    1    2    0    0 -0.56177707946E-02 -0.18418495330E-01  0.11009896415E-01  0.22181481871E-01  0.00000000000E+00 0. -1.
     999901    1    3    3    0    0 -0.14611010918E-01 -0.11266311001E+00 -0.18395515870E-01  0.88749357913E+00  0.88000000000E+00 0. -1.
        -11    1    4    4    0    0  0.14561801331E-01  0.85935957884E-01 -0.43238673610E-02  0.87269650311E-01  0.51100000000E-03 0.  1.
         11    1    4    4    0    0  0.56669803816E-02  0.45145647452E-01  0.11709486816E-01  0.46985288687E-01  0.51100000000E-03 0. -1.
</event>
<event>
 8    1  0.1143506E+005  0.1043930E+01  0.7957747E-01            NaN
         13   -1    0    0    0    0  0.00000000000E+00  0.00000000000E+00  0.74505805969E-08  0.10566000000E+00  0.10566000000E+00 0. -1.
     999900   -1    0    0    0    0 -0.00000000000E+00 -0.00000000000E+00 -0.74505805969E-08  0.93827000000E+00  0.93827000000E+00 0.  1.
     999902    2    1    2    0    0  0.21805460897E-01 -0.44422477864E-02  0.81117502509E-02  0.10202443043E+01  0.10199693271E+01 0.  0.
     999903    2    3    3    0    0 -0.74539430366E-01  0.56927780471E-01  0.86870755835E-01  0.12937304566E+00  0.19848371622E-01 0.  0.
         14    1    1    2    0    0 -0.21805460897E-01  0.44422477864E-02 -0.81117502509E-02  0.23685695736E-01  0.00000000000E+00 0.  1.
     999901    1    3    3    0    0  0.96344891264E-01 -0.61370028258E-01 -0.78759005585E-01  0.89087125860E+00  0.88000000000E+00 0.  1.
        -11    1    4    4    0    0 -0.53887946791E-01  0.29675808762E-01  0.59277862652E-01  0.85432374171E-01  0.51100000000E-03 0. -1.
         11    1    4    4    0    0 -0.20651483575E-01  0.27251971709E-01  0.27592893184E-01  0.43940671492E-01  0.51100000000E-03 0.  1.
</event>
<event>
 8    1  0.1143506E+005  0.1043930E+01  0.7957747E-01            NaN
         13   -1    0    0    0    0  0.00000000000E+00  0.00000000000E+00  0.74505805969E-08  0.10566000000E+00  0.10566000000E+00 0. -1.
     999900   -1    0    0    0    0 -0.00000000000E+00 -0.00000000000E+00 -0.74505805969E-08  0.93827000000E+00  0.93827000000E+00 0. -1.
     999902    2    1    2    0    0 -0.13876676925E-01  0.90182036069E-02 -0.17183141400E-01  0.10200731245E+01  0.10197941110E+01 0.  0.
     999903    2    3    3    0    0 -0.33820178014E-01  0.11830523220E+00 -0.42933430129E-01  0.13271498081E+00  0.25100882506E-01 0.  0.
         14    1    1    2    0    0  0.13876676925E-01 -0.90182036069E-02  0.17183141400E-01  0.23856875469E-01  0.00000000000E+00 0. -1.
     999901    1    3    3    0    0  0.19943501089E-01 -0.10928702859E+00  0.25750288729E-01  0.88735814372E+00  0.88000000000E+00 0.  1.
        -11    1    4    4    0    0 -0.10391849101E-01  0.42050658593E-01 -0.27930274777E-01  0.51542310638E-01  0.51100000000E-03 0. -1.
         11    1    4    4    0    0 -0.23428328913E-01  0.76254573607E-01 -0.15003155352E-01  0.81172670174E-01  0.51100000000E-03 0.  1.
</event>
<event>
 8    1  0.1143506E+005  0.1043930E+01  0.7957747E-01            NaN
         13   -1    0    0    0    0  0.00000000000E+00  0.00000000000E+00  0.74505805969E-08  0.10566000000E+00  0.10566000000E+00 0. -1.
     999900   -1    0    0    0    0 -0.00000000000E+00 -0.00000000000E+00 -0.74505805969E-08  0.93827000000E+00  0.93827000000E+00 0. -1.
     999902    2    1    2    0    0 -0.20447671998E-01 -0.15262981144E-01 -0.29115659662E-02  0.10182484288E+01  0.10179245157E+01 0.  0.
     999903    2    3    3    0    0 -0.17036085557E-01 -0.11538139900E+00  0.54996152110E-01  0.13067384582E+00  0.21165580270E-01 0.  0.
         14    1    1    2    0    0  0.20447671998E-01  0.15262981144E-01  0.29115659662E-02  0.25681571212E-01  0.00000000000E+00 0. -1.
     999901    1    3    3    0    0 -0.34115864412E-02  0.10011841786E+00 -0.57907718076E-01  0.88757458297E+00  0.88000000000E+00 0. -1.
        -11    1    4    4    0    0 -0.16988805159E-01 -0.98127404200E-01  0.54227117764E-01  0.11339509856E+00  0.51100000000E-03 0.  1.
         11    1    4    4    0    0 -0.47280397413E-04 -0.17253994801E-01  0.76903434610E-03  0.17278747260E-01  0.51100000000E-03 0. -1.
</event>
<event>
 8    1  0.1143506E+005  0.1043930E+01  0.7957747E-01            NaN
         13   -1    0    0    0    0  0.00000000000E+00  0.00000000000E+00  0.74505805969E-08  0.10566000000E+00  0.10566000000E+00 0. -1.
     999900   -1    0    0    0    0 -0.00000000000E+00 -0.00000000000E+00 -0.74505805969E-08  0.93827000000E+00  0.93827000000E+00 0.  1.
     999902    2    1    2    0    0  0.12013186369E-01 -0.58133283252E-03 -0.17016263011E-01  0.10230923465E+01  0.10228801209E+01 0.  0.
     999903    2    3    3    0    0 -0.92846590670E-01  0.77463967081E-01 -0.52248800947E-01  0.13273962239E+00  0.16392515282E-01 0.  0.
         14    1    1    2    0    0 -0.12013186369E-01  0.58133283252E-03  0.17016263011E-01  0.20837653454E-01  0.00000000000E+00 0. -1.
     999901    1    3    3    0    0  0.10485977704E+00 -0.78045299914E-01  0.35232537935E-01  0.89035272415E+00  0.88000000000E+00 0. -1.
        -11    1    4    4    0    0 -0.36069453156E-01  0.25319975667E-01 -0.11526235959E-01  0.45554603007E-01  0.51100000000E-03 0.  1.
         11    1    4    4    0    0 -0.56777137514E-01  0.52143991414E-01 -0.40722564988E-01  0.87185019385E-01  0.51100000000E-03 0. -1.
</event>
<event>
 8    1  0.1143506E+005  0.1043930E+01  0.7957747E-01            NaN
         13   -1    0    0    0    0  0.00000000000E+00  0.00000000000E+00  0.74505805969E-08  0.10566000000E+00  0.10566000000E+00 0. -1.
     999900   -1    0    0    0    0 -0.00000000000E+00 -0.00000000000E+00 -0.74505805969E-08  0.93827000000E+00  0.93827000000E+00 0.  1.
     999902    2    1    2    0    0  0.59190598506E-02  0.13668486509E-01 -0.12555823782E-01  0.10244489450E+01  0.10242637011E+01 0.  0.
     999903    2    3    3    0    0  0.10297754427E+00 -0.62891953868E-01  0.53004005866E-01  0.13339342390E+00  0.20606028653E-01 0.  0.
         14    1    1    2    0    0 -0.59190598506E-02 -0.13668486509E-01  0.12555823782E-01  0.19481054997E-01  0.00000000000E+00 0. -1.
     999901    1    3    3    0    0 -0.97058484417E-01  0.76560440376E-01 -0.65559829648E-01  0.89105552110E+00  0.88000000000E+00 0. -1.
        -11    1    4    4    0    0  0.34257789594E-01 -0.31963834130E-01  0.16694896187E-01  0.49741969401E-01  0.51100000000E-03 0.  1.
         11    1    4    4    0    0  0.68719754673E-01 -0.30928119737E-01  0.36309109679E-01  0.83651454497E-01  0.51100000000E-03 0. -1.
</event>
<event>
 8    1  0.1143506E+005  0.1043930E+01  0.7957747E-01            NaN
         13   -1    0    0    0    0  0.00000000000E+00  0.00000000000E+00  0.74505805969E-08  0.10566000000E+00  0.10566000000E+00 0. -1.
     999900   -1    0    0    0    0 -0.00000000000E+00 -0.00000000000E+00 -0.74505805969E-08  0.93827000000E+00  0.93827000000E+00 0. -1.
     999902    2    1    2    0    0  0.69801563363E-02  0.22494066348E-01  0.30262721230E-02  0.10201841809E+01  0.10199077894E+01 0.  0.
     999903    2    3    3    0    0 -0.99053792163E-01  0.70348889479E-02  0.81785133715E-01  0.13019252772E+00  0.20003568978E-01 0.  0.
         14    1    1    2    0    0 -0.69801563363E-02 -0.22494066348E-01 -0.30262721230E-02  0.23745819133E-01  0.00000000000E+00 0.  1.
     999901    1    3    3    0    0  0.10603394850E+00  0.15459177400E-01 -0.78758861592E-01  0.88999165315E+00  0.88000000000E+00 0. -1.
        -11    1    4    4    0    0 -0.53662888381E-01  0.14374835663E-02  0.56472355636E-01  0.77917648967E-01  0.51100000000E-03 0.  1.
         11    1    4    4    0    0 -0.45390903782E-01  0.55974053816E-02  0.25312778079E-01  0.52274878749E-01  0.51100000000E-03 0. -1.
</event>
<event>
 8    1  0.1143506E+005  0.1043930E+01  0.7957747E-01            NaN
         13   -1    0    0    0    0  0.00000000000E+00  0.00000000000E+00  0.74505805969E-08  0.10566000000E+00  0.10566000000E+00 0.  1.
     999900   -1    0    0    0    0 -0.00000000000E+00 -0.00000000000E+00 -0.74505805969E-08  0.93827000000E+00  0.93827000000E+00 0.  1.
     999902    2    1    2    0    0  0.98987077392E-02 -0.16170020742E-01 -0.10384231938E-01  0.10223131950E+01  0.10220846259E+01 0.  0.
     999903    2    3    3    0    0 -0.25133097658E-01  0.12446158163E+00 -0.21497937656E-01  0.13038943736E+00  0.20417790070E-01 0.  0.
         14    1    1    2    0    0 -0.98987077392E-02  0.16170020742E-01  0.10384231938E-01  0.21616805006E-01  0.00000000000E+00 0. -1.
     999901    1    3    3    0    0  0.35031805397E-01 -0.14063160238E+00  0.11113705717E-01  0.89192375763E+00  0.88000000000E+00 0.  1.
        -11    1    4    4    0    0 -0.26343909313E-02  0.57158619337E-01 -0.43841796374E-02  0.57389284123E-01  0.51100000000E-03 0.  1.
         11    1    4    4    0    0 -0.22498706726E-01  0.67302962296E-01 -0.17113758018E-01  0.73000153237E-01  0.51100000000E-03 0. -1.
</event>
<event>
 8    1  0.1143506E+005  0.1043930E+01  0.7957747E-01            NaN
         13   -1    0    0    0    0  0.00000000000E+00  0.00000000000E+00  0.74505805969E-08  0.10566000000E+00  0.10566000000E+00 0. -1.
     999900   -1    0    0    0    0 -0.00000000000E+00 -0.00000000000E+00 -0.74505805969E-08  0.93827000000E+00  0.93827000000E+00 0. -1.
     999902    2    1    2    0    0 -0.10725490073E-01 -0.15084580849E-01 -0.11289751379E-01  0.10222496125E+01  0.10220196823E+01 0.  0.
     999903    2    3    3    0    0 -0.10385179358E+00 -0.58220912607E-01  0.57400130468E-01  0.13362621003E+00  0.19655007889E-01 0.  0.
         14    1    1    2    0    0  0.10725490073E-01  0.15084580849E-01  0.11289751379E-01  0.21680387517E-01  0.00000000000E+00 0. -1.
     999901    1    3    3    0    0  0.93126303502E-01  0.43136331758E-01 -0.68689881847E-01  0.88862340245E+00  0.88000000000E+00 0.  1.
        -11    1    4    4    0    0 -0.45461557705E-01 -0.33315000914E-01  0.19239607762E-01  0.59557250967E-01  0.51100000000E-03 0.  1.
         11    1    4    4    0    0 -0.58390235870E-01 -0.24905911694E-01  0.38160522707E-01  0.74068959062E-01  0.51100000000E-03 0. -1.
</event>
<event>
 8    1  0.1143506E+005  0.1043930E+01  0.7957747E-01            NaN
         13   -1    0    0    0    0  0.00000000000E+00  0.00000000000E+00  0.74505805969E-08  0.10566000000E+00  0.10566000000E+00 0.  1.
     999900   -1    0    0    0    0 -0.00000000000E+00 -0.00000000000E+00 -0.74505805969E-08  0.93827000000E+00  0.93827000000E+00 0.  1.
     999902    2    1    2    0    0 -0.19422579810E-01 -0.12900761361E-01  0.11831411944E-02  0.10205833498E+01  0.10203162784E+01 0.  0.
     999903    2    3    3    0    0  0.65801601897E-03  0.45547542246E-02 -0.12893982906E+00  0.13061710738E+00  0.20351178139E-01 0.  0.
         14    1    1    2    0    0  0.19422579810E-01  0.12900761361E-01 -0.11831411944E-02  0.23346650151E-01  0.00000000000E+00 0.  1.
     999901    1    3    3    0    0 -0.20080595829E-01 -0.17455515585E-01  0.13012297025E+00  0.88996624247E+00  0.88000000000E+00 0. -1.
        -11    1    4    4    0    0 -0.70840073161E-02 -0.26975670502E-02 -0.87814448287E-01  0.88142489621E-01  0.51100000000E-03 0.  1.
         11    1    4    4    0    0  0.77420233351E-02  0.72523212748E-02 -0.41125380768E-01  0.42474617756E-01  0.51100000000E-03 0. -1.
</event>
<event>
 8    1  0.1143506E+005  0.1043930E+01  0.7957747E-01            NaN
         13   -1    0    0    0    0  0.00000000000E+00  0.00000000000E+00  0.74505805969E-08  0.10566000000E+00  0.10566000000E+00 0. -1.
     999900   -1    0    0    0    0 -0.00000000000E+00 -0.00000000000E+00 -0.74505805969E-08  0.93827000000E+00  0.93827000000E+00 0.  1.
     999902    2    1    2    0    0  0.20433194271E-01 -0.96612115971E-02 -0.44902051925E-02  0.10208862073E+01  0.10206260980E+01 0.  0.
     999903    2    3    3    0    0 -0.10777869676E+00 -0.29230663177E-01 -0.62144220241E-01  0.12951353674E+00  0.21004117325E-01 0.  0.
         14    1    1    2    0    0 -0.20433194271E-01  0.96612115971E-02  0.44902051925E-02  0.23043792664E-01  0.00000000000E+00 0. -1.
     999901    1    3    3    0    0  0.12821189103E+00  0.19569451580E-01  0.57654015048E-01  0.89137267060E+00  0.88000000000E+00 0. -1.
        -11    1    4    4    0    0 -0.32007191954E-01 -0.13421815575E-01 -0.29318087235E-01  0.45435854017E-01  0.51100000000E-03 0. -1.
         11    1    4    4    0    0 -0.75771504805E-01 -0.15808847602E-01 -0.32826133005E-01  0.84077682722E-01  0.51100000000E-03 0.  1.
</event>
<event>
 8    1  0.1143506E+005  0.1043930E+01  0.7957747E-01            NaN
         13   -1    0    0    0    0  0.00000000000E+00  0.00000000000E+00  0.74505805969E-08  0.10566000000E+00  0.10566000000E+00 0. -1.
     999900   -1    0    0    0    0 -0.00000000000E+00 -0.00000000000E+00 -0.74505805969E-08  0.93827000000E+00  0.93827000000E+00 0. -1.
     999902    2    1    2    0    0  0.23567832607E-01  0.13303717303E-02 -0.95414604952E-03  0.10203053727E+01  0.10200318282E+01 0.  0.
     999903    2    3    3    0    0 -0.11164568140E+00  0.11680927087E-01 -0.59090951075E-01  0.12802194432E+00  0.17224270584E-01 0.  0.
         14    1    1    2    0    0 -0.23567832607E-01 -0.13303717303E-02  0.95414604952E-03  0.23624627349E-01  0.00000000000E+00 0.  1.
     999901    1    3    3    0    0  0.13521351401E+00 -0.10350555357E-01  0.58136805026E-01  0.89228342833E+00  0.88000000000E+00 0.  1.
        -11    1    4    4    0    0 -0.24638462109E-01  0.78193053398E-02 -0.80757584157E-02  0.27086423649E-01  0.51100000000E-03 0.  1.
         11    1    4    4    0    0 -0.87007219290E-01  0.38616217470E-02 -0.51015192660E-01  0.10093552068E+00  0.51100000000E-03 0. -1.
</event>
<event>
 8    1  0.1143506E+005  0.1043930E+01  0.7957747E-01            NaN
         13   -1    0    0    0    0  0.00000000000E+00  0.00000000000E+00  0.74505805969E-08  0.10566000000E+00  0.10566000000E+00 0.  1.
     999900   -1    0    0    0    0 -0.00000000000E+00 -0.00000000000E+00 -0.74505805969E-08  0.93827000000E+00  0.93827000000E+00 0.  1.
     999902    2    1    2    0    0 -0.17493827402E-01  0.68894138943E-02 -0.98129557626E-03  0.10251028663E+01  0.10249299613E+01 0.  0.
     999903    2    3    3    0    0  0.45556671551E-01  0.63183880650E-01  0.10762135733E+00  0.13440708852E+00  0.20378807438E-01 0.  0.
         14    1    1    2    0    0  0.17493827402E-01 -0.68894138943E-02  0.98129557626E-03  0.18827133664E-01  0.00000000000E+00 0.  1.
     999901    1    3    3    0    0 -0.63050498954E-01 -0.56294466756E-01 -0.10860265291E+00  0.89069577782E+00  0.88000000000E+00 0.  1.
        -11    1    4    4    0    0  0.12902514665E-01  0.85840686661E-02  0.12241629736E-01  0.19755498959E-01  0.51100000000E-03 0.  1.
         11    1    4    4    0    0  0.32654156887E-01  0.54599811984E-01  0.95379727597E-01  0.11465158956E+00  0.51100000000E-03 0. -1.
</event>
<event>
 8    1  0.1143506E+005  0.1043930E+01  0.7957747E-01            NaN
         13   -1    0    0    0    0  0.00000000000E+00  0.00000000000E+00  0.74505805969E-08  0.10566000000E+00  0.10566000000E+00 0. -1.
     999900   -1    0    0    0    0 -0.00000000000E+00 -0.00000000000E+00 -0.74505805969E-08  0.93827000000E+00  0.93827000000E+00 0. -1.
     999902    2    1    2    0    0  0.16135951326E-01 -0.80165281401E-02 -0.15113407347E-01  0.10204130119E+01  0.10201419833E+01 0.  0.
     999903    2    3    3    0    0  0.12551885753E+00  0.36001389338E-01 -0.11379409190E-01  0.13254132072E+00  0.19662835869E-01 0.  0.
         14    1    1    2    0    0 -0.16135951326E-01  0.80165281401E-02  0.15113407347E-01  0.23516988121E-01  0.00000000000E+00 0.  1.
     999901    1    3    3    0    0 -0.10938290620E+00 -0.44017917478E-01 -0.37339981574E-02  0.88787169116E+00  0.88000000000E+00 0. -1.
        -11    1    4    4    0    0  0.49345406022E-01  0.53755287721E-02 -0.86990428327E-02  0.50396427177E-01  0.51100000000E-03 0.  1.
         11    1    4    4    0    0  0.76173451505E-01  0.30625860566E-01 -0.26803663571E-02  0.82144893538E-01  0.51100000000E-03 0. -1.
</event>
<event>
 8    1  0.1143506E+005  0.1043930E+01  0.7957747E-01            NaN
         13   -1    0    0    0    0  0.00000000000E+00  0.00000000000E+00  0.74505805969E-08  0.10566000000E+00  0.10566000000E+00 0.  1.
     999900   -1    0    0    0    0 -0.00000000000E+00 -0.00000000000E+00 -0.74505805969E-08  0.93827000000E+00  0.93827000000E+00 0.  1.
     999902    2    1    2    0    0  0.58464482260E-02  0.96527248367E-02  0.21016866306E-01  0.10200749225E+01  0.10197959515E+01 0.  0.
     999903    2    3    3    0    0  0.23643402749E-01 -0.11405261098E+00 -0.50186616386E-01  0.12839691018E+00  0.20001537796E-01 0.  0.
         14    1    1    2    0    0 -0.58464482260E-02 -0.96527248367E-02 -0.21016866306E-01  0.23855077509E-01  0.00000000000E+00 0. -1.
     999901    1    3    3    0    0 -0.17796954523E-01  0.12370533581E+00  0.71203482692E-01  0.89167801232E+00  0.88000000000E+00 0.  1.
        -11    1    4    4    0    0  0.12089747791E-01 -0.54190315763E-01 -0.13152770278E-01  0.57061447678E-01  0.51100000000E-03 0. -1.
         11    1    4    4    0    0  0.11553654958E-01 -0.59862295213E-01 -0.37033846108E-01  0.71335462497E-01  0.51100000000E-03 0.  1.
</event>
<event>
 8    1  0.1143506E+005  0.1043930E+01  0.7957747E-01            NaN
         13   -1    0    0    0    0  0.00000000000E+00  0.00000000000E+00  0.74505805969E-08  0.10566000000E+00  0.10566000000E+00 0.  1.
     999900   -1    0    0    0    0 -0.00000000000E+00 -0.00000000000E+00 -0.74505805969E-08  0.93827000000E+00  0.93827000000E+00 0.  1.
     999902    2    1    2    0    0  0.94330922546E-02 -0.19277033409E-01 -0.96747604690E-02  0.10203887970E+01  0.10201172035E+01 0.  0.
     999903    2    3    3    0    0 -0.63407255426E-01 -0.10273139331E+00 -0.50996708821E-01  0.13248235498E+00  0.19408525418E-01 0.  0.
         14    1    1    2    0    0 -0.94330922546E-02  0.19277033409E-01  0.96747604690E-02  0.23541202957E-01  0.00000000000E+00 0. -1.
     999901    1    3    3    0    0  0.72840347681E-01  0.83454359902E-01  0.41321948352E-01  0.88790644206E+00  0.88000000000E+00 0.  1.
        -11    1    4    4    0    0 -0.50555287530E-01 -0.88937121193E-01 -0.36230290924E-01  0.10852899946E+00  0.51100000000E-03 0. -1.
         11    1    4    4    0    0 -0.12851967896E-01 -0.13794272118E-01 -0.14766417897E-01  0.23953355518E-01  0.51100000000E-03 0.  1.
</event>
<event>
 8    1  0.1143506E+005  0.1043930E+01  0.7957747E-01            NaN
         13   -1    0    0    0    0  0.00000000000E+00  0.00000000000E+00  0.74505805969E-08  0.10566000000E+00  0.10566000000E+00 0.  1.
     999900   -1    0    0    0    0 -0.00000000000E+00 -0.00000000000E+00 -0.74505805969E-08  0.93827000000E+00  0.93827000000E+00 0.  1.
     999902    2    1    2    0    0 -0.10332690805E-03 -0.15890885858E-01 -0.17880694770E-01  0.10200082489E+01  0.10197276978E+01 0.  0.
     999903    2    3    3    0    0  0.76457045474E-02  0.12545718089E+00 -0.19214315129E-01  0.12869399344E+00  0.19874430988E-01 0.  0.
         14    1    1    2    0    0  0.10332690805E-03  0.15890885858E-01  0.17880694770E-01  0.23921751091E-01  0.00000000000E+00 0.  1.
     999901    1    3    3    0    0 -0.77490314554E-02 -0.14134806675E+00  0.13336203592E-02  0.89131425547E+00  0.88000000000E+00 0. -1.
        -11    1    4    4    0    0  0.14572473358E-02  0.50526530260E-01  0.19396765971E-02  0.50587323473E-01  0.51100000000E-03 0.  1.
         11    1    4    4    0    0  0.61884572116E-02  0.74930650628E-01 -0.21153991726E-01  0.78106669966E-01  0.51100000000E-03 0. -1.
</event>
<event>
 8    1  0.1143506E+005  0.1043930E+01  0.7957747E-01            NaN
         13   -1    0    0    0    0  0.00000000000E+00  0.00000000000E+00  0.74505805969E-08  0.10566000000E+00  0.10566000000E+00 0.  1.
     999900   -1    0    0    0    0 -0.00000000000E+00 -0.00000000000E+00 -0.74505805969E-08  0.93827000000E+00  0.93827000000E+00 0.  1.
     999902    2    1    2    0    0 -0.20640199392E-01  0.11019510885E-02 -0.13180006331E-01  0.10194158267E+01  0.10191210345E+01 0.  0.
     999903    2    3    3    0    0 -0.87702544913E-02 -0.12595297511E+00  0.21101067939E-01  0.12955120668E+00  0.19929645774E-01 0.  0.
         14    1    1    2    0    0  0.20640199392E-01 -0.11019510885E-02  0.13180006331E-01  0.24514173330E-01  0.00000000000E+00 0.  1.
     999901    1    3    3    0    0 -0.11869944901E-01  0.12705492620E+00 -0.34281074269E-01  0.88986461999E+00  0.88000000000E+00 0.  1.
        -11    1    4    4    0    0  0.54913214140E-02 -0.47526996362E-01  0.11936093454E-01  0.49312284899E-01  0.51100000000E-03 0. -1.
         11    1    4    4    0    0 -0.14261575905E-01 -0.78425978747E-01  0.91649744849E-02  0.80238921777E-01  0.51100000000E-03 0.  1.
</event>
<event>
 8    1  0.1143506E+005  0.1043930E+01  0.7957747E-01            NaN
         13   -1    0    0    0    0  0.00000000000E+00  0.00000000000E+00  0.74505805969E-08  0.10566000000E+00  0.10566000000E+00 0.  1.
     999900   -1    0    0    0    0 -0.00000000000E+00 -0.00000000000E+00 -0.74505805969E-08  0.93827000000E+00  0.93827000000E+00 0. -1.
     999902    2    1    2    0    0  0.11319056859E-01 -0.20775022362E-01  0.11661097938E-02  0.10202428217E+01  0.10199678097E+01 0.  0.
     999903    2    3    3    0    0  0.11524622703E+00 -0.54571219132E-01  0.31615968064E-01  0.13296032248E+00  0.20473571109E-01 0.  0.
         14    1    1    2    0    0 -0.11319056859E-01  0.20775022362E-01 -0.11661097938E-02  0.23687178269E-01  0.00000000000E+00 0. -1.
     999901    1    3    3    0    0 -0.10392717017E+00  0.33796196770E-01 -0.30449858270E-01  0.88728249926E+00  0.88000000000E+00 0. -1.
        -11    1    4    4    0    0  0.38724745771E-01 -0.15398331862E-01  0.19948737233E-01  0.46205278890E-01  0.51100000000E-03 0. -1.
         11    1    4    4    0    0  0.76521481259E-01 -0.39172887270E-01  0.11667230830E-01  0.86755043585E-01  0.51100000000E-03 0.  1.
</event>
<event>
 8    1  0.1143506E+005  0.1043930E+01  0.7957747E-01            NaN
         13   -1    0    0    0    0  0.00000000000E+00  0.00000000000E+00  0.74505805969E-08  0.10566000000E+00  0.10566000000E+00 0.  1.
     999900   -1    0    0    0    0 -0.00000000000E+00 -0.00000000000E+00 -0.74505805969E-08  0.93827000000E+00  0.93827000000E+00 0. -1.
     999902    2    1    2    0    0  0.21701402671E-01  0.71643437156E-02 -0.70582014806E-02  0.10200114527E+01  0.10197309776E+01 0.  0.
     999903    2    3    3    0    0  0.43623230523E-02 -0.75643434367E-01 -0.10430892591E+00  0.13062094495E+00  0.20988573329E-01 0.  0.
         14    1    1    2    0    0 -0.21701402671E-01 -0.71643437156E-02  0.70582014806E-02  0.23918547341E-01  0.00000000000E+00 0.  1.
     999901    1    3    3    0    0  0.17339079618E-01  0.82807778083E-01  0.97250724433E-01  0.88939050770E+00  0.88000000000E+00 0.  1.
        -11    1    4    4    0    0 -0.48931345937E-02 -0.92993995110E-02 -0.22847300166E-01  0.25153167659E-01  0.51100000000E-03 0. -1.
         11    1    4    4    0    0  0.92554576460E-02 -0.66344034856E-01 -0.81461625747E-01  0.10546777730E+00  0.51100000000E-03 0.  1.
</event>
<event>
 8    1  0.1143506E+005  0.1043930E+01  0.7957747E-01            NaN
         13   -1    0    0    0    0  0.00000000000E+00  0.00000000000E+00  0.74505805969E-08  0.10566000000E+00  0.10566000000E+00 0. -1.
     999900   -1    0    0    0    0 -0.00000000000E+00 -0.00000000000E+00 -0.74505805969E-08  0.93827000000E+00  0.93827000000E+00 0.  1.
     999902    2    1    2    0    0 -0.17273855228E-01 -0.32219042163E-02  0.13256921600E-01  0.10219183505E+01  0.10216812627E+01 0.  0.
     999903    2    3    3    0    0 -0.83962696224E-01  0.46956411350E-01  0.91864792411E-01  0.13448133182E+00  0.19785085243E-01 0.  0.
         14    1    1    2    0    0  0.17273855228E-01  0.32219042163E-02 -0.13256921600E-01  0.22011649450E-01  0.00000000000E+00 0.  1.
     999901    1    3    3    0    0  0.66688840996E-01 -0.50178315566E-01 -0.78607870811E-01  0.88743701873E+00  0.88000000000E+00 0.  1.
        -11    1    4    4    0    0 -0.32027151604E-01  0.20818295772E-01  0.49563532653E-01  0.62577510088E-01  0.51100000000E-03 0.  1.
         11    1    4    4    0    0 -0.51935544620E-01  0.26138115578E-01  0.42301259758E-01  0.71903821727E-01  0.51100000000E-03 0. -1.
</event>
<event>
 8    1  0.1143506E+005  0.1043930E+01  0.7957747E-01            NaN
         13   -1    0    0    0    0  0.00000000000E+00  0.00000000000E+00  0.74505805969E-08  0.10566000000E+00  0.10566000000E+00 0. -1.
     999900   -1    0    0    0    0 -0.00000000000E+00 -0.00000000000E+00 -0.74505805969E-08  0.93827000000E+00  0.93827000000E+00 0. -1.
     999902    2    1    2    0    0  0.16493386658E-01 -0.83213138905E-02  0.14510432684E-01  0.10204389650E+01  0.10201685413E+01 0.  0.
     999903    2    3    3    0    0  0.68605344066E-01  0.12101764465E-01  0.11201465529E+00  0.13328631092E+00  0.19100045574E-01 0.  0.
         14    1    1    2    0    0 -0.16493386658E-01  0.83213138905E-02 -0.14510432684E-01  0.23491034991E-01  0.00000000000E+00 0.  1.
     999901    1    3    3    0    0 -0.52111957409E-01 -0.20423078355E-01 -0.97504222605E-01  0.88715265409E+00  0.88000000000E+00 0. -1.
        -11    1    4    4    0    0  0.28021295805E-01  0.14372279917E-01  0.52187877227E-01  0.60955648623E-01  0.51100000000E-03 0.  1.
         11    1    4    4    0    0  0.40584048261E-01 -0.22705154524E-02  0.59826778062E-01  0.72330662294E-01  0.51100000000E-03 0. -1.
</event>
<event>
 8    1  0.1143506E+005  0.1043930E+01  0.7957747E-01            NaN
         13   -1    0    0    0    0  0.00000000000E+00  0.00000000000E+00  0.74505805969E-08  0.10566000000E+00  0.10566000000E+00 0.  1.
     999900   -1    0    0    0    0 -0.00000000000E+00 -0.00000000000E+00 -0.74505805969E-08  0.93827000000E+00  0.93827000000E+00 0.  1.
     999902    2    1    2    0    0  0.14261569818E-01 -0.15715346284E-01  0.78728977128E-02  0.10212949166E+01  0.10210440537E+01 0.  0.
     999903    2    3    3    0    0 -0.63316832348E-03  0.11067998208E+00 -0.63855278718E-01  0.12925087981E+00  0.19437951980E-01 0.  0.
         14    1    1    2    0    0 -0.14261569818E-01  0.15715346284E-01 -0.78728977128E-02  0.22635083408E-01  0.00000000000E+00 0.  1.
     999901    1    3    3    0    0  0.14894738142E-01 -0.12639532836E+00  0.71728176430E-01  0.89204403678E+00  0.88000000000E+00 0. -1.
        -11    1    4    4    0    0  0.15710347521E-02  0.95819793451E-01 -0.47238009277E-01  0.10684377197E+00  0.51100000000E-03 0.  1.
         11    1    4    4    0    0 -0.22042030755E-02  0.14860188629E-01 -0.16617269441E-01  0.22407107845E-01  0.51100000000E-03 0. -1.
</event>
<event>
 8    1  0.1143506E+005  0.1043930E+01  0.7957747E-01            NaN
         13   -1    0    0    0    0  0.00000000000E+00  0.00000000000E+00  0.74505805969E-08  0.10566000000E+00  0.10566000000E+00 0.  1.
     999900   -1    0    0    0    0 -0.00000000000E+00 -0.00000000000E+00 -0.74505805969E-08  0.93827000000E+00  0.93827000000E+00 0.  1.
     999902    2    1    2    0    0 -0.12052040019E-01  0.19166987396E-01 -0.27834852666E-02  0.10211183174E+01  0.10208634802E+01 0.  0.
     999903    2    3    3    0    0  0.26402208648E-01  0.12808214153E+00 -0.18598890250E-01  0.13342953909E+00  0.18852362777E-01 0.  0.
         14    1    1    2    0    0  0.12052040019E-01 -0.19166987396E-01  0.27834852666E-02  0.22811682636E-01  0.00000000000E+00 0.  1.
     999901    1    3    3    0    0 -0.38454248667E-01 -0.10891515414E+00  0.15815404983E-01  0.88768877828E+00  0.88000000000E+00 0.  1.
        -11    1    4    4    0    0  0.22701303808E-01  0.67929101032E-01 -0.61419191772E-02  0.71886690380E-01  0.51100000000E-03 0. -1.
         11    1    4    4    0    0  0.37009048404E-02  0.60153040499E-01 -0.12456971072E-01  0.61542848709E-01  0.51100000000E-03 0.  1.
</event>
<event>
 8    1  0.1143506E+005  0.1043930E+01  0.7957747E-01            NaN
         13   -1    0    0    0    0  0.00000000000E+00  0.00000000000E+00  0.74505805969E-08  0.10566000000E+00  0.10566000000E+00 0. -1.
     999900   -1    0    0    0    0 -0.00000000000E+00 -0.00000000000E+00 -0.74505805969E-08  0.93827000000E+00  0.93827000000E+00 0. -1.
     999902    2    1    2    0    0 -0.17981914958E-01  0.10733439693E-01 -0.96013454722E-02  0.10208921653E+01  0.10206321920E+01 0.  0.
     999903    2    3    3    0    0 -0.45700658651E-01 -0.65677771733E-01 -0.10326215022E+00  0.13219685849E+00  0.20268641428E-01 0.  0.
         14    1    1    2    0    0  0.17981914958E-01 -0.10733439693E-01  0.96013454722E-02  0.23037834709E-01  0.00000000000E+00 0. -1.
     999901    1    3    3    0    0  0.27718743693E-01  0.76411211426E-01  0.93660804750E-01  0.88869530680E+00  0.88000000000E+00 0.  1.
        -11    1    4    4    0    0 -0.20058202126E-01 -0.19491580517E-01 -0.49274910699E-01  0.56661548946E-01  0.51100000000E-03 0.  1.
         11    1    4    4    0    0 -0.25642456524E-01 -0.46186191215E-01 -0.53987239523E-01  0.75535309544E-01  0.51100000000E-03 0. -1.
</event>
<event>
 8    1  0.1143506E+005  0.1043930E+01  0.7957747E-01            NaN
         13   -1    0    0    0    0  0.00000000000E+00  0.00000000000E+00  0.74505805969E-08  0.10566000000E+00  0.10566000000E+00 0.  1.
     999900   -1    0    0    0    0 -0.00000000000E+00 -0.00000000000E+00 -0.74505805969E-08  0.93827000000E+00  0.93827000000E+00 0.  1.
     999902    2    1    2    0    0 -0.43274280478E-02 -0.99604762977E-02  0.19007312428E-01  0.10220390053E+01  0.10218045375E+01 0.  0.
     999903    2    3    3    0    0  0.79688408322E-02  0.88343903694E-01 -0.92268378377E-01  0.12951604837E+00  0.19819318663E-01 0.  0.
         14    1    1    2    0    0  0.43274280478E-02  0.99604762977E-02 -0.19007312428E-01  0.21890994663E-01  0.00000000000E+00 0. -1.
     999901    1    3    3    0    0 -0.12296268880E-01 -0.98304379991E-01  0.11127569081E+00  0.89252295697E+00  0.88000000000E+00 0. -1.
        -11    1    4    4    0    0  0.13098689756E-01  0.39330089930E-01 -0.38481412167E-01  0.56564227658E-01  0.51100000000E-03 0. -1.
         11    1    4    4    0    0 -0.51298489235E-02  0.49013813764E-01 -0.53786966211E-01  0.72951820709E-01  0.51100000000E-03 0.  1.
</event>
<event>
 8    1  0.1143506E+005  0.1043930E+01  0.7957747E-01            NaN
         13   -1    0    0    0    0  0.00000000000E+00  0.00000000000E+00  0.74505805969E-08  0.10566000000E+00  0.10566000000E+00 0.  1.
     999900   -1    0    0    0    0 -0.00000000000E+00 -0.00000000000E+00 -0.74505805969E-08  0.93827000000E+00  0.93827000000E+00 0. -1.
     999902    2    1    2    0    0 -0.14649970662E-01  0.17887728958E-01  0.20896049640E-03  0.10208077996E+01  0.10205458968E+01 0.  0.
     999903    2    3    3    0    0  0.33097059381E-01 -0.50764102906E-01  0.11289412673E+00  0.12969007471E+00  0.20050489867E-01 0.  0.
         14    1    1    2    0    0  0.14649970662E-01 -0.17887728958E-01 -0.20896049640E-03  0.23122200418E-01  0.00000000000E+00 0. -1.
     999901    1    3    3    0    0 -0.47747030043E-01  0.68651831864E-01 -0.11268516623E+00  0.89111772487E+00  0.88000000000E+00 0. -1.
        -11    1    4    4    0    0  0.24059384205E-01 -0.46327516366E-01  0.82140200852E-01  0.97326083132E-01  0.51100000000E-03 0. -1.
         11    1    4    4    0    0  0.90376751762E-02 -0.44365865404E-02  0.30753925879E-01  0.32363991576E-01  0.51100000000E-03 0.  1.
</event>
<event>
 8    1  0.1437085E+005  0.1043930E+01  0.7957747E-01            NaN
         13   -1    0    0    0    0  0.00000000000E+00  0.00000000000E+00  0.74505805969E-08  0.10566000000E+00  0.10566000000E+00 0.  1.
     999900   -1    0    0    0    0 -0.00000000000E+00 -0.00000000000E+00 -0.74505805969E-08  0.93827000000E+00  0.93827000000E+00 0. -1.
     999902    2    1    2    0    0  0.13129329252E-01  0.51985697415E-03 -0.19640031194E-01  0.10202999267E+01  0.10200262546E+01 0.  0.
     999903    2    3    3    0    0 -0.12125492311E+00  0.20885834460E-01 -0.35963758172E-01  0.12971564414E+00  0.19843940458E-01 0.  0.
         14    1    1    2    0    0 -0.13129329252E-01 -0.51985697415E-03  0.19640031194E-01  0.23630073279E-01  0.00000000000E+00 0.  1.
     999901    1    3    3    0    0  0.13438425236E+00 -0.20365977486E-01  0.16323726978E-01  0.89058428258E+00  0.88000000000E+00 0.  1.
        -11    1    4    4    0    0 -0.61360112656E-01  0.19431790949E-01 -0.13765764681E-01  0.65821085702E-01  0.51100000000E-03 0. -1.
         11    1    4    4    0    0 -0.59894810453E-01  0.14540435108E-02 -0.22197993491E-01  0.63894558436E-01  0.51100000000E-03 0.  1.
</event>
<event>
 8    1  0.1143506E+005  0.1043930E+01  0.7957747E-01            NaN
         13   -1    0    0    0    0  0.00000000000E+00  0.00000000000E+00  0.74505805969E-08  0.10566000000E+00  0.10566000000E+00 0. -1.
     999900   -1    0    0    0    0 -0.00000000000E+00 -0.00000000000E+00 -0.74505805969E-08  0.93827000000E+00  0.93827000000E+00 0.  1.
     999902    2    1    2    0    0 -0.82622525222E-02  0.36998713432E-03  0.18840157456E-01  0.10233544504E+01  0.10231475837E+01 0.  0.
     999903    2    3    3    0    0 -0.13927443137E-01  0.13035612732E+00 -0.13047472025E-01  0.13321664540E+00  0.19741947273E-01 0.  0.
         14    1    1    2    0    0  0.82622525222E-02 -0.36998713432E-03 -0.18840157456E-01  0.20575549572E-01  0.00000000000E+00 0.  1.
     999901    1    3    3    0    0  0.56651906148E-02 -0.12998614019E+00  0.31887629481E-01  0.89013780503E+00  0.88000000000E+00 0.  1.
        -11    1    4    4    0    0  0.13499898434E-03  0.76448302823E-01 -0.23591605148E-02  0.76486521614E-01  0.51100000000E-03 0.  1.
         11    1    4    4    0    0 -0.14062442121E-01  0.53907824501E-01 -0.10688311510E-01  0.56730123786E-01  0.51100000000E-03 0. -1.
</event>
<event>
 8    1  0.1143506E+005  0.1043930E+01  0.7957747E-01            NaN
         13   -1    0    0    0    0  0.00000000000E+00  0.00000000000E+00  0.74505805969E-08  0.10566000000E+00  0.10566000000E+00 0.  1.
     999900   -1    0    0    0    0 -0.00000000000E+00 -0.00000000000E+00 -0.74505805969E-08  0.93827000000E+00  0.93827000000E+00 0.  1.
     999902    2    1    2    0    0 -0.23450663270E-01  0.62095859875E-03 -0.11721171533E-01  0.10177058688E+01  0.10173679424E+01 0.  0.
     999903    2    3    3    0    0  0.94603526097E-01  0.34244931972E-01 -0.75178564436E-01  0.12692295248E+00  0.18305103123E-01 0.  0.
         14    1    1    2    0    0  0.23450663270E-01 -0.62095859875E-03  0.11721171533E-01  0.26224131244E-01  0.00000000000E+00 0.  1.
     999901    1    3    3    0    0 -0.11805418937E+00 -0.33623973373E-01  0.63457392904E-01  0.89078291627E+00  0.88000000000E+00 0.  1.
        -11    1    4    4    0    0  0.54744817803E-01  0.14352385985E-01 -0.51251672845E-01  0.76354313239E-01  0.51100000000E-03 0.  1.
         11    1    4    4    0    0  0.39858708294E-01  0.19892545987E-01 -0.23926891591E-01  0.50568639243E-01  0.51100000000E-03 0. -1.
</event>
<event>
 8    1  0.1143506E+005  0.1043930E+01  0.7957747E-01            NaN
         13   -1    0    0    0    0  0.00000000000E+00  0.00000000000E+00  0.74505805969E-08  0.10566000000E+00  0.10566000000E+00 0. -1.
     999900   -1    0    0    0    0 -0.00000000000E+00 -0.00000000000E+00 -0.74505805969E-08  0.93827000000E+00  0.93827000000E+00 0. -1.
     999902    2    1    2    0    0 -0.12325002235E-02 -0.23462299436E-01 -0.26760146974E-02  0.10202834441E+01  0.10200093856E+01 0.  0.
     999903    2    3    3    0    0  0.43202580911E-01  0.76277363241E-01 -0.92464234525E-01  0.12900099662E+00  0.20172340552E-01 0.  0.
         14    1    1    2    0    0  0.12325002235E-02  0.23462299436E-01  0.26760146974E-02  0.23646555907E-01  0.00000000000E+00 0. -1.
     999901    1    3    3    0    0 -0.44435081134E-01 -0.99739662677E-01  0.89788219828E-01  0.89128244747E+00  0.88000000000E+00 0. -1.
        -11    1    4    4    0    0  0.14338962326E-01  0.30982614320E-01 -0.22892648660E-01  0.41107939797E-01  0.51100000000E-03 0.  1.
         11    1    4    4    0    0  0.28863618585E-01  0.45294748921E-01 -0.69571585865E-01  0.87893056827E-01  0.51100000000E-03 0. -1.
</event>
<event>
 8    1  0.1143506E+005  0.1043930E+01  0.7957747E-01            NaN
         13   -1    0    0    0    0  0.00000000000E+00  0.00000000000E+00  0.74505805969E-08  0.10566000000E+00  0.10566000000E+00 0. -1.
     999900   -1    0    0    0    0 -0.00000000000E+00 -0.00000000000E+00 -0.74505805969E-08  0.93827000000E+00  0.93827000000E+00 0. -1.
     999902    2    1    2    0    0 -0.19458204098E-01 -0.20919873443E-02  0.15010972775E-01  0.10192657055E+01  0.10189672473E+01 0.  0.
     999903    2    3    3    0    0  0.10302036868E+00 -0.53659079142E-01 -0.47863459655E-01  0.12706989743E+00  0.19061871005E-01 0.  0.
         14    1    1    2    0    0  0.19458204098E-01  0.20919873443E-02 -0.15010972775E-01  0.24664294464E-01  0.00000000000E+00 0.  1.
     999901    1    3    3    0    0 -0.12247857278E+00  0.51567091797E-01  0.62874432431E-01  0.89219580810E+00  0.88000000000E+00 0. -1.
        -11    1    4    4    0    0  0.23388141376E-01 -0.21662428988E-01 -0.12382098197E-01  0.34202974482E-01  0.51100000000E-03 0. -1.
         11    1    4    4    0    0  0.79632227301E-01 -0.31996650154E-01 -0.35481361459E-01  0.92866922949E-01  0.51100000000E-03 0.  1.
</event>
<event>
 8    1  0.1143506E+005  0.1043930E+01  0.7957747E-01            NaN
         13   -1    0    0    0    0  0.00000000000E+00  0.00000000000E+00  0.74505805969E-08  0.10566000000E+00  0.10566000000E+00 0.  1.
     999900   -1    0    0    0    0 -0.00000000000E+00 -0.00000000000E+00 -0.74505805969E-08  0.93827000000E+00  0.93827000000E+00 0. -1.
     999902    2    1    2    0    0 -0.67468807778E-02 -0.21106113448E-01  0.64129336413E-02  0.10208624006E+01  0.10206017474E+01 0.  0.
     999903    2    3    3    0    0 -0.82992751768E-01 -0.65651509758E-01  0.78873845601E-01  0.13347955821E+00  0.19944707563E-01 0.  0.
         14    1    1    2    0    0  0.67468807778E-02  0.21106113448E-01 -0.64129336413E-02  0.23067599420E-01  0.00000000000E+00 0.  1.
     999901    1    3    3    0    0  0.76245870990E-01  0.44545396310E-01 -0.72460911959E-01  0.88738284237E+00  0.88000000000E+00 0. -1.
        -11    1    4    4    0    0 -0.29274788846E-01 -0.11674241957E-01  0.23859233349E-01  0.39532585600E-01  0.51100000000E-03 0.  1.
         11    1    4    4    0    0 -0.53717962922E-01 -0.53977267801E-01  0.55014612252E-01  0.93946972607E-01  0.51100000000E-03 0. -1.
</event>
<event>
 8    1  0.1143506E+005  0.1043930E+01  0.7957747E-01            NaN
         13   -1    0    0    0    0  0.00000000000E+00  0.00000000000E+00  0.74505805969E-08  0.10566000000E+00  0.10566000000E+00 0.  1.
     999900   -1    0    0    0    0 -0.00000000000E+00 -0.00000000000E+00 -0.74505805969E-08  0.93827000000E+00  0.93827000000E+00 0.  1.
     999902    2    1    2    0    0 -0.19144995874E-02  0.11742882151E-01  0.20801056999E-01  0.10199665995E+01  0.10196850590E+01 0.  0.
     999903    2    3    3    0    0  0.88121112907E-01  0.59611036572E-02 -0.90763247930E-01  0.12834648165E+00  0.20832351741E-01 0.  0.
         14    1    1    2    0    0  0.19144995874E-02 -0.11742882151E-01 -0.20801056999E-01  0.23963400471E-01  0.00000000000E+00 0. -1.
     999901    1    3    3    0    0 -0.90035612495E-01  0.57817784936E-02  0.11156430493E+00  0.89162011788E+00  0.88000000000E+00 0. -1.
        -11    1    4    4    0    0  0.23162538594E-01 -0.71401379959E-02 -0.28501861217E-01  0.37417936589E-01  0.51100000000E-03 0.  1.
         11    1    4    4    0    0  0.64958574313E-01  0.13101241653E-01 -0.62261386713E-01  0.90928545057E-01  0.51100000000E-03 0. -1.
</event>
<event>
 8    1  0.1143506E+005  0.1043930E+01  0.7957747E-01            NaN
         13   -1    0    0    0    0  0.00000000000E+00  0.00000000000E+00  0.74505805969E-08  0.10566000000E+00  0.10566000000E+00 0.  1.
     999900   -1    0    0    0    0 -0.00000000000E+00 -0.00000000000E+00 -0.74505805969E-08  0.93827000000E+00  0.93827000000E+00 0.  1.
     999902    2    1    2    0    0  0.82820856177E-03 -0.10748949287E-01 -0.20606527027E-01  0.10206737149E+01  0.10204087306E+01 0.  0.
     999903    2    3    3    0    0  0.10494122512E+00  0.10078195326E-01  0.72354888623E-01  0.12943013711E+00  0.20067379841E-01 0.  0.
         14    1    1    2    0    0 -0.82820856177E-03  0.10748949287E-01  0.20606527027E-01  0.23256285093E-01  0.00000000000E+00 0.  1.
     999901    1    3    3    0    0 -0.10411301656E+00 -0.20827144613E-01 -0.92961415649E-01  0.89124357780E+00  0.88000000000E+00 0.  1.
        -11    1    4    4    0    0  0.24082452651E-01 -0.35570230206E-02  0.24223980927E-01  0.34346459955E-01  0.51100000000E-03 0.  1.
         11    1    4    4    0    0  0.80858772468E-01  0.13635218346E-01  0.48130907695E-01  0.95083677153E-01  0.51100000000E-03 0. -1.
</event>
<event>
 8    1  0.1143506E+005  0.1043930E+01  0.7957747E-01            NaN
         13   -1    0    0    0    0  0.00000000000E+00  0.00000000000E+00  0.74505805969E-08  0.10566000000E+00  0.10566000000E+00 0. -1.
     999900   -1    0    0    0    0 -0.00000000000E+00 -0.00000000000E+00 -0.74505805969E-08  0.93827000000E+00  0.93827000000E+00 0. -1.
     999902    2    1    2    0    0  0.12357905133E-01  0.15458249822E-01  0.12641787319E-01  0.10204461738E+01  0.10201759179E+01 0.  0.
     999903    2    3    3    0    0 -0.99450720650E-01  0.41873389707E-02  0.82058838404E-01  0.13058835975E+00  0.20290073826E-01 0.  0.
         14    1    1    2    0    0 -0.12357905133E-01 -0.15458249822E-01 -0.12641787319E-01  0.23483826210E-01  0.00000000000E+00 0.  1.
     999901    1    3    3    0    0  0.11180862578E+00  0.11270910852E-01 -0.69417051084E-01  0.88985781404E+00  0.88000000000E+00 0. -1.
        -11    1    4    4    0    0 -0.94807299213E-02  0.66264370910E-02  0.90332533519E-02  0.14685186260E-01  0.51100000000E-03 0.  1.
         11    1    4    4    0    0 -0.89969990729E-01 -0.24390981203E-02  0.73025585052E-01  0.11590317349E+00  0.51100000000E-03 0. -1.
</event>
<event>
 8    1  0.1143506E+005  0.1043930E+01  0.7957747E-01            NaN
         13   -1    0    0    0    0  0.00000000000E+00  0.00000000000E+00  0.74505805969E-08  0.10566000000E+00  0.10566000000E+00 0. -1.
     999900   -1    0    0    0    0 -0.00000000000E+00 -0.00000000000E+00 -0.74505805969E-08  0.93827000000E+00  0.93827000000E+00 0.  1.
     999902    2    1    2    0    0  0.10549345547E-01 -0.20989577521E-01 -0.34853613897E-02  0.10201813411E+01  0.10199048828E+01 0.  0.
     999903    2    3    3    0    0  0.15396676711E-01  0.79510647417E-01 -0.99003741742E-01  0.12931235363E+00  0.18998505628E-01 0.  0.
         14    1    1    2    0    0 -0.10549345547E-01  0.20989577521E-01  0.34853613897E-02  0.23748658910E-01  0.00000000000E+00 0. -1.
     999901    1    3    3    0    0 -0.48473311642E-02 -0.10050022494E+00  0.95518380352E-01  0.89086898746E+00  0.88000000000E+00 0. -1.
        -11    1    4    4    0    0  0.96722588250E-02  0.46647483173E-01 -0.43284225036E-01  0.64368668894E-01  0.51100000000E-03 0.  1.
         11    1    4    4    0    0  0.57244178860E-02  0.32863164244E-01 -0.55719516706E-01  0.64943684737E-01  0.51100000000E-03 0. -1.
</event>
<event>
 8    1  0.1143506E+005  0.1043930E+01  0.7957747E-01            NaN
         13   -1    0    0    0    0  0.00000000000E+00  0.00000000000E+00  0.74505805969E-08  0.10566000000E+00  0.10566000000E+00 0. -1.
     999900   -1    0    0    0    0 -0.00000000000E+00 -0.00000000000E+00 -0.74505805969E-08  0.93827000000E+00  0.93827000000E+00 0. -1.
     999902    2    1    2    0    0  0.73309703465E-02 -0.22009269323E-01  0.40927772595E-02  0.10203736444E+01  0.10201016971E+01 0.  0.
     999903    2    3    3    0    0 -0.16339200954E-01  0.12472261118E+00  0.10035728367E-01  0.12789068076E+00  0.20799306554E-01 0.  0.
         14    1    1    2    0    0 -0.73309703465E-02  0.22009269323E-01 -0.40927772595E-02  0.23556355577E-01  0.00000000000E+00 0.  1.
     999901    1    3    3    0    0  0.23670171300E-01 -0.14673188050E+00 -0.59429511078E-02  0.89248296367E+00  0.88000000000E+00 0. -1.
        -11    1    4    4    0    0 -0.39975154634E-02  0.88388505755E-01  0.10974014572E-02  0.88487137429E-01  0.51100000000E-03 0.  1.
         11    1    4    4    0    0 -0.12341685490E-01  0.36334105426E-01  0.89383269101E-02  0.39403543328E-01  0.51100000000E-03 0. -1.
</event>
<event>
 8    1  0.1143506E+005  0.1043930E+01  0.7957747E-01            NaN
         13   -1    0    0    0    0  0.00000000000E+00  0.00000000000E+00  0.74505805969E-08  0.10566000000E+00  0.10566000000E+00 0.  1.
     999900   -1    0    0    0    0 -0.00000000000E+00 -0.00000000000E+00 -0.74505805969E-08  0.93827000000E+00  0.93827000000E+00 0. -1.
     999902    2    1    2    0    0  0.77449473321E-03  0.12108136913E-01 -0.20948918959E-01  0.10197212407E+01  0.10194338354E+01 0.  0.
     999903    2    3    3    0    0  0.72265550843E-01 -0.69824350658E-01 -0.81707609176E-01  0.13094932279E+00  0.19334993086E-01 0.  0.
         14    1    1    2    0    0 -0.77449473321E-03 -0.12108136913E-01  0.20948918959E-01  0.24208759306E-01  0.00000000000E+00 0.  1.
     999901    1    3    3    0    0 -0.71491056110E-01  0.81932487571E-01  0.60758690217E-01  0.88877191791E+00  0.88000000000E+00 0. -1.
        -11    1    4    4    0    0  0.24319168022E-01 -0.29517194158E-01 -0.20615163556E-01  0.43450348372E-01  0.51100000000E-03 0. -1.
         11    1    4    4    0    0  0.47946382822E-01 -0.40307156500E-01 -0.61092445620E-01  0.87498974414E-01  0.51100000000E-03 0.  1.
</event>
<event>
 8    1  0.1143506E+005  0.1043930E+01  0.7957747E-01            NaN
         13   -1    0    0    0    0  0.00000000000E+00  0.00000000000E+00  0.74505805969E-08  0.10566000000E+00  0.10566000000E+00 0.  1.
     999900   -1    0    0    0    0 -0.00000000000E+00 -0.00000000000E+00 -0.74505805969E-08  0.93827000000E+00  0.93827000000E+00 0.  1.
     999902    2    1    2    0    0  0.82166661187E-02  0.16138073859E-01 -0.13966597409E-01  0.10210604378E+01  0.10208042912E+01 0.  0.
     999903    2    3    3    0    0 -0.48802022191E-01  0.11868578401E+00  0.24985934803E-01  0.13241851702E+00  0.21033640110E-01 0.  0.
         14    1    1    2    0    0 -0.82166661187E-02 -0.16138073859E-01  0.13966597409E-01  0.22869562155E-01  0.00000000000E+00 0.  1.
     999901    1    3    3    0    0  0.57018688309E-01 -0.10254771015E+00 -0.38952532213E-01  0.88864192082E+00  0.88000000000E+00 0.  1.
        -11    1    4    4    0    0 -0.29604416530E-01  0.91518942748E-01  0.23982673287E-01  0.99134091506E-01  0.51100000000E-03 0. -1.
         11    1    4    4    0    0 -0.19197605660E-01  0.27166841264E-01  0.10032615168E-02  0.33284425518E-01  0.51100000000E-03 0.  1.
</event>
<event>
 8    1  0.1143506E+005  0.1043930E+01  0.7957747E-01            NaN
         13   -1    0    0    0    0  0.00000000000E+00  0.00000000000E+00  0.74505805969E-08  0.10566000000E+00  0.10566000000E+00 0. -1.
     999900   -1    0    0    0    0 -0.00000000000E+00 -0.00000000000E+00 -0.74505805969E-08  0.93827000000E+00  0.93827000000E+00 0. -1.
     999902    2    1    2    0    0  0.51790152979E-02 -0.14210449717E-01 -0.10810757489E-01  0.10253388312E+01  0.10251702723E+01 0.  0.
     999903    2    3    3    0    0 -0.82544515332E-01 -0.74032975882E-01 -0.77150786890E-01  0.13647711417E+00  0.19475118622E-01 0.  0.
         14    1    1    2    0    0 -0.51790152979E-02  0.14210449717E-01  0.10810757489E-01  0.18591168820E-01  0.00000000000E+00 0. -1.
     999901    1    3    3    0    0  0.87723530630E-01  0.59822526165E-01  0.66340029401E-01  0.88886171701E+00  0.88000000000E+00 0.  1.
        -11    1    4    4    0    0 -0.43244514711E-02 -0.11932112730E-01 -0.86193288128E-02  0.15350249018E-01  0.51100000000E-03 0.  1.
         11    1    4    4    0    0 -0.78220063861E-01 -0.62100863152E-01 -0.68531458077E-01  0.12112686515E+00  0.51100000000E-03 0. -1.
</event>
<event>
 8    1  0.1143506E+005  0.1043930E+01  0.7957747E-01            NaN
         13   -1    0    0    0    0  0.00000000000E+00  0.00000000000E+00  0.74505805969E-08  0.10566000000E+00  0.10566000000E+00 0.  1.
     999900   -1    0    0    0    0 -0.00000000000E+00 -0.00000000000E+00 -0.74505805969E-08  0.93827000000E+00  0.93827000000E+00 0.  1.
     999902    2    1    2    0    0  0.22691398867E-01  0.60239235148E-04 -0.33816685881E-02  0.10209879231E+01  0.10207301309E+01 0.  0.
     999903    2    3    3    0    0 -0.22801176134E-01  0.67536103791E-01  0.10581686973E+00  0.13051227071E+00  0.27481338000E-01 0.  0.
         14    1    1    2    0    0 -0.22691398867E-01 -0.60239235148E-04  0.33816685881E-02  0.22942076927E-01  0.00000000000E+00 0.  1.
     999901    1    3    3    0    0  0.45492575000E-01 -0.67475864556E-01 -0.10919853832E+00  0.89047565236E+00  0.88000000000E+00 0.  1.
        -11    1    4    4    0    0  0.43554965044E-02  0.28460839071E-01  0.38845278175E-01  0.48355004580E-01  0.51100000000E-03 0.  1.
         11    1    4    4    0    0 -0.27156672638E-01  0.39075264720E-01  0.66971591555E-01  0.82157266131E-01  0.51100000000E-03 0. -1.
</event>
<event>
 8    1  0.1143506E+005  0.1043930E+01  0.7957747E-01            NaN
         13   -1    0    0    0    0  0.00000000000E+00  0.00000000000E+00  0.74505805969E-08  0.10566000000E+00  0.10566000000E+00 0.  1.
     999900   -1    0    0    0    0 -0.00000000000E+00 -0.00000000000E+00 -0.74505805969E-08  0.93827000000E+00  0.93827000000E+00 0. -1.
     999902    2    1    2    0    0  0.10443502044E-02 -0.12613842695E-01 -0.20189892877E-01  0.10201007854E+01  0.10198224261E+01 0.  0.
     999903    2    3    3    0    0 -0.71598377909E-02 -0.72647885583E-01  0.10468929733E+00  0.12922132824E+00  0.20231760673E-01 0.  0.
         14    1    1    2    0    0 -0.10443502044E-02  0.12613842695E-01  0.20189892877E-01  0.23829214617E-01  0.00000000000E+00 0.  1.
     999901    1    3    3    0    0  0.82041879953E-02  0.60034042888E-01 -0.12487919021E+00  0.89087945714E+00  0.88000000000E+00 0. -1.
        -11    1    4    4    0    0 -0.92365591896E-02 -0.28436366110E-01  0.29719400959E-01  0.42159754003E-01  0.51100000000E-03 0. -1.
         11    1    4    4    0    0  0.20767213988E-02 -0.44211519473E-01  0.74969896374E-01  0.87061574240E-01  0.51100000000E-03 0.  1.
</event>
<event>
 8    1  0.1143506E+005  0.1043930E+01  0.7957747E-01            NaN
         13   -1    0    0    0    0  0.00000000000E+00  0.00000000000E+00  0.74505805969E-08  0.10566000000E+00  0.10566000000E+00 0.  1.
     999900   -1    0    0    0    0 -0.00000000000E+00 -0.00000000000E+00 -0.74505805969E-08  0.93827000000E+00  0.93827000000E+00 0.  1.
     999902    2    1    2    0    0 -0.14890217016E-01  0.17984806954E-01 -0.33024802515E-02  0.10203486892E+01  0.10200761586E+01 0.  0.
     999903    2    3    3    0    0 -0.73409152699E-01  0.10841040131E+00  0.17149766942E-01  0.13354569620E+00  0.19965461597E-01 0.  0.
         14    1    1    2    0    0  0.14890217016E-01 -0.17984806954E-01  0.33024802515E-02  0.23581310815E-01  0.00000000000E+00 0. -1.
     999901    1    3    3    0    0  0.58518935683E-01 -0.90425594352E-01 -0.20452247193E-01  0.88680299298E+00  0.88000000000E+00 0.  1.
        -11    1    4    4    0    0 -0.52921109433E-01  0.67954939383E-01  0.18820085159E-01  0.88164473211E-01  0.51100000000E-03 0.  1.
         11    1    4    4    0    0 -0.20488043266E-01  0.40455461922E-01 -0.16703182179E-02  0.45381222991E-01  0.51100000000E-03 0. -1.
</event>
<event>
 8    1  0.1143506E+005  0.1043930E+01  0.7957747E-01            NaN
         13   -1    0    0    0    0  0.00000000000E+00  0.00000000000E+00  0.74505805969E-08  0.10566000000E+00  0.10566000000E+00 0.  1.
     999900   -1    0    0    0    0 -0.00000000000E+00 -0.00000000000E+00 -0.74505805969E-08  0.93827000000E+00  0.93827000000E+00 0.  1.
     999902    2    1    2    0    0  0.20205283942E-02  0.23925162980E-01 -0.10634641628E-01  0.10176699246E+01  0.10173310591E+01 0.  0.
     999903    2    3    3    0    0  0.10666492540E+00 -0.65504741016E-01 -0.10854567925E-01  0.12696896134E+00  0.18303499445E-01 0.  0.
         14    1    1    2    0    0 -0.20205283942E-02 -0.23925162980E-01  0.10634641628E-01  0.26260075422E-01  0.00000000000E+00 0.  1.
     999901    1    3    3    0    0 -0.10464439700E+00  0.89429903996E-01  0.21992629640E-03  0.89070096324E+00  0.88000000000E+00 0.  1.
        -11    1    4    4    0    0  0.49608879722E-01 -0.34161223000E-01 -0.13822398389E-01  0.61800889333E-01  0.51100000000E-03 0. -1.
         11    1    4    4    0    0  0.57056045676E-01 -0.31343518016E-01  0.29678304643E-02  0.65168072003E-01  0.51100000000E-03 0.  1.
</event>
<event>
 8    1  0.1143506E+005  0.1043930E+01  0.7957747E-01            NaN
         13   -1    0    0    0    0  0.00000000000E+00  0.00000000000E+00  0.74505805969E-08  0.10566000000E+00  0.10566000000E+00 0. -1.
     999900   -1    0    0    0    0 -0.00000000000E+00 -0.00000000000E+00 -0.74505805969E-08  0.93827000000E+00  0.93827000000E+00 0.  1.
     999902    2    1    2    0    0 -0.22292057924E-01  0.60382028571E-02 -0.36034840066E-02  0.10205552094E+01  0.10202874862E+01 0.  0.
     999903    2    3    3    0    0 -0.45542611484E-01 -0.12068071950E+00 -0.12566443128E-01  0.13112921010E+00  0.19974702221E-01 0.  0.
         14    1    1    2    0    0  0.22292057924E-01 -0.60382028571E-02  0.36034840066E-02  0.23374790635E-01  0.00000000000E+00 0.  1.
     999901    1    3    3    0    0  0.23250553560E-01  0.12671892236E+00  0.89629591212E-02  0.88942599926E+00  0.88000000000E+00 0. -1.
        -11    1    4    4    0    0 -0.59622653831E-02 -0.42248336026E-01 -0.43003113723E-02  0.42886178477E-01  0.51100000000E-03 0. -1.
         11    1    4    4    0    0 -0.39580346101E-01 -0.78432383477E-01 -0.82661317555E-02  0.88243031626E-01  0.51100000000E-03 0.  1.
</event>
<event>
 8    1  0.1143506E+005  0.1043930E+01  0.7957747E-01            NaN
         13   -1    0    0    0    0  0.00000000000E+00  0.00000000000E+00  0.74505805969E-08  0.10566000000E+00  0.10566000000E+00 0. -1.
     999900   -1    0    0    0    0 -0.00000000000E+00 -0.00000000000E+00 -0.74505805969E-08  0.93827000000E+00  0.93827000000E+00 0.  1.
     999902    2    1    2    0    0 -0.27346711784E-02 -0.23665798207E-01  0.16519568855E-02  0.10200495186E+01  0.10197699461E+01 0.  0.
     999903    2    3    3    0    0 -0.83146407931E-01 -0.89746138464E-01 -0.47094193244E-01  0.13257622550E+00  0.19771140843E-01 0.  0.
         14    1    1    2    0    0  0.27346711784E-02  0.23665798207E-01 -0.16519568855E-02  0.23880481418E-01  0.00000000000E+00 0. -1.
     999901    1    3    3    0    0  0.80411736752E-01  0.66080340257E-01  0.48746150129E-01  0.88747329308E+00  0.88000000000E+00 0.  1.
        -11    1    4    4    0    0 -0.54094940909E-01 -0.71348264929E-01 -0.34222696191E-01  0.95855576759E-01  0.51100000000E-03 0.  1.
         11    1    4    4    0    0 -0.29051467022E-01 -0.18397873535E-01 -0.12871497053E-01  0.36720648743E-01  0.51100000000E-03 0. -1.
</event>
<event>
 8    1  0.1143506E+005  0.1043930E+01  0.7957747E-01            NaN
         13   -1    0    0    0    0  0.00000000000E+00  0.00000000000E+00  0.74505805969E-08  0.10566000000E+00  0.10566000000E+00 0. -1.
     999900   -1    0    0    0    0 -0.00000000000E+00 -0.00000000000E+00 -0.74505805969E-08  0.93827000000E+00  0.93827000000E+00 0.  1.
     999902    2    1    2    0    0  0.97306924479E-02 -0.12253624380E-01 -0.16955292983E-01  0.10208579466E+01  0.10205971916E+01 0.  0.
     999903    2    3    3    0    0  0.78231652918E-01  0.88550935269E-01  0.50146868915E-01  0.12992773559E+00  0.20125813247E-01 0.  0.
         14    1    1    2    0    0 -0.97306924479E-02  0.12253624380E-01  0.16955292983E-01  0.23072053357E-01  0.00000000000E+00 0. -1.
     999901    1    3    3    0    0 -0.68500960470E-01 -0.10080455965E+00 -0.67102161898E-01  0.89093021105E+00  0.88000000000E+00 0.  1.
        -11    1    4    4    0    0  0.41092147631E-01  0.42594577693E-01  0.14568668695E-01  0.60953833959E-01  0.51100000000E-03 0. -1.
         11    1    4    4    0    0  0.37139505287E-01  0.45956357576E-01  0.35578200220E-01  0.68973901633E-01  0.51100000000E-03 0.  1.
</event>
<event>
 8    1  0.1143506E+005  0.1043930E+01  0.7957747E-01            NaN
         13   -1    0    0    0    0  0.00000000000E+00  0.00000000000E+00  0.74505805969E-08  0.10566000000E+00  0.10566000000E+00 0.  1.
     999900   -1    0    0    0    0 -0.00000000000E+00 -0.00000000000E+00 -0.74505805969E-08  0.93827000000E+00  0.93827000000E+00 0.  1.
     999902    2    1    2    0    0  0.99234218804E-02  0.13790908426E-01  0.16735737320E-01  0.10200815543E+01  0.10198027403E+01 0.  0.
     999903    2    3    3    0    0  0.12180386800E+00  0.37303261419E-01  0.30831608869E-01  0.13257450729E+00  0.19942324470E-01 0.  0.
         14    1    1    2    0    0 -0.99234218804E-02 -0.13790908426E-01 -0.16735737320E-01  0.23848445666E-01  0.00000000000E+00 0. -1.
     999901    1    3    3    0    0 -0.11188044612E+00 -0.23512352992E-01 -0.14095871548E-01  0.88750704705E+00  0.88000000000E+00 0.  1.
        -11    1    4    4    0    0  0.26337833549E-01  0.72132904282E-02  0.15220984277E-01  0.31267435427E-01  0.51100000000E-03 0. -1.
         11    1    4    4    0    0  0.95466034447E-01  0.30089970990E-01  0.15610624592E-01  0.10130707186E+00  0.51100000000E-03 0.  1.
</event>
<event>
 8    1  0.1143506E+005  0.1043930E+01  0.7957747E-01            NaN
         13   -1    0    0    0    0  0.00000000000E+00  0.00000000000E+00  0.74505805969E-08  0.10566000000E+00  0.10566000000E+00 0.  1.
     999900   -1    0    0    0    0 -0.00000000000E+00 -0.00000000000E+00 -0.74505805969E-08  0.93827000000E+00  0.93827000000E+00 0. -1.
     999902    2    1    2    0    0  0.21084648551E-01  0.88353394104E-02  0.44269029329E-02  0.10206443156E+01  0.10203786532E+01 0.  0.
     999903    2    3    3    0    0  0.30506349620E-01  0.74972377871E-01 -0.10185216192E+00  0.13173593119E+00  0.20712263702E-01 0.  0.
         14    1    1    2    0    0 -0.21084648551E-01 -0.88353394104E-02 -0.44269029329E-02  0.23285684371E-01  0.00000000000E+00 0. -1.
     999901    1    3    3    0    0 -0.94217010683E-02 -0.66137038461E-01  0.10627906485E+00  0.88890838444E+00  0.88000000000E+00 0.  1.
        -11    1    4    4    0    0  0.26579208003E-01  0.54498098669E-01 -0.87357767739E-01  0.10633972805E+00  0.51100000000E-03 0. -1.
         11    1    4    4    0    0  0.39271416171E-02  0.20474279202E-01 -0.14494394178E-01  0.25396203135E-01  0.51100000000E-03 0.  1.
</event>
<event>
 8    1  0.1143506E+005  0.1043930E+01  0.7957747E-01            NaN
         13   -1    0    0    0    0  0.00000000000E+00  0.00000000000E+00  0.74505805969E-08  0.10566000000E+00  0.10566000000E+00 0. -1.
     999900   -1    0    0    0    0 -0.00000000000E+00 -0.00000000000E+00 -0.74505805969E-08  0.93827000000E+00  0.93827000000E+00 0. -1.
     999902    2    1    2    0    0  0.12731454658E-02 -0.20135785317E-01  0.89198695993E-02  0.10218701989E+01  0.10216320613E+01 0.  0.
     999903    2    3    3    0    0  0.27097512975E-01  0.67628012263E-01  0.10777792610E+00  0.13162175189E+00  0.20009521784E-01 0.  0.
         14    1    1    2    0    0 -0.12731454658E-02  0.20135785317E-01 -0.89198695993E-02  0.22059801073E-01  0.00000000000E+00 0.  1.
     999901    1    3    3    0    0 -0.25824367509E-01 -0.87763797581E-01 -0.98858056505E-01  0.89024844704E+00  0.88000000000E+00 0. -1.
        -11    1    4    4    0    0  0.87168278378E-02  0.24483676897E-01  0.22872034158E-01  0.34624046406E-01  0.51100000000E-03 0. -1.
         11    1    4    4    0    0  0.18380685137E-01  0.43144335366E-01  0.84905891946E-01  0.96997705480E-01  0.51100000000E-03 0.  1.
</event>
<event>
 8    1  0.1143506E+005  0.1043930E+01  0.7957747E-01            NaN
         13   -1    0    0    0    0  0.00000000000E+00  0.00000000000E+00  0.74505805969E-08  0.10566000000E+00  0.10566000000E+00 0.  1.
     999900   -1    0    0    0    0 -0.00000000000E+00 -0.00000000000E+00 -0.74505805969E-08  0.93827000000E+00  0.93827000000E+00 0. -1.
     999902    2    1    2    0    0  0.41538154141E-02 -0.23578546334E-01 -0.17393197688E-02  0.10199252658E+01  0.10196427416E+01 0.  0.
     999903    2    3    3    0    0  0.10437402644E+00  0.70104180055E-01  0.22768516300E-01  0.12895883663E+00  0.17419608297E-01 0.  0.
         14    1    1    2    0    0 -0.41538154141E-02  0.23578546334E-01  0.17393197688E-02  0.24004734178E-01  0.00000000000E+00 0. -1.
     999901    1    3    3    0    0 -0.10022021103E+00 -0.93682726389E-01 -0.24507836069E-01  0.89096642919E+00  0.88000000000E+00 0. -1.
        -11    1    4    4    0    0  0.43122240835E-01  0.31523968818E-01  0.18160450242E-01  0.56421195828E-01  0.51100000000E-03 0.  1.
         11    1    4    4    0    0  0.61251785606E-01  0.38580211238E-01  0.46080660580E-02  0.72537640800E-01  0.51100000000E-03 0. -1.
</event>
<event>
 8    1  0.1143506E+005  0.1043930E+01  0.7957747E-01            NaN
         13   -1    0    0    0    0  0.00000000000E+00  0.00000000000E+00  0.74505805969E-08  0.10566000000E+00  0.10566000000E+00 0.  1.
     999900   -1    0    0    0    0 -0.00000000000E+00 -0.00000000000E+00 -0.74505805969E-08  0.93827000000E+00  0.93827000000E+00 0.  1.
     999902    2    1    2    0    0 -0.14777066599E-01 -0.20081301199E-01 -0.38556918643E-02  0.10187013117E+01  0.10183888627E+01 0.  0.
     999903    2    3    3    0    0 -0.10019698592E+00  0.11991408837E-01  0.79592602004E-01  0.13005692886E+00  0.19914632248E-01 0.  0.
         14    1    1    2    0    0  0.14777066599E-01  0.20081301199E-01  0.38556918643E-02  0.25228688330E-01  0.00000000000E+00 0. -1.
     999901    1    3    3    0    0  0.85419919323E-01 -0.32072710035E-01 -0.83448293868E-01  0.88864438281E+00  0.88000000000E+00 0.  1.
        -11    1    4    4    0    0 -0.29147216432E-01  0.12468014575E-01  0.21951619699E-01  0.38563536425E-01  0.51100000000E-03 0.  1.
         11    1    4    4    0    0 -0.71049769490E-01 -0.47660573853E-03  0.57640982304E-01  0.91493392437E-01  0.51100000000E-03 0. -1.
</event>
<event>
 8    1  0.1143506E+005  0.1043930E+01  0.7957747E-01            NaN
         13   -1    0    0    0    0  0.00000000000E+00  0.00000000000E+00  0.74505805969E-08  0.10566000000E+00  0.10566000000E+00 0. -1.
     999900   -1    0    0    0    0 -0.00000000000E+00 -0.00000000000E+00 -0.74505805969E-08  0.93827000000E+00  0.93827000000E+00 0.  1.
     999902    2    1    2    0    0  0.15022019540E-01  0.16254219121E-01 -0.11451319674E-01  0.10190102602E+01  0.10187055104E+01 0.  0.
     999903    2    3    3    0    0 -0.69543016698E-01  0.87402610706E-01 -0.64584507190E-01  0.13050788281E+00  0.19639281483E-01 0.  0.
         14    1    1    2    0    0 -0.15022019540E-01 -0.16254219121E-01  0.11451319674E-01  0.24919739817E-01  0.00000000000E+00 0. -1.
     999901    1    3    3    0    0  0.84565036238E-01 -0.71148391585E-01  0.53133187517E-01  0.88850237737E+00  0.88000000000E+00 0.  1.
        -11    1    4    4    0    0 -0.60997854568E-01  0.64086527892E-01 -0.52581317696E-01  0.10292170525E+00  0.51100000000E-03 0. -1.
         11    1    4    4    0    0 -0.85451621301E-02  0.23316082814E-01 -0.12003189494E-01  0.27586177565E-01  0.51100000000E-03 0.  1.
</event>
<event>
 8    1  0.1143506E+005  0.1043930E+01  0.7957747E-01            NaN
         13   -1    0    0    0    0  0.00000000000E+00  0.00000000000E+00  0.74505805969E-08  0.10566000000E+00  0.10566000000E+00 0. -1.
     999900   -1    0    0    0    0 -0.00000000000E+00 -0.00000000000E+00 -0.74505805969E-08  0.93827000000E+00  0.93827000000E+00 0.  1.
     999902    2    1    2    0    0  0.23630301222E-01  0.68251530121E-02  0.67405095445E-02  0.10184268959E+01  0.10181075257E+01 0.  0.
     999903    2    3    3    0    0 -0.11332600088E+00 -0.49390438313E-01  0.13736056892E-01  0.12603339578E+00  0.20335676033E-01 0.  0.
         14    1    1    2    0    0 -0.23630301222E-01 -0.68251530121E-02 -0.67405095445E-02  0.25503104093E-01  0.00000000000E+00 0. -1.
     999901    1    3    3    0    0  0.13695630210E+00  0.56215591325E-01 -0.69955473473E-02  0.89239350013E+00  0.88000000000E+00 0. -1.
        -11    1    4    4    0    0 -0.95104253068E-02 -0.11059663093E-01  0.87507594355E-03  0.14621601012E-01  0.51100000000E-03 0.  1.
         11    1    4    4    0    0 -0.10381557557E+00 -0.38330775219E-01  0.12860980948E-01  0.11141179476E+00  0.51100000000E-03 0. -1.
</event>
<event>
 8    1  0.1143506E+005  0.1043930E+01  0.7957747E-01            NaN
         13   -1    0    0    0    0  0.00000000000E+00  0.00000000000E+00  0.74505805969E-08  0.10566000000E+00  0.10566000000E+00 0.  1.
     999900   -1    0    0    0    0 -0.00000000000E+00 -0.00000000000E+00 -0.74505805969E-08  0.93827000000E+00  0.93827000000E+00 0.  1.
     999902    2    1    2    0    0  0.21548894561E-01 -0.53549965135E-02 -0.10488593228E-01  0.10193730981E+01  0.10190772648E+01 0.  0.
     999903    2    3    3    0    0 -0.10186776483E+00 -0.63626817925E-01  0.37347475410E-01  0.12756842974E+00  0.21294526910E-01 0.  0.
         14    1    1    2    0    0 -0.21548894561E-01  0.53549965135E-02  0.10488593228E-01  0.24556901929E-01  0.00000000000E+00 0.  1.
     999901    1    3    3    0    0  0.12341665939E+00  0.58271821412E-01 -0.47836068638E-01  0.89180466833E+00  0.88000000000E+00 0.  1.
        -11    1    4    4    0    0 -0.58194488221E-01 -0.29325925279E-01  0.10961064266E-01  0.66083389771E-01  0.51100000000E-03 0. -1.
         11    1    4    4    0    0 -0.43673276612E-01 -0.34300892646E-01  0.26386411144E-01  0.61485039973E-01  0.51100000000E-03 0.  1.
</event>
<event>
 8    1  0.1143506E+005  0.1043930E+01  0.7957747E-01            NaN
         13   -1    0    0    0    0  0.00000000000E+00  0.00000000000E+00  0.74505805969E-08  0.10566000000E+00  0.10566000000E+00 0. -1.
     999900   -1    0    0    0    0 -0.00000000000E+00 -0.00000000000E+00 -0.74505805969E-08  0.93827000000E+00  0.93827000000E+00 0.  1.
     999902    2    1    2    0    0 -0.93930512793E-02 -0.18423372520E-01  0.78515829367E-02  0.10218099317E+01  0.10215704768E+01 0.  0.
     999903    2    3    3    0    0  0.45456784337E-01  0.86633826371E-02  0.12231055005E+00  0.13229149348E+00  0.19994878119E-01 0.  0.
         14    1    1    2    0    0  0.93930512793E-02  0.18423372520E-01 -0.78515829367E-02  0.22120068308E-01  0.00000000000E+00 0. -1.
     999901    1    3    3    0    0 -0.54849835616E-01 -0.27086755157E-01 -0.11445896712E+00  0.88951843822E+00  0.88000000000E+00 0.  1.
        -11    1    4    4    0    0  0.32252398124E-01 -0.33985876696E-02  0.82412193263E-01  0.88565220613E-01  0.51100000000E-03 0. -1.
         11    1    4    4    0    0  0.13204386213E-01  0.12061970307E-01  0.39898356790E-01  0.43726272863E-01  0.51100000000E-03 0.  1.
</event>
<event>
 8    1  0.1143506E+005  0.1043930E+01  0.7957747E-01            NaN
         13   -1    0    0    0    0  0.00000000000E+00  0.00000000000E+00  0.74505805969E-08  0.10566000000E+00  0.10566000000E+00 0.  1.
     999900   -1    0    0    0    0 -0.00000000000E+00 -0.00000000000E+00 -0.74505805969E-08  0.93827000000E+00  0.93827000000E+00 0. -1.
     999902    2    1    2    0    0  0.16658996815E-01  0.13602227237E-01  0.90817027235E-02  0.10205843348E+01  0.10203172861E+01 0.  0.
     999903    2    3    3    0    0  0.33904411952E-01 -0.73025354300E-03  0.12653282110E+00  0.13249785837E+00  0.19876751185E-01 0.  0.
         14    1    1    2    0    0 -0.16658996815E-01 -0.13602227237E-01 -0.90817027235E-02  0.23345665231E-01  0.00000000000E+00 0.  1.
     999901    1    3    3    0    0 -0.17245415137E-01  0.14332480780E-01 -0.11745111838E+00  0.88808647640E+00  0.88000000000E+00 0. -1.
        -11    1    4    4    0    0  0.23826135841E-01 -0.13817914788E-03  0.51022758362E-01  0.56314179692E-01  0.51100000000E-03 0.  1.
         11    1    4    4    0    0  0.10078276111E-01 -0.59207439512E-03  0.75510062740E-01  0.76183678681E-01  0.51100000000E-03 0. -1.
</event>
<event>
 8    1  0.1143506E+005  0.1043930E+01  0.7957747E-01            NaN
         13   -1    0    0    0    0  0.00000000000E+00  0.00000000000E+00  0.74505805969E-08  0.10566000000E+00  0.10566000000E+00 0.  1.
     999900   -1    0    0    0    0 -0.00000000000E+00 -0.00000000000E+00 -0.74505805969E-08  0.93827000000E+00  0.93827000000E+00 0.  1.
     999902    2    1    2    0    0  0.11205678332E-01  0.17328769706E-01  0.81747968149E-02  0.10217335861E+01  0.10214924572E+01 0.  0.
     999903    2    3    3    0    0 -0.11066343821E+00  0.17368409132E-01  0.66423829706E-01  0.13142744047E+00  0.17691488442E-01 0.  0.
         14    1    1    2    0    0 -0.11205678332E-01 -0.17328769706E-01 -0.81747968149E-02  0.22196413885E-01  0.00000000000E+00 0.  1.
     999901    1    3    3    0    0  0.12186911654E+00 -0.39639425672E-04 -0.58249032891E-01  0.89030614564E+00  0.88000000000E+00 0.  1.
        -11    1    4    4    0    0 -0.54376537066E-01  0.12403095079E-01  0.42225438204E-01  0.69956367139E-01  0.51100000000E-03 0. -1.
         11    1    4    4    0    0 -0.56286901146E-01  0.49653140529E-02  0.24198391502E-01  0.61471073332E-01  0.51100000000E-03 0.  1.
</event>
<event>
 8    1  0.1143506E+005  0.1043930E+01  0.7957747E-01            NaN
         13   -1    0    0    0    0  0.00000000000E+00  0.00000000000E+00  0.74505805969E-08  0.10566000000E+00  0.10566000000E+00 0.  1.
     999900   -1    0    0    0    0 -0.00000000000E+00 -0.00000000000E+00 -0.74505805969E-08  0.93827000000E+00  0.93827000000E+00 0. -1.
     999902    2    1    2    0    0  0.16122659320E-01  0.29844506934E-02  0.18368414905E-01  0.10193079417E+01  0.10190105172E+01 0.  0.
     999903    2    3    3    0    0 -0.29393535496E-01 -0.63250220409E-01  0.11043596959E+00  0.13086256336E+00  0.80210223512E-02 0.  0.
         14    1    1    2    0    0 -0.16122659320E-01 -0.29844506934E-02 -0.18368414905E-01  0.24622058314E-01  0.00000000000E+00 0. -1.
     999901    1    3    3    0    0  0.45516194815E-01  0.66234671103E-01 -0.92067554681E-01  0.88844537833E+00  0.88000000000E+00 0. -1.
        -11    1    4    4    0    0 -0.19083507707E-01 -0.35575947891E-01  0.57785929014E-01  0.70493283707E-01  0.51100000000E-03 0. -1.
         11    1    4    4    0    0 -0.10310027789E-01 -0.27674272518E-01  0.52650040572E-01  0.60369279652E-01  0.51100000000E-03 0.  1.
</event>
<event>
 8    1  0.1143506E+005  0.1043930E+01  0.7957747E-01            NaN
         13   -1    0    0    0    0  0.00000000000E+00  0.00000000000E+00  0.74505805969E-08  0.10566000000E+00  0.10566000000E+00 0. -1.
     999900   -1    0    0    0    0 -0.00000000000E+00 -0.00000000000E+00 -0.74505805969E-08  0.93827000000E+00  0.93827000000E+00 0.  1.
     999902    2    1    2    0    0  0.54857867535E-02  0.19303432231E-01  0.13895743208E-01  0.10195208208E+01  0.10192285788E+01 0.  0.
     999903    2    3    3    0    0 -0.38085833713E-02  0.77453031008E-01  0.10572703652E+00  0.13278481292E+00  0.20979107983E-01 0.  0.
         14    1    1    2    0    0 -0.54857867535E-02 -0.19303432231E-01 -0.13895743208E-01  0.24409179247E-01  0.00000000000E+00 0.  1.
     999901    1    3    3    0    0  0.92943701248E-02 -0.58149598777E-01 -0.91831293311E-01  0.88673600783E+00  0.88000000000E+00 0.  1.
        -11    1    4    4    0    0 -0.20943070746E-02 -0.31764179671E-03  0.12001719594E-02  0.24876800771E-02  0.51100000000E-03 0.  1.
         11    1    4    4    0    0 -0.17142762967E-02  0.77770672805E-01  0.10452686456E+00  0.13029713284E+00  0.51100000000E-03 0. -1.
</event>
<event>
 8    1  0.1143506E+005  0.1043930E+01  0.7957747E-01            NaN
         13   -1    0    0    0    0  0.00000000000E+00  0.00000000000E+00  0.74505805969E-08  0.10566000000E+00  0.10566000000E+00 0. -1.
     999900   -1    0    0    0    0 -0.00000000000E+00 -0.00000000000E+00 -0.74505805969E-08  0.93827000000E+00  0.93827000000E+00 0.  1.
     999902    2    1    2    0    0  0.18289231482E-01 -0.88510972792E-02 -0.10933680916E-01  0.10208565675E+01  0.10205957809E+01 0.  0.
     999903    2    3    3    0    0  0.61723920594E-01  0.14187052178E-01  0.11297951859E+00  0.13081622591E+00  0.18368410898E-01 0.  0.
         14    1    1    2    0    0 -0.18289231482E-01  0.88510972792E-02  0.10933680916E-01  0.23073432550E-01  0.00000000000E+00 0. -1.
     999901    1    3    3    0    0 -0.43434689112E-01 -0.23038149457E-01 -0.12391319951E+00  0.89004034154E+00  0.88000000000E+00 0.  1.
        -11    1    4    4    0    0  0.21436027572E-01  0.17246328676E-02  0.23281826672E-01  0.31698299809E-01  0.51100000000E-03 0. -1.
         11    1    4    4    0    0  0.40287893022E-01  0.12462419310E-01  0.89697691918E-01  0.99117926106E-01  0.51100000000E-03 0.  1.
</event>
<event>
 8    1  0.1143506E+005  0.1043930E+01  0.7957747E-01            NaN
         13   -1    0    0    0    0  0.00000000000E+00  0.00000000000E+00  0.74505805969E-08  0.10566000000E+00  0.10566000000E+00 0.  1.
     999900   -1    0    0    0    0 -0.00000000000E+00 -0.00000000000E+00 -0.74505805969E-08  0.93827000000E+00  0.93827000000E+00 0. -1.
     999902    2    1    2    0    0 -0.22389712156E-01  0.67363005465E-02 -0.58222518542E-02  0.10198348641E+01  0.10195501825E+01 0.  0.
     999903    2    3    3    0    0  0.54320478552E-01  0.50218992281E-01 -0.10543015139E+00  0.12983658802E+00  0.16412226876E-01 0.  0.
         14    1    1    2    0    0  0.22389712156E-01 -0.67363005465E-02  0.58222518542E-02  0.24095135861E-01  0.00000000000E+00 0.  1.
     999901    1    3    3    0    0 -0.76710190709E-01 -0.43482691735E-01  0.99607899538E-01  0.88999827612E+00  0.88000000000E+00 0.  1.
        -11    1    4    4    0    0  0.24048373249E-01  0.13099447908E-01 -0.31473867389E-01  0.41722718521E-01  0.51100000000E-03 0.  1.
         11    1    4    4    0    0  0.30272105304E-01  0.37119544373E-01 -0.73956284004E-01  0.88113869502E-01  0.51100000000E-03 0. -1.
</event>
<event>
 8    1  0.1143506E+005  0.1043930E+01  0.7957747E-01            NaN
         13   -1    0    0    0    0  0.00000000000E+00  0.00000000000E+00  0.74505805969E-08  0.10566000000E+00  0.10566000000E+00 0. -1.
     999900   -1    0    0    0    0 -0.00000000000E+00 -0.00000000000E+00 -0.74505805969E-08  0.93827000000E+00  0.93827000000E+00 0. -1.
     999902    2    1    2    0    0 -0.14607679302E-01  0.18070421363E-01  0.14725421452E-02  0.10206471135E+01  0.10203815157E+01 0.  0.
     999903    2    3    3    0    0  0.64262015426E-01 -0.10730598198E+00 -0.18284264561E-01  0.12804977839E+00  0.20451186255E-01 0.  0.
         14    1    1    2    0    0  0.14607679302E-01 -0.18070421363E-01 -0.14725421452E-02  0.23282886488E-01  0.00000000000E+00 0.  1.
     999901    1    3    3    0    0 -0.78869694728E-01  0.12537640334E+00  0.19756806706E-01  0.89259733513E+00  0.88000000000E+00 0.  1.
        -11    1    4    4    0    0  0.26490445252E-01 -0.37892012594E-01 -0.16210024245E-01  0.48995656084E-01  0.51100000000E-03 0. -1.
         11    1    4    4    0    0  0.37771570174E-01 -0.69413969385E-01 -0.20742403164E-02  0.79054122303E-01  0.51100000000E-03 0.  1.
</event>
<event>
 8    1  0.1143506E+005  0.1043930E+01  0.7957747E-01            NaN
         13   -1    0    0    0    0  0.00000000000E+00  0.00000000000E+00  0.74505805969E-08  0.10566000000E+00  0.10566000000E+00 0.  1.
     999900   -1    0    0    0    0 -0.00000000000E+00 -0.00000000000E+00 -0.74505805969E-08  0.93827000000E+00  0.93827000000E+00 0.  1.
     999902    2    1    2    0    0 -0.21368890070E-01 -0.79489304545E-02  0.67979430421E-02  0.10201386783E+01  0.10198612141E+01 0.  0.
     999903    2    3    3    0    0  0.65760562771E-01 -0.15669874997E-01 -0.10732939496E+00  0.12846822135E+00  0.20358985140E-01 0.  0.
         14    1    1    2    0    0  0.21368890070E-01  0.79489304545E-02 -0.67979430421E-02  0.23791321691E-01  0.00000000000E+00 0. -1.
     999901    1    3    3    0    0 -0.87129452841E-01  0.77209445424E-02  0.11412733800E+00  0.89167045696E+00  0.88000000000E+00 0. -1.
        -11    1    4    4    0    0  0.17972225996E-01 -0.13544641548E-01 -0.39544393069E-01  0.45502509448E-01  0.51100000000E-03 0.  1.
         11    1    4    4    0    0  0.47788336774E-01 -0.21252334487E-02 -0.67785001890E-01  0.82965711900E-01  0.51100000000E-03 0. -1.
</event>
<event>
 8    1  0.1143506E+005  0.1043930E+01  0.7957747E-01            NaN
         13   -1    0    0    0    0  0.00000000000E+00  0.00000000000E+00  0.74505805969E-08  0.10566000000E+00  0.10566000000E+00 0.  1.
     999900   -1    0    0    0    0 -0.00000000000E+00 -0.00000000000E+00 -0.74505805969E-08  0.93827000000E+00  0.93827000000E+00 0. -1.
     999902    2    1    2    0    0 -0.14218909465E-01 -0.14747683160E-01 -0.11691676157E-01  0.10203425704E+01  0.10200698967E+01 0.  0.
     999903    2    3    3    0    0  0.12686265897E+00 -0.19727181620E-02 -0.17528697695E-01  0.12899455781E+00  0.15307346099E-01 0.  0.
         14    1    1    2    0    0  0.14218909465E-01  0.14747683160E-01  0.11691676157E-01  0.23587429625E-01  0.00000000000E+00 0.  1.
     999901    1    3    3    0    0 -0.14108156843E+00 -0.12774964998E-01  0.58370215384E-02  0.89134801256E+00  0.88000000000E+00 0.  1.
        -11    1    4    4    0    0  0.37295917514E-01  0.35676666659E-02 -0.10840412325E-01  0.39006273457E-01  0.51100000000E-03 0.  1.
         11    1    4    4    0    0  0.89566741454E-01 -0.55403848279E-02 -0.66882853703E-02  0.89988284354E-01  0.51100000000E-03 0. -1.
</event>
<event>
 8    1  0.1143506E+005  0.1043930E+01  0.7957747E-01            NaN
         13   -1    0    0    0    0  0.00000000000E+00  0.00000000000E+00  0.74505805969E-08  0.10566000000E+00  0.10566000000E+00 0. -1.
     999900   -1    0    0    0    0 -0.00000000000E+00 -0.00000000000E+00 -0.74505805969E-08  0.93827000000E+00  0.93827000000E+00 0. -1.
     999902    2    1    2    0    0  0.11941723316E-01 -0.11444049452E-01 -0.95067959416E-02  0.10248525213E+01  0.10246749437E+01 0.  0.
     999903    2    3    3    0    0  0.81421528002E-01  0.58791885406E-01 -0.89730747284E-01  0.13569763483E+00  0.16621975770E-01 0.  0.
         14    1    1    2    0    0 -0.11941723316E-01  0.11444049452E-01  0.95067959416E-02  0.19077478677E-01  0.00000000000E+00 0.  1.
     999901    1    3    3    0    0 -0.69479804687E-01 -0.70235934858E-01  0.80223951343E-01  0.88915488649E+00  0.88000000000E+00 0.  1.
        -11    1    4    4    0    0  0.33400036886E-01  0.34092330362E-01 -0.39740517856E-01  0.62108126151E-01  0.51100000000E-03 0.  1.
         11    1    4    4    0    0  0.48021491116E-01  0.24699555045E-01 -0.49990229428E-01  0.73589508679E-01  0.51100000000E-03 0. -1.
</event>
<event>
 8    1  0.1143506E+005  0.1043930E+01  0.7957747E-01            NaN
         13   -1    0    0    0    0  0.00000000000E+00  0.00000000000E+00  0.74505805969E-08  0.10566000000E+00  0.10566000000E+00 0. -1.
     999900   -1    0    0    0    0 -0.00000000000E+00 -0.00000000000E+00 -0.74505805969E-08  0.93827000000E+00  0.93827000000E+00 0. -1.
     999902    2    1    2    0    0 -0.11113809483E-01  0.19925731366E-01  0.34042820940E-02  0.10208618256E+01  0.10206011593E+01 0.  0.
     999903    2    3    3    0    0  0.96561582951E-01  0.82175065415E-01 -0.28941687265E-01  0.13152767502E+00  0.19622113974E-01 0.  0.
         14    1    1    2    0    0  0.11113809483E-01 -0.19925731366E-01 -0.34042820940E-02  0.23068174359E-01  0.00000000000E+00 0. -1.
     999901    1    3    3    0    0 -0.10767539243E+00 -0.62249334048E-01  0.32345969359E-01  0.88933415062E+00  0.88000000000E+00 0.  1.
        -11    1    4    4    0    0  0.58575003559E-01  0.55481002686E-01 -0.96783420322E-02  0.81259486378E-01  0.51100000000E-03 0. -1.
         11    1    4    4    0    0  0.37986579392E-01  0.26694062729E-01 -0.19263345233E-01  0.50268188642E-01  0.51100000000E-03 0.  1.
</event>
<event>
 8    1  0.1143506E+005  0.1043930E+01  0.7957747E-01            NaN
         13   -1    0    0    0    0  0.00000000000E+00  0.00000000000E+00  0.74505805969E-08  0.10566000000E+00  0.10566000000E+00 0. -1.
     999900   -1    0    0    0    0 -0.00000000000E+00 -0.00000000000E+00 -0.74505805969E-08  0.93827000000E+00  0.93827000000E+00 0. -1.
     999902    2    1    2    0    0 -0.54717869784E-02  0.22784727646E-01  0.64474558201E-02  0.10196266267E+01  0.10193369433E+01 0.  0.
     999903    2    3    3    0    0 -0.24438184436E-01 -0.12144025813E+00 -0.21686609798E-01  0.12724100580E+00  0.19365003485E-01 0.  0.
         14    1    1    2    0    0  0.54717869784E-02 -0.22784727646E-01 -0.64474558201E-02  0.24303373288E-01  0.00000000000E+00 0. -1.
     999901    1    3    3    0    0  0.18966397457E-01  0.14422498578E+00  0.28134065618E-01  0.89238562091E+00  0.88000000000E+00 0.  1.
        -11    1    4    4    0    0  0.29796001386E-03 -0.45626311369E-01 -0.80027224565E-02  0.46326598807E-01  0.51100000000E-03 0.  1.
         11    1    4    4    0    0 -0.24736144450E-01 -0.75813946763E-01 -0.13683887341E-01  0.80914406998E-01  0.51100000000E-03 0. -1.
</event>
<event>
 8    1  0.1143506E+005  0.1043930E+01  0.7957747E-01            NaN
         13   -1    0    0    0    0  0.00000000000E+00  0.00000000000E+00  0.74505805969E-08  0.10566000000E+00  0.10566000000E+00 0.  1.
     999900   -1    0    0    0    0 -0.00000000000E+00 -0.00000000000E+00 -0.74505805969E-08  0.93827000000E+00  0.93827000000E+00 0. -1.
     999902    2    1    2    0    0 -0.23239814086E-01 -0.44862349805E-02 -0.66416100000E-02  0.10193469521E+01  0.10190504808E+01 0.  0.
     999903    2    3    3    0    0 -0.96977468516E-01  0.59086010141E-01 -0.64445455507E-01  0.13209278521E+00  0.19987525451E-01 0.  0.
         14    1    1    2    0    0  0.23239814086E-01  0.44862349805E-02  0.66416100000E-02  0.24583047948E-01  0.00000000000E+00 0. -1.
     999901    1    3    3    0    0  0.73737654430E-01 -0.63572245121E-01  0.57803845507E-01  0.88725416685E+00  0.88000000000E+00 0.  1.
        -11    1    4    4    0    0 -0.85090514876E-01  0.53677781666E-01 -0.49142775656E-01  0.11196862724E+00  0.51100000000E-03 0. -1.
         11    1    4    4    0    0 -0.11886953640E-01  0.54082284744E-02 -0.15302679851E-01  0.20124157963E-01  0.51100000000E-03 0.  1.
</event>
<event>
 8    1  0.1143506E+005  0.1043930E+01  0.7957747E-01            NaN
         13   -1    0    0    0    0  0.00000000000E+00  0.00000000000E+00  0.74505805969E-08  0.10566000000E+00  0.10566000000E+00 0.  1.
     999900   -1    0    0    0    0 -0.00000000000E+00 -0.00000000000E+00 -0.74505805969E-08  0.93827000000E+00  0.93827000000E+00 0. -1.
     999902    2    1    2    0    0  0.13475145903E-01  0.18218581071E-01  0.69209042625E-02  0.10202362209E+01  0.10199610538E+01 0.  0.
     999903    2    3    3    0    0  0.98573532433E-01 -0.37037858349E-01  0.76801064401E-01  0.13165406583E+00  0.18596916648E-01 0.  0.
         14    1    1    2    0    0 -0.13475145903E-01 -0.18218581071E-01 -0.69209042625E-02  0.23693779124E-01  0.00000000000E+00 0. -1.
     999901    1    3    3    0    0 -0.85098386530E-01  0.55256439420E-01 -0.69880160139E-01  0.88858215505E+00  0.88000000000E+00 0.  1.
        -11    1    4    4    0    0  0.58778191003E-01 -0.26049260960E-01  0.56741069224E-01  0.85751092074E-01  0.51100000000E-03 0.  1.
         11    1    4    4    0    0  0.39795341430E-01 -0.10988597389E-01  0.20059995178E-01  0.45902973756E-01  0.51100000000E-03 0. -1.
</event>
<event>
 8    1  0.1143506E+005  0.1043930E+01  0.7957747E-01            NaN
         13   -1    0    0    0    0  0.00000000000E+00  0.00000000000E+00  0.74505805969E-08  0.10566000000E+00  0.10566000000E+00 0. -1.
     999900   -1    0    0    0    0 -0.00000000000E+00 -0.00000000000E+00 -0.74505805969E-08  0.93827000000E+00  0.93827000000E+00 0.  1.
     999902    2    1    2    0    0  0.10331121617E-01  0.24513448852E-01 -0.12704762811E-01  0.10144503079E+01  0.10140218809E+01 0.  0.
     999903    2    3    3    0    0  0.27753389458E-01  0.10225564032E+00  0.67294581569E-01  0.12723709854E+00  0.20838712349E-01 0.  0.
         14    1    1    2    0    0 -0.10331121617E-01 -0.24513448852E-01  0.12704762811E-01  0.29479692105E-01  0.00000000000E+00 0. -1.
     999901    1    3    3    0    0 -0.17422267841E-01 -0.77742191471E-01 -0.79999344380E-01  0.88721320935E+00  0.88000000000E+00 0.  1.
        -11    1    4    4    0    0  0.30287313024E-01  0.95222260145E-01  0.58929945103E-01  0.11600689509E+00  0.51100000000E-03 0.  1.
         11    1    4    4    0    0 -0.25339235661E-02  0.70333801775E-02  0.83646364663E-02  0.11230203452E-01  0.51100000000E-03 0. -1.
</event>
<event>
 8    1  0.1143506E+005  0.1043930E+01  0.7957747E-01            NaN
         13   -1    0    0    0    0  0.00000000000E+00  0.00000000000E+00  0.74505805969E-08  0.10566000000E+00  0.10566000000E+00 0.  1.
     999900   -1    0    0    0    0 -0.00000000000E+00 -0.00000000000E+00 -0.74505805969E-08  0.93827000000E+00  0.93827000000E+00 0.  1.
     999902    2    1    2    0    0 -0.25621344033E-02 -0.91068497197E-02  0.22249479114E-01  0.10197527676E+01  0.10194661194E+01 0.  0.
     999903    2    3    3    0    0  0.51113084214E-01 -0.92382150851E-01  0.77385263856E-01  0.13247842469E+00  0.20372647647E-01 0.  0.
         14    1    1    2    0    0  0.25621344033E-02  0.91068497197E-02 -0.22249479114E-01  0.24177232376E-01  0.00000000000E+00 0. -1.
     999901    1    3    3    0    0 -0.53675218617E-01  0.83275301131E-01 -0.55135784742E-01  0.88727434294E+00  0.88000000000E+00 0. -1.
        -11    1    4    4    0    0  0.34313796669E-01 -0.63005282248E-01  0.40372226548E-01  0.82324237199E-01  0.51100000000E-03 0.  1.
         11    1    4    4    0    0  0.16799287545E-01 -0.29376868603E-01  0.37013037308E-01  0.50154187490E-01  0.51100000000E-03 0. -1.
</event>
<event>
 8    1  0.1143506E+005  0.1043930E+01  0.7957747E-01            NaN
         13   -1    0    0    0    0  0.00000000000E+00  0.00000000000E+00  0.74505805969E-08  0.10566000000E+00  0.10566000000E+00 0. -1.
     999900   -1    0    0    0    0 -0.00000000000E+00 -0.00000000000E+00 -0.74505805969E-08  0.93827000000E+00  0.93827000000E+00 0.  1.
     999902    2    1    2    0    0 -0.22013561733E-01  0.65748410656E-02  0.11179084316E-01  0.10183801006E+01  0.10180595424E+01 0.  0.
     999903    2    3    3    0    0  0.10529479032E+00 -0.20688877458E-01  0.64979512682E-01  0.12717573963E+00  0.20888014842E-01 0.  0.
         14    1    1    2    0    0  0.22013561733E-01 -0.65748410656E-02 -0.11179084316E-01  0.25549899439E-01  0.00000000000E+00 0.  1.
     999901    1    3    3    0    0 -0.12730835205E+00  0.27263718523E-01 -0.53800428367E-01  0.89120436093E+00  0.88000000000E+00 0.  1.
        -11    1    4    4    0    0  0.34005569743E-01 -0.84515684428E-02  0.32828733191E-01  0.48018690388E-01  0.51100000000E-03 0. -1.
         11    1    4    4    0    0  0.71289220573E-01 -0.12237309015E-01  0.32150779491E-01  0.79157049242E-01  0.51100000000E-03 0.  1.
</event>
<event>
 8    1  0.1143506E+005  0.1043930E+01  0.7957747E-01            NaN
         13   -1    0    0    0    0  0.00000000000E+00  0.00000000000E+00  0.74505805969E-08  0.10566000000E+00  0.10566000000E+00 0.  1.
     999900   -1    0    0    0    0 -0.00000000000E+00 -0.00000000000E+00 -0.74505805969E-08  0.93827000000E+00  0.93827000000E+00 0.  1.
     999902    2    1    2    0    0 -0.59286371111E-02 -0.17114094811E-01 -0.15539348865E-01  0.10200655423E+01  0.10197863493E+01 0.  0.
     999903    2    3    3    0    0 -0.45737743157E-01  0.49828906595E-01  0.10692696720E+00  0.12817758467E+00  0.20524517389E-01 0.  0.
         14    1    1    2    0    0  0.59286371111E-02  0.17114094811E-01  0.15539348865E-01  0.23864457721E-01  0.00000000000E+00 0.  1.
     999901    1    3    3    0    0  0.39809106045E-01 -0.66943001406E-01 -0.12246631607E+00  0.89188795761E+00  0.88000000000E+00 0.  1.
        -11    1    4    4    0    0 -0.21672897619E-01  0.99421306593E-02  0.41388203648E-01  0.47768242332E-01  0.51100000000E-03 0. -1.
         11    1    4    4    0    0 -0.24064845537E-01  0.39886775935E-01  0.65538763556E-01  0.80409342335E-01  0.51100000000E-03 0.  1.
</event>
<event>
 8    1  0.1143506E+005  0.1043930E+01  0.7957747E-01            NaN
         13   -1    0    0    0    0  0.00000000000E+00  0.00000000000E+00  0.74505805969E-08  0.10566000000E+00  0.10566000000E+00 0.  1.
     999900   -1    0    0    0    0 -0.00000000000E+00 -0.00000000000E+00 -0.74505805969E-08  0.93827000000E+00  0.93827000000E+00 0. -1.
     999902    2    1    2    0    0 -0.17730597126E-01  0.20869847071E-02  0.15201942692E-01  0.10204815749E+01  0.10202121426E+01 0.  0.
     999903    2    3    3    0    0  0.15658993593E-01 -0.52443546493E-01 -0.11482483957E+00  0.12863214379E+00  0.19129949955E-01 0.  0.
         14    1    1    2    0    0  0.17730597126E-01 -0.20869847071E-02 -0.15201942692E-01  0.23448425133E-01  0.00000000000E+00 0. -1.
     999901    1    3    3    0    0 -0.33389590719E-01  0.54530531200E-01  0.13002678226E+00  0.89184943107E+00  0.88000000000E+00 0. -1.
        -11    1    4    4    0    0 -0.10598664842E-02 -0.14611831580E-01 -0.46557669169E-01  0.48810927246E-01  0.51100000000E-03 0. -1.
         11    1    4    4    0    0  0.16718860077E-01 -0.37831714912E-01 -0.68267170401E-01  0.79821216547E-01  0.51100000000E-03 0.  1.
</event>
<event>
 8    1  0.1143506E+005  0.1043930E+01  0.7957747E-01            NaN
         13   -1    0    0    0    0  0.00000000000E+00  0.00000000000E+00  0.74505805969E-08  0.10566000000E+00  0.10566000000E+00 0.  1.
     999900   -1    0    0    0    0 -0.00000000000E+00 -0.00000000000E+00 -0.74505805969E-08  0.93827000000E+00  0.93827000000E+00 0.  1.
     999902    2    1    2    0    0 -0.14709096966E-01 -0.15580984302E-01  0.12565515690E-01  0.10190901773E+01  0.10187874031E+01 0.  0.
     999903    2    3    3    0    0 -0.10200767820E+00  0.58705762041E-01 -0.50134068039E-01  0.12944373028E+00  0.19756558963E-01 0.  0.
         14    1    1    2    0    0  0.14709096966E-01  0.15580984302E-01 -0.12565515690E-01  0.24839822663E-01  0.00000000000E+00 0. -1.
     999901    1    3    3    0    0  0.87298581230E-01 -0.74286746343E-01  0.62699583729E-01  0.88964644706E+00  0.88000000000E+00 0. -1.
        -11    1    4    4    0    0 -0.31170191144E-01  0.28766465745E-01 -0.16812719100E-01  0.45629146518E-01  0.51100000000E-03 0. -1.
         11    1    4    4    0    0 -0.70837487052E-01  0.29939296296E-01 -0.33321348939E-01  0.83814583759E-01  0.51100000000E-03 0.  1.
</event>
<event>
 8    1  0.1143506E+005  0.1043930E+01  0.7957747E-01            NaN
         13   -1    0    0    0    0  0.00000000000E+00  0.00000000000E+00  0.74505805969E-08  0.10566000000E+00  0.10566000000E+00 0. -1.
     999900   -1    0    0    0    0 -0.00000000000E+00 -0.00000000000E+00 -0.74505805969E-08  0.93827000000E+00  0.93827000000E+00 0.  1.
     999902    2    1    2    0    0  0.21033873631E-02  0.31175453558E-03  0.23797559606E-01  0.10200376315E+01  0.10197577773E+01 0.  0.
     999903    2    3    3    0    0 -0.50438084052E-02  0.10332565333E+00 -0.73802812216E-01  0.12864053798E+00  0.19997556901E-01 0.  0.
         14    1    1    2    0    0 -0.21033873631E-02 -0.31175453558E-03 -0.23797559606E-01  0.23892368499E-01  0.00000000000E+00 0.  1.
     999901    1    3    3    0    0  0.71471957683E-02 -0.10301389880E+00  0.97600371822E-01  0.89139709352E+00  0.88000000000E+00 0. -1.
        -11    1    4    4    0    0  0.60860946001E-02  0.65301454987E-01 -0.42607200077E-01  0.78210965921E-01  0.51100000000E-03 0. -1.
         11    1    4    4    0    0 -0.11129903005E-01  0.38024198344E-01 -0.31195612139E-01  0.50429572062E-01  0.51100000000E-03 0.  1.
</event>
<event>
 8    1  0.1143506E+005  0.1043930E+01  0.7957747E-01            NaN
         13   -1    0    0    0    0  0.00000000000E+00  0.00000000000E+00  0.74505805969E-08  0.10566000000E+00  0.10566000000E+00 0. -1.
     999900   -1    0    0    0    0 -0.00000000000E+00 -0.00000000000E+00 -0.74505805969E-08  0.93827000000E+00  0.93827000000E+00 0.  1.
     999902    2    1    2    0    0  0.76142743278E-02 -0.48094570658E-02  0.22036500862E-01  0.10201242145E+01  0.10198464089E+01 0.  0.
     999903    2    3    3    0    0 -0.96065577246E-01 -0.82706643591E-01  0.24398318702E-01  0.13061701307E+00  0.19913365432E-01 0.  0.
         14    1    1    2    0    0 -0.76142743278E-02  0.48094570658E-02 -0.22036500862E-01  0.23805785453E-01  0.00000000000E+00 0.  1.
     999901    1    3    3    0    0  0.10367985157E+00  0.77897186525E-01 -0.23618178402E-02  0.88950720147E+00  0.88000000000E+00 0.  1.
        -11    1    4    4    0    0 -0.88279446234E-01 -0.80519962416E-01  0.19278334331E-01  0.12103156725E+00  0.51100000000E-03 0.  1.
         11    1    4    4    0    0 -0.77861310116E-02 -0.21866811748E-02  0.51199843716E-02  0.95854458246E-02  0.51100000000E-03 0. -1.
</event>
<event>
 8    1  0.1143506E+005  0.1043930E+01  0.7957747E-01            NaN
         13   -1    0    0    0    0  0.00000000000E+00  0.00000000000E+00  0.74505805969E-08  0.10566000000E+00  0.10566000000E+00 0. -1.
     999900   -1    0    0    0    0 -0.00000000000E+00 -0.00000000000E+00 -0.74505805969E-08  0.93827000000E+00  0.93827000000E+00 0.  1.
     999902    2    1    2    0    0  0.68204494952E-02 -0.21983346443E-01  0.36845687046E-02  0.10206198713E+01  0.10203536444E+01 0.  0.
     999903    2    3    3    0    0 -0.84781121747E-01  0.87172933958E-01  0.36744453328E-01  0.12854425941E+00  0.19659927718E-01 0.  0.
         14    1    1    2    0    0 -0.68204494952E-02  0.21983346443E-01 -0.36845687046E-02  0.23310128672E-01  0.00000000000E+00 0.  1.
     999901    1    3    3    0    0  0.91601571242E-01 -0.10915628040E+00 -0.33059884623E-01  0.89207561192E+00  0.88000000000E+00 0.  1.
        -11    1    4    4    0    0 -0.75702970147E-01  0.68582834227E-01  0.26934043055E-01  0.10564207796E+00  0.51100000000E-03 0.  1.
         11    1    4    4    0    0 -0.90781516003E-02  0.18590099731E-01  0.98104102730E-02  0.22902181451E-01  0.51100000000E-03 0. -1.
</event>
<event>
 8    1  0.1143506E+005  0.1043930E+01  0.7957747E-01            NaN
         13   -1    0    0    0    0  0.00000000000E+00  0.00000000000E+00  0.74505805969E-08  0.10566000000E+00  0.10566000000E+00 0. -1.
     999900   -1    0    0    0    0 -0.00000000000E+00 -0.00000000000E+00 -0.74505805969E-08  0.93827000000E+00  0.93827000000E+00 0. -1.
     999902    2    1    2    0    0  0.25710945834E-02  0.16581695036E-01 -0.10679131482E-01  0.10240401285E+01  0.10238469504E+01 0.  0.
     999903    2    3    3    0    0 -0.34505023704E-01  0.11456529520E+00  0.59487152915E-01  0.13505265286E+00  0.19613621722E-01 0.  0.
         14    1    1    2    0    0 -0.25710945834E-02 -0.16581695036E-01  0.10679131482E-01  0.19889871463E-01  0.00000000000E+00 0. -1.
     999901    1    3    3    0    0  0.37076118288E-01 -0.97983600164E-01 -0.70166284397E-01  0.88898747568E+00  0.88000000000E+00 0. -1.
        -11    1    4    4    0    0  0.68708202570E-04  0.28353067871E-01  0.13931169299E-01  0.31594932783E-01  0.51100000000E-03 0.  1.
         11    1    4    4    0    0 -0.34573731907E-01  0.86212227328E-01  0.45555983616E-01  0.10345772007E+00  0.51100000000E-03 0. -1.
</event>
<event>
 8    1  0.1143506E+005  0.1043930E+01  0.7957747E-01            NaN
         13   -1    0    0    0    0  0.00000000000E+00  0.00000000000E+00  0.74505805969E-08  0.10566000000E+00  0.10566000000E+00 0. -1.
     999900   -1    0    0    0    0 -0.00000000000E+00 -0.00000000000E+00 -0.74505805969E-08  0.93827000000E+00  0.93827000000E+00 0. -1.
     999902    2    1    2    0    0 -0.27121322224E-01  0.36656836676E-02  0.94301730131E-02  0.10149829532E+01  0.10145700881E+01 0.  0.
     999903    2    3    3    0    0  0.10772807119E-01 -0.17665316007E-01  0.12331862400E+00  0.12657901587E+00  0.19663353469E-01 0.  0.
         14    1    1    2    0    0  0.27121322224E-01 -0.36656836676E-02 -0.94301730131E-02  0.28947046810E-01  0.00000000000E+00 0.  1.
     999901    1    3    3    0    0 -0.37894129343E-01  0.21330999675E-01 -0.11388845099E+00  0.88840393732E+00  0.88000000000E+00 0. -1.
        -11    1    4    4    0    0 -0.28634139162E-02 -0.20802902046E-02  0.56733767325E-01  0.56846356282E-01  0.51100000000E-03 0.  1.
         11    1    4    4    0    0  0.13636221035E-01 -0.15585025803E-01  0.66584856674E-01  0.69732659584E-01  0.51100000000E-03 0. -1.
</event>
<event>
 7    1  0.1143506E+005  0.1043930E+01  0.7957747E-01            NaN
         13   -1    0    0    0    0  0.00000000000E+00  0.00000000000E+00  0.74505805969E-08  0.10566000000E+00  0.10566000000E+00 0. -1.
     999900   -1    0    0    0    0 -0.00000000000E+00 -0.00000000000E+00 -0.74505805969E-08  0.93827000000E+00  0.93827000000E+00 0. -1.
     999903    2    1    2    0    0  0.18168257436E-01 -0.10012503042E+00  0.32271479570E-01  0.10859571368E+00  0.19911638300E-01 0.  0.
         14    1    1    2    0    0 -0.22234801608E-01  0.87224599354E-02  0.41118630325E-01  0.47552176287E-01  0.00000000000E+00 0. -1.
     999901    1    1    2    0    0  0.40665441720E-02  0.91402570486E-01 -0.73390109895E-01  0.88778211004E+00  0.88000000000E+00 0. -1.
        -11    1    3    3    0    0  0.20189271500E-01 -0.84234899972E-01  0.21388743630E-01  0.89223676970E-01  0.51100000000E-03 0.  1.
         11    1    3    3    0    0 -0.20210140646E-02 -0.15890130450E-01  0.10882735940E-01  0.19372036705E-01  0.51100000000E-03 0. -1.
</event>
<event>
 8    1  0.1143506E+005  0.1043930E+01  0.7957747E-01            NaN
         13   -1    0    0    0    0  0.00000000000E+00  0.00000000000E+00  0.74505805969E-08  0.10566000000E+00  0.10566000000E+00 0.  1.
     999900   -1    0    0    0    0 -0.00000000000E+00 -0.00000000000E+00 -0.74505805969E-08  0.93827000000E+00  0.93827000000E+00 0.  1.
     999902    2    1    2    0    0  0.49069923195E-02  0.21905381725E-01  0.50628987168E-02  0.10209178887E+01  0.10206585023E+01 0.  0.
     999903    2    3    3    0    0 -0.79287414120E-01  0.57745588598E-01  0.86520129880E-01  0.13243125460E+00  0.20766734927E-01 0.  0.
         14    1    1    2    0    0 -0.49069923195E-02 -0.21905381725E-01 -0.50628987168E-02  0.23012111280E-01  0.00000000000E+00 0.  1.
     999901    1    3    3    0    0  0.84194406440E-01 -0.35840206873E-01 -0.81457231163E-01  0.88848663412E+00  0.88000000000E+00 0.  1.
        -11    1    4    4    0    0 -0.25953683034E-01  0.93735949175E-02  0.17437003176E-01  0.32646104599E-01  0.51100000000E-03 0. -1.
         11    1    4    4    0    0 -0.53333731086E-01  0.48371993680E-01  0.69083126704E-01  0.99785149999E-01  0.51100000000E-03 0.  1.
</event>
<event>
 8    1  0.1143506E+005  0.1043930E+01  0.7957747E-01            NaN
         13   -1    0    0    0    0  0.00000000000E+00  0.00000000000E+00  0.74505805969E-08  0.10566000000E+00  0.10566000000E+00 0. -1.
     999900   -1    0    0    0    0 -0.00000000000E+00 -0.00000000000E+00 -0.74505805969E-08  0.93827000000E+00  0.93827000000E+00 0. -1.
     999902    2    1    2    0    0  0.68137748286E-03  0.11269944446E-01 -0.20775603636E-01  0.10202846700E+01  0.10200106403E+01 0.  0.
     999903    2    3    3    0    0  0.27090599911E-01 -0.44702540562E-01  0.11480826093E+00  0.12775268156E+00  0.20188935848E-01 0.  0.
         14    1    1    2    0    0 -0.68137748286E-03 -0.11269944446E-01  0.20775603636E-01  0.23645329973E-01  0.00000000000E+00 0. -1.
     999901    1    3    3    0    0 -0.26409222428E-01  0.55972485007E-01 -0.13558386457E+00  0.89253198847E+00  0.88000000000E+00 0. -1.
        -11    1    4    4    0    0  0.21601763941E-02 -0.21464761088E-01  0.37534956031E-01  0.43295916388E-01  0.51100000000E-03 0. -1.
         11    1    4    4    0    0  0.24930423517E-01 -0.23237779474E-01  0.77273304903E-01  0.84456765171E-01  0.51100000000E-03 0.  1.
</event>
<event>
 8    1  0.1143506E+005  0.1043930E+01  0.7957747E-01            NaN
         13   -1    0    0    0    0  0.00000000000E+00  0.00000000000E+00  0.74505805969E-08  0.10566000000E+00  0.10566000000E+00 0. -1.
     999900   -1    0    0    0    0 -0.00000000000E+00 -0.00000000000E+00 -0.74505805969E-08  0.93827000000E+00  0.93827000000E+00 0.  1.
     999902    2    1    2    0    0 -0.24274000440E-01  0.99306836582E-02  0.12202746370E-02  0.10176748168E+01  0.10173360792E+01 0.  0.
     999903    2    3    3    0    0  0.21013782647E-01  0.88432035611E-01 -0.88427930559E-01  0.12848965820E+00  0.20695153504E-01 0.  0.
         14    1    1    2    0    0  0.24274000440E-01 -0.99306836582E-02 -0.12202746370E-02  0.26255183211E-01  0.00000000000E+00 0. -1.
     999901    1    3    3    0    0 -0.45287783087E-01 -0.78501351953E-01  0.89648205196E-01  0.88918515859E+00  0.88000000000E+00 0. -1.
        -11    1    4    4    0    0  0.10051750752E-02  0.45905886049E-01 -0.38552351384E-01  0.59957532213E-01  0.51100000000E-03 0.  1.
         11    1    4    4    0    0  0.20008607572E-01  0.42526149562E-01 -0.49875579176E-01  0.68532125990E-01  0.51100000000E-03 0. -1.
</event>
<event>
 8    1  0.1143506E+005  0.1043930E+01  0.7957747E-01            NaN
         13   -1    0    0    0    0  0.00000000000E+00  0.00000000000E+00  0.74505805969E-08  0.10566000000E+00  0.10566000000E+00 0. -1.
     999900   -1    0    0    0    0 -0.00000000000E+00 -0.00000000000E+00 -0.74505805969E-08  0.93827000000E+00  0.93827000000E+00 0. -1.
     999902    2    1    2    0    0  0.18302006238E-01 -0.15614275045E-02  0.14954818672E-01  0.10202435463E+01  0.10199685513E+01 0.  0.
     999903    2    3    3    0    0  0.68060352301E-01 -0.67175861369E-01 -0.86588896040E-01  0.13058503150E+00  0.20248595692E-01 0.  0.
         14    1    1    2    0    0 -0.18302006238E-01  0.15614275045E-02 -0.14954818672E-01  0.23686453717E-01  0.00000000000E+00 0.  1.
     999901    1    3    3    0    0 -0.49758346064E-01  0.65614433864E-01  0.10154371471E+00  0.88965851479E+00  0.88000000000E+00 0. -1.
        -11    1    4    4    0    0  0.21147735872E-01 -0.94973996014E-02 -0.17029272428E-01  0.28769507680E-01  0.51100000000E-03 0. -1.
         11    1    4    4    0    0  0.46912616430E-01 -0.57678461767E-01 -0.69559623612E-01  0.10181552382E+00  0.51100000000E-03 0.  1.
</event>
<event>
 8    1  0.1143506E+005  0.1043930E+01  0.7957747E-01            NaN
         13   -1    0    0    0    0  0.00000000000E+00  0.00000000000E+00  0.74505805969E-08  0.10566000000E+00  0.10566000000E+00 0. -1.
     999900   -1    0    0    0    0 -0.00000000000E+00 -0.00000000000E+00 -0.74505805969E-08  0.93827000000E+00  0.93827000000E+00 0.  1.
     999902    2    1    2    0    0  0.88177469828E-02 -0.12809942437E-01 -0.18275948697E-01  0.10199329671E+01  0.10196506263E+01 0.  0.
     999903    2    3    3    0    0 -0.95838697080E-01 -0.32999075850E-01  0.76524542440E-01  0.12844673305E+00  0.19197988685E-01 0.  0.
         14    1    1    2    0    0 -0.88177469828E-02  0.12809942437E-01  0.18275948697E-01  0.23997032898E-01  0.00000000000E+00 0. -1.
     999901    1    3    3    0    0  0.10465644406E+00  0.20189133412E-01 -0.94800491138E-01  0.89148623406E+00  0.88000000000E+00 0.  1.
        -11    1    4    4    0    0 -0.35728506726E-01 -0.21959962476E-01  0.28318182380E-01  0.50605797288E-01  0.51100000000E-03 0. -1.
         11    1    4    4    0    0 -0.60110190354E-01 -0.11039113374E-01  0.48206360060E-01  0.77840935759E-01  0.51100000000E-03 0.  1.
</event>
<event>
 8    1  0.1143506E+005  0.1043930E+01  0.7957747E-01            NaN
         13   -1    0    0    0    0  0.00000000000E+00  0.00000000000E+00  0.74505805969E-08  0.10566000000E+00  0.10566000000E+00 0.  1.
     999900   -1    0    0    0    0 -0.00000000000E+00 -0.00000000000E+00 -0.74505805969E-08  0.93827000000E+00  0.93827000000E+00 0. -1.
     999902    2    1    2    0    0  0.21578054205E-02 -0.19719442571E-01  0.11890425311E-01  0.10208022082E+01  0.10205401773E+01 0.  0.
     999903    2    3    3    0    0 -0.65982265276E-01 -0.10016329490E+00 -0.51790637854E-01  0.13222494064E+00  0.20367125015E-01 0.  0.
         14    1    1    2    0    0 -0.21578054205E-02  0.19719442571E-01 -0.11890425311E-01  0.23127791801E-01  0.00000000000E+00 0. -1.
     999901    1    3    3    0    0  0.68140070697E-01  0.80443852334E-01  0.63681063165E-01  0.88857726756E+00  0.88000000000E+00 0.  1.
        -11    1    4    4    0    0 -0.41727616806E-01 -0.77189717129E-01 -0.42773100794E-01  0.97617855474E-01  0.51100000000E-03 0.  1.
         11    1    4    4    0    0 -0.24254648470E-01 -0.22973577775E-01 -0.90175370600E-02  0.34607085168E-01  0.51100000000E-03 0. -1.
</event>
<event>
 8    1  0.1143506E+005  0.1043930E+01  0.7957747E-01            NaN
         13   -1    0    0    0    0  0.00000000000E+00  0.00000000000E+00  0.74505805969E-08  0.10566000000E+00  0.10566000000E+00 0.  1.
     999900   -1    0    0    0    0 -0.00000000000E+00 -0.00000000000E+00 -0.74505805969E-08  0.93827000000E+00  0.93827000000E+00 0.  1.
     999902    2    1    2    0    0 -0.35482654847E-02  0.22743940181E-01 -0.63304192923E-02  0.10200563490E+01  0.10197769383E+01 0.  0.
     999903    2    3    3    0    0 -0.96803754448E-01 -0.42605843791E-01  0.71725876589E-01  0.12929265094E+00  0.19640860818E-01 0.  0.
         14    1    1    2    0    0  0.35482654847E-02 -0.22743940181E-01  0.63304192923E-02  0.23873650984E-01  0.00000000000E+00 0. -1.
     999901    1    3    3    0    0  0.93255488963E-01  0.65349783973E-01 -0.78056295881E-01  0.89076369808E+00  0.88000000000E+00 0.  1.
        -11    1    4    4    0    0 -0.32608320767E-01 -0.14925269695E-01  0.13540706417E-01  0.38336381023E-01  0.51100000000E-03 0. -1.
         11    1    4    4    0    0 -0.64195433681E-01 -0.27680574097E-01  0.58185170172E-01  0.90956269914E-01  0.51100000000E-03 0.  1.
</event>
<event>
 8    1  0.1143506E+005  0.1043930E+01  0.7957747E-01            NaN
         13   -1    0    0    0    0  0.00000000000E+00  0.00000000000E+00  0.74505805969E-08  0.10566000000E+00  0.10566000000E+00 0. -1.
     999900   -1    0    0    0    0 -0.00000000000E+00 -0.00000000000E+00 -0.74505805969E-08  0.93827000000E+00  0.93827000000E+00 0.  1.
     999902    2    1    2    0    0  0.58153016385E-02 -0.10066878842E-01  0.21120913013E-01  0.10198208161E+01  0.10195357984E+01 0.  0.
     999903    2    3    3    0    0  0.12246992984E+00 -0.40884751132E-01  0.15602504040E-01  0.13157057185E+00  0.19923118582E-01 0.  0.
         14    1    1    2    0    0 -0.58153016385E-02  0.10066878842E-01 -0.21120913013E-01  0.24109183919E-01  0.00000000000E+00 0.  1.
     999901    1    3    3    0    0 -0.11665462821E+00  0.30817872291E-01  0.55184089733E-02  0.88825024423E+00  0.88000000000E+00 0.  1.
        -11    1    4    4    0    0  0.12017250788E+00 -0.39791450494E-01  0.18208380654E-01  0.12789291392E+00  0.51100000000E-03 0.  1.
         11    1    4    4    0    0  0.22974219614E-02 -0.10933006382E-02 -0.26058766147E-02  0.36776579348E-02  0.51100000000E-03 0. -1.
</event>
<event>
 8    1  0.1143506E+005  0.1043930E+01  0.7957747E-01            NaN
         13   -1    0    0    0    0  0.00000000000E+00  0.00000000000E+00  0.74505805969E-08  0.10566000000E+00  0.10566000000E+00 0. -1.
     999900   -1    0    0    0    0 -0.00000000000E+00 -0.00000000000E+00 -0.74505805969E-08  0.93827000000E+00  0.93827000000E+00 0.  1.
     999902    2    1    2    0    0 -0.17742807559E-01 -0.15606293252E-01 -0.17464019252E-02  0.10202358334E+01  0.10199606572E+01 0.  0.
     999903    2    3    3    0    0  0.84688857257E-01 -0.97438724730E-01  0.11572339460E-02  0.13051833676E+00  0.19162187253E-01 0.  0.
         14    1    1    2    0    0  0.17742807559E-01  0.15606293252E-01  0.17464019252E-02  0.23694166557E-01  0.00000000000E+00 0. -1.
     999901    1    3    3    0    0 -0.10243166482E+00  0.81832431478E-01 -0.29036358712E-02  0.88971749668E+00  0.88000000000E+00 0.  1.
        -11    1    4    4    0    0  0.29551130423E-01 -0.42740698529E-01  0.78865709285E-02  0.52559449598E-01  0.51100000000E-03 0.  1.
         11    1    4    4    0    0  0.55137726834E-01 -0.54698026201E-01 -0.67293369826E-02  0.77958887165E-01  0.51100000000E-03 0. -1.
</event>
<event>
 8    1  0.1143506E+005  0.1043930E+01  0.7957747E-01            NaN
         13   -1    0    0    0    0  0.00000000000E+00  0.00000000000E+00  0.74505805969E-08  0.10566000000E+00  0.10566000000E+00 0.  1.
     999900   -1    0    0    0    0 -0.00000000000E+00 -0.00000000000E+00 -0.74505805969E-08  0.93827000000E+00  0.93827000000E+00 0. -1.
     999902    2    1    2    0    0  0.62207691102E-02 -0.22678969415E-01  0.48383240476E-02  0.10199207726E+01  0.10196381414E+01 0.  0.
     999903    2    3    3    0    0 -0.46907723114E-01 -0.12037640906E+00  0.23142466800E-01  0.13273281727E+00  0.19789205753E-01 0.  0.
         14    1    1    2    0    0 -0.62207691102E-02  0.22678969415E-01 -0.48383240476E-02  0.24009227427E-01  0.00000000000E+00 0. -1.
     999901    1    3    3    0    0  0.53128492224E-01  0.97697439644E-01 -0.18304142752E-01  0.88718795531E+00  0.88000000000E+00 0.  1.
        -11    1    4    4    0    0 -0.42269679664E-02 -0.13502367265E-01 -0.35485401361E-02  0.14595699300E-01  0.51100000000E-03 0. -1.
         11    1    4    4    0    0 -0.42680755147E-01 -0.10687404179E+00  0.26691006936E-01  0.11813711797E+00  0.51100000000E-03 0.  1.
</event>
<event>
 8    1  0.1143506E+005  0.1043930E+01  0.7957747E-01            NaN
         13   -1    0    0    0    0  0.00000000000E+00  0.00000000000E+00  0.74505805969E-08  0.10566000000E+00  0.10566000000E+00 0.  1.
     999900   -1    0    0    0    0 -0.00000000000E+00 -0.00000000000E+00 -0.74505805969E-08  0.93827000000E+00  0.93827000000E+00 0. -1.
     999902    2    1    2    0    0 -0.11727057229E-01  0.11758343089E-01  0.16739404416E-01  0.10203505563E+01  0.10200780694E+01 0.  0.
     999903    2    3    3    0    0 -0.30162036336E-01  0.12657549336E+00  0.15053909725E-01  0.13269878489E+00  0.21242489446E-01 0.  0.
         14    1    1    2    0    0  0.11727057229E-01 -0.11758343089E-01 -0.16739404416E-01  0.23579443667E-01  0.00000000000E+00 0.  1.
     999901    1    3    3    0    0  0.18434979107E-01 -0.11481715027E+00  0.16854946907E-02  0.88765177144E+00  0.88000000000E+00 0. -1.
        -11    1    4    4    0    0  0.27268403221E-02  0.20937777239E-01  0.41275693419E-02  0.21520318853E-01  0.51100000000E-03 0. -1.
         11    1    4    4    0    0 -0.32888876658E-01  0.10563771612E+00  0.10926340383E-01  0.11117846604E+00  0.51100000000E-03 0.  1.
</event>
<event>
 8    1  0.1143506E+005  0.1043930E+01  0.7957747E-01            NaN
         13   -1    0    0    0    0  0.00000000000E+00  0.00000000000E+00  0.74505805969E-08  0.10566000000E+00  0.10566000000E+00 0. -1.
     999900   -1    0    0    0    0 -0.00000000000E+00 -0.00000000000E+00 -0.74505805969E-08  0.93827000000E+00  0.93827000000E+00 0. -1.
     999902    2    1    2    0    0 -0.69513989586E-02 -0.20384290990E-01  0.96832361757E-02  0.10203163105E+01  0.10200430223E+01 0.  0.
     999903    2    3    3    0    0  0.36780147915E-01  0.11224552096E+00 -0.43215111307E-01  0.12773502552E+00  0.22290236541E-01 0.  0.
         14    1    1    2    0    0  0.69513989586E-02  0.20384290990E-01 -0.96832361757E-02  0.23613689451E-01  0.00000000000E+00 0. -1.
     999901    1    3    3    0    0 -0.43731546874E-01 -0.13262981195E+00  0.52898347483E-01  0.89258128502E+00  0.88000000000E+00 0. -1.
        -11    1    4    4    0    0  0.20494965734E-01  0.62049682382E-01 -0.35593735994E-01  0.74413586576E-01  0.51100000000E-03 0.  1.
         11    1    4    4    0    0  0.16285182182E-01  0.50195838575E-01 -0.76213753133E-02  0.53321438949E-01  0.51100000000E-03 0. -1.
</event>
<event>
 8    1  0.1143506E+005  0.1043930E+01  0.7957747E-01            NaN
         13   -1    0    0    0    0  0.00000000000E+00  0.00000000000E+00  0.74505805969E-08  0.10566000000E+00  0.10566000000E+00 0.  1.
     999900   -1    0    0    0    0 -0.00000000000E+00 -0.00000000000E+00 -0.74505805969E-08  0.93827000000E+00  0.93827000000E+00 0.  1.
     999902    2    1    2    0    0  0.16918599855E-01  0.19358155845E-01  0.11186896593E-01  0.10158920993E+01  0.10155051125E+01 0.  0.
     999903    2    3    3    0    0  0.70312308153E-01  0.10715820031E+00  0.11581559257E-01  0.12991247673E+00  0.17788156888E-01 0.  0.
         14    1    1    2    0    0 -0.16918599855E-01 -0.19358155845E-01 -0.11186896593E-01  0.28037900673E-01  0.00000000000E+00 0. -1.
     999901    1    3    3    0    0 -0.53393708298E-01 -0.87800044460E-01 -0.39466266395E-03  0.88597962259E+00  0.88000000000E+00 0.  1.
        -11    1    4    4    0    0  0.70020393439E-01  0.10063415482E+00  0.92022068047E-02  0.12294319967E+00  0.51100000000E-03 0. -1.
         11    1    4    4    0    0  0.29191471416E-03  0.65240454893E-02  0.23793524526E-02  0.69692770672E-02  0.51100000000E-03 0.  1.
</event>
<event>
 8    1  0.1143506E+005  0.1043930E+01  0.7957747E-01            NaN
         13   -1    0    0    0    0  0.00000000000E+00  0.00000000000E+00  0.74505805969E-08  0.10566000000E+00  0.10566000000E+00 0.  1.
     999900   -1    0    0    0    0 -0.00000000000E+00 -0.00000000000E+00 -0.74505805969E-08  0.93827000000E+00  0.93827000000E+00 0.  1.
     999902    2    1    2    0    0 -0.48314658445E-02  0.16008690153E-01 -0.16494038108E-01  0.10204422475E+01  0.10201719002E+01 0.  0.
     999903    2    3    3    0    0  0.12110480133E+00 -0.26675489726E-01 -0.34740186668E-01  0.13026540862E+00  0.19602077849E-01 0.  0.
         14    1    1    2    0    0  0.48314658445E-02 -0.16008690153E-01  0.16494038108E-01  0.23487752462E-01  0.00000000000E+00 0. -1.
     999901    1    3    3    0    0 -0.12593626718E+00  0.42684179879E-01  0.18246148561E-01  0.89017683891E+00  0.88000000000E+00 0.  1.
        -11    1    4    4    0    0  0.10240463282E+00 -0.15130134372E-01 -0.30001507359E-01  0.10777746218E+00  0.51100000000E-03 0. -1.
         11    1    4    4    0    0  0.18700168516E-01 -0.11545355354E-01 -0.47386793098E-02  0.22487946446E-01  0.51100000000E-03 0.  1.
</event>
<event>
 8    1  0.1143506E+005  0.1043930E+01  0.7957747E-01            NaN
         13   -1    0    0    0    0  0.00000000000E+00  0.00000000000E+00  0.74505805969E-08  0.10566000000E+00  0.10566000000E+00 0. -1.
     999900   -1    0    0    0    0 -0.00000000000E+00 -0.00000000000E+00 -0.74505805969E-08  0.93827000000E+00  0.93827000000E+00 0. -1.
     999902    2    1    2    0    0  0.22114078281E-01  0.82968778874E-02  0.33548969570E-02  0.10200736387E+01  0.10197946374E+01 0.  0.
     999903    2    3    3    0    0  0.43175977363E-01 -0.10493148974E+00  0.61677645012E-01  0.13065483422E+00  0.19793212195E-01 0.  0.
         14    1    1    2    0    0 -0.22114078281E-01 -0.82968778874E-02 -0.33548969570E-02  0.23856361300E-01  0.00000000000E+00 0.  1.
     999901    1    3    3    0    0 -0.21061899082E-01  0.11322836763E+00 -0.58322748055E-01  0.88941880448E+00  0.88000000000E+00 0. -1.
        -11    1    4    4    0    0  0.30200646270E-01 -0.91143751585E-01  0.48422263848E-01  0.10753715286E+00  0.51100000000E-03 0.  1.
         11    1    4    4    0    0  0.12975331093E-01 -0.13787738157E-01  0.13255381164E-01  0.23117681356E-01  0.51100000000E-03 0. -1.
</event>
<event>
 8    1  0.1143506E+005  0.1043930E+01  0.7957747E-01            NaN
         13   -1    0    0    0    0  0.00000000000E+00  0.00000000000E+00  0.74505805969E-08  0.10566000000E+00  0.10566000000E+00 0.  1.
     999900   -1    0    0    0    0 -0.00000000000E+00 -0.00000000000E+00 -0.74505805969E-08  0.93827000000E+00  0.93827000000E+00 0.  1.
     999902    2    1    2    0    0 -0.84837885041E-02  0.16719119569E-01  0.14040881008E-01  0.10205067217E+01  0.10202378738E+01 0.  0.
     999903    2    3    3    0    0  0.12062179536E+00 -0.41955461052E-01  0.88438410393E-03  0.12905618937E+00  0.18569858704E-01 0.  0.
         14    1    1    2    0    0  0.84837885041E-02 -0.16719119569E-01 -0.14040881008E-01  0.23423278294E-01  0.00000000000E+00 0.  1.
     999901    1    3    3    0    0 -0.12910558386E+00  0.58674580621E-01  0.13156496904E-01  0.89145053234E+00  0.88000000000E+00 0. -1.
        -11    1    4    4    0    0  0.10303651393E+00 -0.31172518721E-01  0.59326888103E-02  0.10781329716E+00  0.51100000000E-03 0. -1.
         11    1    4    4    0    0  0.17585281426E-01 -0.10782942332E-01 -0.50483047064E-02  0.21242892213E-01  0.51100000000E-03 0.  1.
</event>
<event>
 8    1  0.1143506E+005  0.1043930E+01  0.7957747E-01            NaN
         13   -1    0    0    0    0  0.00000000000E+00  0.00000000000E+00  0.74505805969E-08  0.10566000000E+00  0.10566000000E+00 0. -1.
     999900   -1    0    0    0    0 -0.00000000000E+00 -0.00000000000E+00 -0.74505805969E-08  0.93827000000E+00  0.93827000000E+00 0. -1.
     999902    2    1    2    0    0  0.24187254754E-01 -0.55106895134E-02  0.36283573779E-02  0.10188589815E+01  0.10185504741E+01 0.  0.
     999903    2    3    3    0    0  0.10463099594E+00 -0.75930604744E-01  0.20039965444E-01  0.13223645706E+00  0.19281553686E-01 0.  0.
         14    1    1    2    0    0 -0.24187254754E-01  0.55106895134E-02 -0.36283573779E-02  0.25071018502E-01  0.00000000000E+00 0.  1.
     999901    1    3    3    0    0 -0.80443741189E-01  0.70419915230E-01 -0.16411608066E-01  0.88662252444E+00  0.88000000000E+00 0. -1.
        -11    1    4    4    0    0  0.42783121722E-01 -0.27704842134E-01  0.17055728741E-01  0.53750467773E-01  0.51100000000E-03 0.  1.
         11    1    4    4    0    0  0.61847874222E-01 -0.48225762610E-01  0.29842367034E-02  0.78485989290E-01  0.51100000000E-03 0. -1.
</event>
<event>
 8    1  0.1143506E+005  0.1043930E+01  0.7957747E-01            NaN
         13   -1    0    0    0    0  0.00000000000E+00  0.00000000000E+00  0.74505805969E-08  0.10566000000E+00  0.10566000000E+00 0.  1.
     999900   -1    0    0    0    0 -0.00000000000E+00 -0.00000000000E+00 -0.74505805969E-08  0.93827000000E+00  0.93827000000E+00 0.  1.
     999902    2    1    2    0    0  0.19266381019E-01  0.73613371200E-02  0.19450882846E-01  0.10155800518E+01  0.10151842798E+01 0.  0.
     999903    2    3    3    0    0 -0.89481267045E-01  0.43971107611E-01  0.76391110425E-01  0.12630590068E+00  0.13312525642E-01 0.  0.
         14    1    1    2    0    0 -0.19266381019E-01 -0.73613371200E-02 -0.19450882846E-01  0.28349948241E-01  0.00000000000E+00 0.  1.
     999901    1    3    3    0    0  0.10874764806E+00 -0.36609770491E-01 -0.56940227578E-01  0.88927415108E+00  0.88000000000E+00 0. -1.
        -11    1    4    4    0    0 -0.34975615421E-01  0.12694160930E-01  0.34777815721E-01  0.50933220820E-01  0.51100000000E-03 0.  1.
         11    1    4    4    0    0 -0.54505651624E-01  0.31276946681E-01  0.41613294704E-01  0.75372679863E-01  0.51100000000E-03 0. -1.
</event>
<event>
 8    1  0.1143506E+005  0.1043930E+01  0.7957747E-01            NaN
         13   -1    0    0    0    0  0.00000000000E+00  0.00000000000E+00  0.74505805969E-08  0.10566000000E+00  0.10566000000E+00 0. -1.
     999900   -1    0    0    0    0 -0.00000000000E+00 -0.00000000000E+00 -0.74505805969E-08  0.93827000000E+00  0.93827000000E+00 0.  1.
     999902    2    1    2    0    0  0.15860620338E-01  0.44916971791E-02 -0.17393641613E-01  0.10199659980E+01  0.10196844432E+01 0.  0.
     999903    2    3    3    0    0 -0.10698020338E+00 -0.67901574671E-01 -0.14221071765E-02  0.12834626762E+00  0.20380242023E-01 0.  0.
         14    1    1    2    0    0 -0.15860620338E-01 -0.44916971791E-02  0.17393641613E-01  0.23964001953E-01  0.00000000000E+00 0. -1.
     999901    1    3    3    0    0  0.12284082372E+00  0.72393271850E-01 -0.15971534436E-01  0.89161973043E+00  0.88000000000E+00 0.  1.
        -11    1    4    4    0    0 -0.17424173015E-01 -0.37480335051E-02 -0.34611605187E-02  0.18162882853E-01  0.51100000000E-03 0. -1.
         11    1    4    4    0    0 -0.89556030362E-01 -0.64153541166E-01  0.20390533422E-02  0.11018338476E+00  0.51100000000E-03 0.  1.
</event>
<event>
 8    1  0.1143506E+005  0.1043930E+01  0.7957747E-01            NaN
         13   -1    0    0    0    0  0.00000000000E+00  0.00000000000E+00  0.74505805969E-08  0.10566000000E+00  0.10566000000E+00 0. -1.
     999900   -1    0    0    0    0 -0.00000000000E+00 -0.00000000000E+00 -0.74505805969E-08  0.93827000000E+00  0.93827000000E+00 0.  1.
     999902    2    1    2    0    0  0.13312489219E-01 -0.12295340690E-01  0.17359164328E-01  0.10188354118E+01  0.10185263168E+01 0.  0.
     999903    2    3    3    0    0  0.12537023875E+00 -0.33926519767E-01 -0.13463800177E-02  0.13126865681E+00  0.18998473938E-01 0.  0.
         14    1    1    2    0    0 -0.13312489219E-01  0.12295340690E-01 -0.17359164328E-01  0.25094588222E-01  0.00000000000E+00 0.  1.
     999901    1    3    3    0    0 -0.11205774954E+00  0.21631179077E-01  0.18705544345E-01  0.88756675497E+00  0.88000000000E+00 0. -1.
        -11    1    4    4    0    0  0.51749675753E-01 -0.21082203881E-01  0.58583838116E-02  0.56187810447E-01  0.51100000000E-03 0.  1.
         11    1    4    4    0    0  0.73620563002E-01 -0.12844315886E-01 -0.72047638293E-02  0.75080846360E-01  0.51100000000E-03 0. -1.
</event>
<event>
 8    1  0.1143506E+005  0.1043930E+01  0.7957747E-01            NaN
         13   -1    0    0    0    0  0.00000000000E+00  0.00000000000E+00  0.74505805969E-08  0.10566000000E+00  0.10566000000E+00 0.  1.
     999900   -1    0    0    0    0 -0.00000000000E+00 -0.00000000000E+00 -0.74505805969E-08  0.93827000000E+00  0.93827000000E+00 0. -1.
     999902    2    1    2    0    0 -0.17041987655E-01  0.13150665623E-01 -0.10727433393E-01  0.10198790712E+01  0.10195954456E+01 0.  0.
     999903    2    3    3    0    0  0.47589721235E-01 -0.48659449892E-01 -0.10858368882E+00  0.12995008812E+00  0.21542615766E-01 0.  0.
         14    1    1    2    0    0  0.17041987655E-01 -0.13150665623E-01  0.10727433393E-01  0.24050928813E-01  0.00000000000E+00 0.  1.
     999901    1    3    3    0    0 -0.64631708890E-01  0.61810115515E-01  0.97856255427E-01  0.88992898307E+00  0.88000000000E+00 0.  1.
        -11    1    4    4    0    0  0.16675913667E-01 -0.12228362763E-01 -0.51553291691E-01  0.55548374933E-01  0.51100000000E-03 0.  1.
         11    1    4    4    0    0  0.30913807568E-01 -0.36431087128E-01 -0.57030397129E-01  0.74401713188E-01  0.51100000000E-03 0. -1.
</event>
<event>
 8    1  0.1143506E+005  0.1043930E+01  0.7957747E-01            NaN
         13   -1    0    0    0    0  0.00000000000E+00  0.00000000000E+00  0.74505805969E-08  0.10566000000E+00  0.10566000000E+00 0.  1.
     999900   -1    0    0    0    0 -0.00000000000E+00 -0.00000000000E+00 -0.74505805969E-08  0.93827000000E+00  0.93827000000E+00 0. -1.
     999902    2    1    2    0    0  0.14968103211E-02 -0.22625447753E-01 -0.78228758570E-02  0.10199435723E+01  0.10196614840E+01 0.  0.
     999903    2    3    3    0    0  0.97342507670E-01 -0.86503251393E-01 -0.13524423194E-01  0.13241933086E+00  0.19839174935E-01 0.  0.
         14    1    1    2    0    0 -0.14968103211E-02  0.22625447753E-01  0.78228758570E-02  0.23986427700E-01  0.00000000000E+00 0. -1.
     999901    1    3    3    0    0 -0.95845697349E-01  0.63877803641E-01  0.57015473375E-02  0.88752424144E+00  0.88000000000E+00 0.  1.
        -11    1    4    4    0    0  0.85931661847E-01 -0.83537274244E-01 -0.13626024999E-01  0.12061781118E+00  0.51100000000E-03 0. -1.
         11    1    4    4    0    0  0.11410845823E-01 -0.29659771493E-02  0.10160180506E-03  0.11801519681E-01  0.51100000000E-03 0.  1.
</event>
<event>
 8    1  0.1143506E+005  0.1043930E+01  0.7957747E-01            NaN
         13   -1    0    0    0    0  0.00000000000E+00  0.00000000000E+00  0.74505805969E-08  0.10566000000E+00  0.10566000000E+00 0. -1.
     999900   -1    0    0    0    0 -0.00000000000E+00 -0.00000000000E+00 -0.74505805969E-08  0.93827000000E+00  0.93827000000E+00 0.  1.
     999902    2    1    2    0    0  0.22730255889E-01  0.72230722458E-03 -0.45976869848E-03  0.10211836234E+01  0.10209302597E+01 0.  0.
     999903    2    3    3    0    0  0.10515503759E+00 -0.77058186415E-01 -0.21959817778E-01  0.13365565093E+00  0.19648241799E-01 0.  0.
         14    1    1    2    0    0 -0.22730255889E-01 -0.72230722458E-03  0.45976869848E-03  0.22746376585E-01  0.00000000000E+00 0.  1.
     999901    1    3    3    0    0 -0.82424781698E-01  0.77780493639E-01  0.21500049080E-01  0.88752797248E+00  0.88000000000E+00 0.  1.
        -11    1    4    4    0    0  0.14856306058E-01 -0.20288873664E-01 -0.52181527470E-02  0.25687321061E-01  0.51100000000E-03 0.  1.
         11    1    4    4    0    0  0.90298731529E-01 -0.56769312751E-01 -0.16741665031E-01  0.10796832987E+00  0.51100000000E-03 0. -1.
</event>
<event>
 8    1  0.1143506E+005  0.1043930E+01  0.7957747E-01            NaN
         13   -1    0    0    0    0  0.00000000000E+00  0.00000000000E+00  0.74505805969E-08  0.10566000000E+00  0.10566000000E+00 0. -1.
     999900   -1    0    0    0    0 -0.00000000000E+00 -0.00000000000E+00 -0.74505805969E-08  0.93827000000E+00  0.93827000000E+00 0. -1.
     999902    2    1    2    0    0 -0.73286708565E-02 -0.23318757756E-01 -0.18006355079E-02  0.10194204882E+01  0.10191258095E+01 0.  0.
     999903    2    3    3    0    0  0.19280667896E-01  0.11435351914E+00 -0.48155960080E-01  0.12711419055E+00  0.19762324075E-01 0.  0.
         14    1    1    2    0    0  0.73286708565E-02  0.23318757756E-01  0.18006355079E-02  0.24509511787E-01  0.00000000000E+00 0.  1.
     999901    1    3    3    0    0 -0.26609338752E-01 -0.13767227690E+00  0.46355324572E-01  0.89230629766E+00  0.88000000000E+00 0.  1.
        -11    1    4    4    0    0  0.55014543644E-02  0.50068906635E-01 -0.10876141704E-01  0.51533610305E-01  0.51100000000E-03 0. -1.
         11    1    4    4    0    0  0.13779213531E-01  0.64284612508E-01 -0.37279818376E-01  0.75580580243E-01  0.51100000000E-03 0.  1.
</event>
<event>
 8    1  0.1143506E+005  0.1043930E+01  0.7957747E-01            NaN
         13   -1    0    0    0    0  0.00000000000E+00  0.00000000000E+00  0.74505805969E-08  0.10566000000E+00  0.10566000000E+00 0.  1.
     999900   -1    0    0    0    0 -0.00000000000E+00 -0.00000000000E+00 -0.74505805969E-08  0.93827000000E+00  0.93827000000E+00 0. -1.
     999902    2    1    2    0    0  0.83169054867E-02 -0.75260401790E-02 -0.21193137198E-01  0.10199516501E+01  0.10196697541E+01 0.  0.
     999903    2    3    3    0    0 -0.96468927295E-01  0.76679404313E-01 -0.34853911948E-01  0.12963864653E+00  0.20134510591E-01 0.  0.
         14    1    1    2    0    0 -0.83169054867E-02  0.75260401790E-02  0.21193137198E-01  0.23978349859E-01  0.00000000000E+00 0.  1.
     999901    1    3    3    0    0  0.10478583278E+00 -0.84205444492E-01  0.13660774750E-01  0.89031300361E+00  0.88000000000E+00 0.  1.
        -11    1    4    4    0    0 -0.82615086051E-01  0.63295202480E-01 -0.36518933889E-01  0.11029700247E+00  0.51100000000E-03 0.  1.
         11    1    4    4    0    0 -0.13853841243E-01  0.13384201833E-01  0.16650219408E-02  0.19341644061E-01  0.51100000000E-03 0. -1.
</event>
<event>
 8    1  0.1143506E+005  0.1043930E+01  0.7957747E-01            NaN
         13   -1    0    0    0    0  0.00000000000E+00  0.00000000000E+00  0.74505805969E-08  0.10566000000E+00  0.10566000000E+00 0. -1.
     999900   -1    0    0    0    0 -0.00000000000E+00 -0.00000000000E+00 -0.74505805969E-08  0.93827000000E+00  0.93827000000E+00 0.  1.
     999902    2    1    2    0    0  0.10717095977E-01  0.54799697406E-02 -0.20678233058E-01  0.10200035390E+01  0.10197228761E+01 0.  0.
     999903    2    3    3    0    0  0.66965261103E-01  0.80578037889E-01  0.74154829217E-01  0.12994911052E+00  0.20264901782E-01 0.  0.
         14    1    1    2    0    0 -0.10717095977E-01 -0.54799697406E-02  0.20678233058E-01  0.23926461020E-01  0.00000000000E+00 0. -1.
     999901    1    3    3    0    0 -0.56248165126E-01 -0.75098068148E-01 -0.94833062275E-01  0.89005442846E+00  0.88000000000E+00 0.  1.
        -11    1    4    4    0    0  0.47652265044E-01  0.57888225747E-01  0.63643171146E-01  0.98348865771E-01  0.51100000000E-03 0. -1.
         11    1    4    4    0    0  0.19312996059E-01  0.22689812142E-01  0.10511658071E-01  0.31600244749E-01  0.51100000000E-03 0.  1.
</event>
<event>
 8    1  0.1143506E+005  0.1043930E+01  0.7957747E-01            NaN
         13   -1    0    0    0    0  0.00000000000E+00  0.00000000000E+00  0.74505805969E-08  0.10566000000E+00  0.10566000000E+00 0. -1.
     999900   -1    0    0    0    0 -0.00000000000E+00 -0.00000000000E+00 -0.74505805969E-08  0.93827000000E+00  0.93827000000E+00 0.  1.
     999902    2    1    2    0    0 -0.12142874403E-01  0.10227487352E-01  0.17273709049E-01  0.10204687144E+01  0.10201989831E+01 0.  0.
     999903    2    3    3    0    0 -0.96368053932E-02  0.92533816034E-01  0.93381107045E-01  0.13335375674E+00  0.20194508074E-01 0.  0.
         14    1    1    2    0    0  0.12142874403E-01 -0.10227487352E-01 -0.17273709049E-01  0.23461285570E-01  0.00000000000E+00 0.  1.
     999901    1    3    3    0    0 -0.25060690094E-02 -0.82306328682E-01 -0.76107397996E-01  0.88711495769E+00  0.88000000000E+00 0.  1.
        -11    1    4    4    0    0  0.48427028217E-02  0.78490319055E-02  0.10366811293E-01  0.13884918792E-01  0.51100000000E-03 0. -1.
         11    1    4    4    0    0 -0.14479508215E-01  0.84684784128E-01  0.83014295753E-01  0.11946883795E+00  0.51100000000E-03 0.  1.
</event>
<event>
 8    1  0.1143506E+005  0.1043930E+01  0.7957747E-01            NaN
         13   -1    0    0    0    0  0.00000000000E+00  0.00000000000E+00  0.74505805969E-08  0.10566000000E+00  0.10566000000E+00 0.  1.
     999900   -1    0    0    0    0 -0.00000000000E+00 -0.00000000000E+00 -0.74505805969E-08  0.93827000000E+00  0.93827000000E+00 0. -1.
     999902    2    1    2    0    0 -0.13588557928E-01 -0.17135647628E-01  0.75951654457E-02  0.10207790634E+01  0.10205165018E+01 0.  0.
     999903    2    3    3    0    0 -0.96044131284E-01  0.55475614067E-01 -0.66568514065E-01  0.13085121901E+00  0.19714348624E-01 0.  0.
         14    1    1    2    0    0  0.13588557928E-01  0.17135647628E-01 -0.75951654457E-02  0.23150936575E-01  0.00000000000E+00 0. -1.
     999901    1    3    3    0    0  0.82455573357E-01 -0.72611261695E-01  0.74163679511E-01  0.88992784441E+00  0.88000000000E+00 0. -1.
        -11    1    4    4    0    0 -0.64676775288E-01  0.26447136107E-01 -0.39727674511E-01  0.80380877782E-01  0.51100000000E-03 0.  1.
         11    1    4    4    0    0 -0.31367355996E-01  0.29028477960E-01 -0.26840839555E-01  0.50470341230E-01  0.51100000000E-03 0. -1.
</event>
<event>
 8    1  0.1143506E+005  0.1043930E+01  0.7957747E-01            NaN
         13   -1    0    0    0    0  0.00000000000E+00  0.00000000000E+00  0.74505805969E-08  0.10566000000E+00  0.10566000000E+00 0. -1.
     999900   -1    0    0    0    0 -0.00000000000E+00 -0.00000000000E+00 -0.74505805969E-08  0.93827000000E+00  0.93827000000E+00 0.  1.
     999902    2    1    2    0    0 -0.15316896897E-01  0.15148821296E-01 -0.10203730453E-01  0.10200928393E+01  0.10198142921E+01 0.  0.
     999903    2    3    3    0    0 -0.42236775773E-01  0.11948757779E+00 -0.35356065652E-01  0.13316336294E+00  0.20523239926E-01 0.  0.
         14    1    1    2    0    0  0.15316896897E-01 -0.15148821296E-01  0.10203730453E-01  0.23837160745E-01  0.00000000000E+00 0.  1.
     999901    1    3    3    0    0  0.26919878876E-01 -0.10433875650E+00  0.25152335198E-01  0.88692947631E+00  0.88000000000E+00 0. -1.
        -11    1    4    4    0    0 -0.35404833713E-01  0.81752074320E-01 -0.17222707567E-01  0.90740215356E-01  0.51100000000E-03 0. -1.
         11    1    4    4    0    0 -0.68319420595E-02  0.37735503474E-01 -0.18133358084E-01  0.42423147586E-01  0.51100000000E-03 0.  1.
</event>
<event>
 8    1  0.1143506E+005  0.1043930E+01  0.7957747E-01            NaN
         13   -1    0    0    0    0  0.00000000000E+00  0.00000000000E+00  0.74505805969E-08  0.10566000000E+00  0.10566000000E+00 0.  1.
     999900   -1    0    0    0    0 -0.00000000000E+00 -0.00000000000E+00 -0.74505805969E-08  0.93827000000E+00  0.93827000000E+00 0. -1.
     999902    2    1    2    0    0  0.25226651003E-01  0.13693259458E-01 -0.60754181399E-02  0.10145906070E+01  0.10141663078E+01 0.  0.
     999903    2    3    3    0    0 -0.11533051269E+00  0.23778700709E-01  0.28619724326E-01  0.12270396326E+00  0.19251499002E-01 0.  0.
         14    1    1    2    0    0 -0.25226651003E-01 -0.13693259458E-01  0.60754181399E-02  0.29339392990E-01  0.00000000000E+00 0.  1.
     999901    1    3    3    0    0  0.14055716370E+00 -0.10085441250E-01 -0.34695142466E-01  0.89188664375E+00  0.88000000000E+00 0. -1.
        -11    1    4    4    0    0 -0.77690711872E-01  0.68546424592E-02  0.16977242885E-01  0.79820553314E-01  0.51100000000E-03 0.  1.
         11    1    4    4    0    0 -0.37639800820E-01  0.16924058249E-01  0.11642481441E-01  0.42883409945E-01  0.51100000000E-03 0. -1.
</event>
<event>
 8    1  0.1143506E+005  0.1043930E+01  0.7957747E-01            NaN
         13   -1    0    0    0    0  0.00000000000E+00  0.00000000000E+00  0.74505805969E-08  0.10566000000E+00  0.10566000000E+00 0. -1.
     999900   -1    0    0    0    0 -0.00000000000E+00 -0.00000000000E+00 -0.74505805969E-08  0.93827000000E+00  0.93827000000E+00 0.  1.
     999902    2    1    2    0    0  0.12202023052E-01  0.44065238480E-02  0.19819817564E-01  0.10202417753E+01  0.10199667388E+01 0.  0.
     999903    2    3    3    0    0 -0.28950236081E-01  0.67242214034E-01  0.10876933238E+00  0.13257413001E+00  0.19634173381E-01 0.  0.
         14    1    1    2    0    0 -0.12202023052E-01 -0.44065238480E-02 -0.19819817564E-01  0.23688224654E-01  0.00000000000E+00 0.  1.
     999901    1    3    3    0    0  0.41152259133E-01 -0.62835690186E-01 -0.88949514814E-01  0.88766764534E+00  0.88000000000E+00 0.  1.
        -11    1    4    4    0    0 -0.14897040184E-01  0.27406439912E-01  0.30487864424E-01  0.43621161756E-01  0.51100000000E-03 0. -1.
         11    1    4    4    0    0 -0.14053195897E-01  0.39835774122E-01  0.78281467955E-01  0.88952968253E-01  0.51100000000E-03 0.  1.
</event>
<event>
 8    1  0.1143506E+005  0.1043930E+01  0.7957747E-01            NaN
         13   -1    0    0    0    0  0.00000000000E+00  0.00000000000E+00  0.74505805969E-08  0.10566000000E+00  0.10566000000E+00 0.  1.
     999900   -1    0    0    0    0 -0.00000000000E+00 -0.00000000000E+00 -0.74505805969E-08  0.93827000000E+00  0.93827000000E+00 0. -1.
     999902    2    1    2    0    0  0.34260066875E-02 -0.21135498459E-01 -0.10469024038E-01  0.10200962575E+01  0.10198177912E+01 0.  0.
     999903    2    3    3    0    0 -0.46276763766E-01  0.24929877968E-02 -0.12116539277E+00  0.13145552200E+00  0.21254364384E-01 0.  0.
         14    1    1    2    0    0 -0.34260066875E-02  0.21135498459E-01  0.10469024038E-01  0.23833742493E-01  0.00000000000E+00 0.  1.
     999901    1    3    3    0    0  0.49702770454E-01 -0.23628486256E-01  0.11069636874E+00  0.88864073551E+00  0.88000000000E+00 0.  1.
        -11    1    4    4    0    0 -0.36910125374E-01  0.54629469907E-02 -0.11183238162E+00  0.11789378205E+00  0.51100000000E-03 0. -1.
         11    1    4    4    0    0 -0.93666383924E-02 -0.29699591939E-02 -0.93330111494E-02  0.13561739951E-01  0.51100000000E-03 0.  1.
</event>
<event>
 8    1  0.1143506E+005  0.1043930E+01  0.7957747E-01            NaN
         13   -1    0    0    0    0  0.00000000000E+00  0.00000000000E+00  0.74505805969E-08  0.10566000000E+00  0.10566000000E+00 0. -1.
     999900   -1    0    0    0    0 -0.00000000000E+00 -0.00000000000E+00 -0.74505805969E-08  0.93827000000E+00  0.93827000000E+00 0. -1.
     999902    2    1    2    0    0  0.91849684624E-03  0.40104608496E-02  0.23324482069E-01  0.10202454291E+01  0.10199704784E+01 0.  0.
     999903    2    3    3    0    0 -0.38261396262E-01 -0.59354480125E-01  0.11061292639E+00  0.13279433062E+00  0.20303349600E-01 0.  0.
         14    1    1    2    0    0 -0.91849684624E-03 -0.40104608496E-02 -0.23324482069E-01  0.23684570852E-01  0.00000000000E+00 0.  1.
     999901    1    3    3    0    0  0.39179893108E-01  0.63364940975E-01 -0.87288444321E-01  0.88745109853E+00  0.88000000000E+00 0. -1.
        -11    1    4    4    0    0 -0.12547531512E-01 -0.38043326489E-01  0.61665431077E-01  0.73536533426E-01  0.51100000000E-03 0. -1.
         11    1    4    4    0    0 -0.25713864750E-01 -0.21311153636E-01  0.48947495313E-01  0.59257797193E-01  0.51100000000E-03 0.  1.
</event>
<event>
 8    1  0.1143506E+005  0.1043930E+01  0.7957747E-01            NaN
         13   -1    0    0    0    0  0.00000000000E+00  0.00000000000E+00  0.74505805969E-08  0.10566000000E+00  0.10566000000E+00 0. -1.
     999900   -1    0    0    0    0 -0.00000000000E+00 -0.00000000000E+00 -0.74505805969E-08  0.93827000000E+00  0.93827000000E+00 0.  1.
     999902    2    1    2    0    0 -0.16577586780E-01  0.17329203948E-01  0.31414642542E-02  0.10197435060E+01  0.10194566355E+01 0.  0.
     999903    2    3    3    0    0 -0.60502179827E-01  0.64361409624E-01 -0.95816717109E-01  0.13186168962E+00  0.20093707978E-01 0.  0.
         14    1    1    2    0    0  0.16577586780E-01 -0.17329203948E-01 -0.31414642542E-02  0.24186493970E-01  0.00000000000E+00 0.  1.
     999901    1    3    3    0    0  0.43924593047E-01 -0.47032205676E-01  0.98958181364E-01  0.88788181641E+00  0.88000000000E+00 0. -1.
        -11    1    4    4    0    0 -0.46163927916E-01  0.59727821731E-01 -0.80964122892E-01  0.11069765691E+00  0.51100000000E-03 0. -1.
         11    1    4    4    0    0 -0.14338251910E-01  0.46335878936E-02 -0.14852594217E-01  0.21164032711E-01  0.51100000000E-03 0.  1.
</event>
<event>
 8    1  0.1143506E+005  0.1043930E+01  0.7957747E-01            NaN
         13   -1    0    0    0    0  0.00000000000E+00  0.00000000000E+00  0.74505805969E-08  0.10566000000E+00  0.10566000000E+00 0. -1.
     999900   -1    0    0    0    0 -0.00000000000E+00 -0.00000000000E+00 -0.74505805969E-08  0.93827000000E+00  0.93827000000E+00 0.  1.
     999902    2    1    2    0    0  0.23222451103E-01 -0.73287419766E-02 -0.72950917236E-02  0.10185093183E+01  0.10181920351E+01 0.  0.
     999903    2    3    3    0    0 -0.36528827095E-01  0.59597676345E-01  0.10403671555E+00  0.12696900401E+00  0.20279338305E-01 0.  0.
         14    1    1    2    0    0 -0.23222451103E-01  0.73287419766E-02  0.72950917236E-02  0.25420681688E-01  0.00000000000E+00 0. -1.
     999901    1    3    3    0    0  0.59751278198E-01 -0.66926418322E-01 -0.11133180727E+00  0.89154031430E+00  0.88000000000E+00 0.  1.
        -11    1    4    4    0    0 -0.68722844125E-02  0.19111402211E-01  0.45710829928E-01  0.50022145908E-01  0.51100000000E-03 0. -1.
         11    1    4    4    0    0 -0.29656542683E-01  0.40486274134E-01  0.58325885622E-01  0.76946858102E-01  0.51100000000E-03 0.  1.
</event>
<event>
 8    1  0.1143506E+005  0.1043930E+01  0.7957747E-01            NaN
         13   -1    0    0    0    0  0.00000000000E+00  0.00000000000E+00  0.74505805969E-08  0.10566000000E+00  0.10566000000E+00 0.  1.
     999900   -1    0    0    0    0 -0.00000000000E+00 -0.00000000000E+00 -0.74505805969E-08  0.93827000000E+00  0.93827000000E+00 0.  1.
     999902    2    1    2    0    0  0.58104077973E-02  0.15328986887E-01  0.17152998987E-01  0.10202031365E+01  0.10199271913E+01 0.  0.
     999903    2    3    3    0    0 -0.22526365091E-01  0.89745787046E-01 -0.89975236111E-01  0.13013724477E+00  0.16685800761E-01 0.  0.
         14    1    1    2    0    0 -0.58104077973E-02 -0.15328986887E-01 -0.17152998987E-01  0.23726863509E-01  0.00000000000E+00 0. -1.
     999901    1    3    3    0    0  0.28336772889E-01 -0.74416800159E-01  0.10712823510E+00  0.89006589172E+00  0.88000000000E+00 0. -1.
        -11    1    4    4    0    0 -0.18598862591E-01  0.56849572870E-01 -0.48216565570E-01  0.76830267093E-01  0.51100000000E-03 0. -1.
         11    1    4    4    0    0 -0.39275025002E-02  0.32896214176E-01 -0.41758670541E-01  0.53306977680E-01  0.51100000000E-03 0.  1.
</event>
<event>
 8    1  0.1143506E+005  0.1043930E+01  0.7957747E-01            NaN
         13   -1    0    0    0    0  0.00000000000E+00  0.00000000000E+00  0.74505805969E-08  0.10566000000E+00  0.10566000000E+00 0. -1.
     999900   -1    0    0    0    0 -0.00000000000E+00 -0.00000000000E+00 -0.74505805969E-08  0.93827000000E+00  0.93827000000E+00 0. -1.
     999902    2    1    2    0    0 -0.10725546253E-01  0.20207527138E-01  0.81904917837E-02  0.10196305010E+01  0.10193409111E+01 0.  0.
     999903    2    3    3    0    0 -0.25526151905E-01 -0.99721849333E-01 -0.72803477533E-01  0.12768760131E+00  0.20192709600E-01 0.  0.
         14    1    1    2    0    0  0.10725546253E-01 -0.20207527138E-01 -0.81904917837E-02  0.24299498989E-01  0.00000000000E+00 0.  1.
     999901    1    3    3    0    0  0.14800605652E-01  0.11992937647E+00  0.80993969317E-01  0.89194289970E+00  0.88000000000E+00 0. -1.
        -11    1    4    4    0    0 -0.32051062014E-02 -0.24157919957E-01 -0.79558271219E-02  0.25640477933E-01  0.51100000000E-03 0.  1.
         11    1    4    4    0    0 -0.22321045704E-01 -0.75563929376E-01 -0.64847650411E-01  0.10204712337E+00  0.51100000000E-03 0. -1.
</event>
<event>
 8    1  0.1143506E+005  0.1043930E+01  0.7957747E-01            NaN
         13   -1    0    0    0    0  0.00000000000E+00  0.00000000000E+00  0.74505805969E-08  0.10566000000E+00  0.10566000000E+00 0. -1.
     999900   -1    0    0    0    0 -0.00000000000E+00 -0.00000000000E+00 -0.74505805969E-08  0.93827000000E+00  0.93827000000E+00 0.  1.
     999902    2    1    2    0    0 -0.17060940134E-01  0.16097710126E-01  0.52099274723E-02  0.10199017813E+01  0.10196186975E+01 0.  0.
     999903    2    3    3    0    0  0.11340238515E+00 -0.15652423633E-01  0.54293158002E-01  0.12836495438E+00  0.20608619159E-01 0.  0.
         14    1    1    2    0    0  0.17060940134E-01 -0.16097710126E-01 -0.52099274723E-02  0.24028218698E-01  0.00000000000E+00 0. -1.
     999901    1    3    3    0    0 -0.13046332529E+00  0.31750133759E-01 -0.49083230530E-01  0.89153682692E+00  0.88000000000E+00 0. -1.
        -11    1    4    4    0    0  0.32647962431E-01 -0.10758218581E-01  0.24214354409E-01  0.42050265141E-01  0.51100000000E-03 0. -1.
         11    1    4    4    0    0  0.80754422720E-01 -0.48942050515E-02  0.30078803593E-01  0.86314689239E-01  0.51100000000E-03 0.  1.
</event>
<event>
 8    1  0.1143506E+005  0.1043930E+01  0.7957747E-01            NaN
         13   -1    0    0    0    0  0.00000000000E+00  0.00000000000E+00  0.74505805969E-08  0.10566000000E+00  0.10566000000E+00 0. -1.
     999900   -1    0    0    0    0 -0.00000000000E+00 -0.00000000000E+00 -0.74505805969E-08  0.93827000000E+00  0.93827000000E+00 0.  1.
     999902    2    1    2    0    0  0.20317372484E-01 -0.12809078885E-01 -0.12590867852E-02  0.10198789413E+01  0.10195953126E+01 0.  0.
     999903    2    3    3    0    0 -0.81339586816E-02 -0.13000256978E+00  0.94146330992E-02  0.13158973113E+00  0.16136684625E-01 0.  0.
         14    1    1    2    0    0 -0.20317372484E-01  0.12809078885E-01  0.12590867852E-02  0.24051058731E-01  0.00000000000E+00 0.  1.
     999901    1    3    3    0    0  0.28451331165E-01  0.11719349089E+00 -0.10673719884E-01  0.88828921014E+00  0.88000000000E+00 0.  1.
        -11    1    4    4    0    0 -0.68723430969E-02 -0.10561089906E+00  0.12861796508E-02  0.10584331098E+00  0.51100000000E-03 0.  1.
         11    1    4    4    0    0 -0.12616155847E-02 -0.24391670713E-01  0.81284534484E-02  0.25746420149E-01  0.51100000000E-03 0. -1.
</event>
<event>
 8    1  0.1143506E+005  0.1043930E+01  0.7957747E-01            NaN
         13   -1    0    0    0    0  0.00000000000E+00  0.00000000000E+00  0.74505805969E-08  0.10566000000E+00  0.10566000000E+00 0. -1.
     999900   -1    0    0    0    0 -0.00000000000E+00 -0.00000000000E+00 -0.74505805969E-08  0.93827000000E+00  0.93827000000E+00 0.  1.
     999902    2    1    2    0    0 -0.15308989665E-01  0.11339237439E-01 -0.12831360707E-01  0.10209607317E+01  0.10207023211E+01 0.  0.
     999903    2    3    3    0    0  0.92266661267E-01  0.27719863557E-01 -0.86707184521E-01  0.13118633165E+00  0.20253151513E-01 0.  0.
         14    1    1    2    0    0  0.15308989665E-01 -0.11339237439E-01  0.12831360707E-01  0.22969268335E-01  0.00000000000E+00 0. -1.
     999901    1    3    3    0    0 -0.10757565093E+00 -0.16380626118E-01  0.73875823814E-01  0.88977440002E+00  0.88000000000E+00 0. -1.
        -11    1    4    4    0    0  0.53670803173E-01  0.68583088327E-02 -0.41534080350E-01  0.68212406971E-01  0.51100000000E-03 0.  1.
         11    1    4    4    0    0  0.38595858094E-01  0.20861554724E-01 -0.45173104170E-01  0.62973924675E-01  0.51100000000E-03 0. -1.
</event>
<event>
 8    1  0.1143506E+005  0.1043930E+01  0.7957747E-01            NaN
         13   -1    0    0    0    0  0.00000000000E+00  0.00000000000E+00  0.74505805969E-08  0.10566000000E+00  0.10566000000E+00 0.  1.
     999900   -1    0    0    0    0 -0.00000000000E+00 -0.00000000000E+00 -0.74505805969E-08  0.93827000000E+00  0.93827000000E+00 0.  1.
     999902    2    1    2    0    0  0.58559342239E-02  0.21585178429E-01 -0.85213881594E-02  0.10199962174E+01  0.10197153807E+01 0.  0.
     999903    2    3    3    0    0 -0.21711030277E-01 -0.99532255411E-01 -0.76352848357E-01  0.12868792208E+00  0.18782575275E-01 0.  0.
         14    1    1    2    0    0 -0.58559342239E-02 -0.21585178429E-01  0.85213881594E-02  0.23933782602E-01  0.00000000000E+00 0.  1.
     999901    1    3    3    0    0  0.27566964501E-01  0.12111743384E+00  0.67831460198E-01  0.89130829532E+00  0.88000000000E+00 0. -1.
        -11    1    4    4    0    0 -0.22468650400E-01 -0.61875171912E-01 -0.45949114040E-01  0.80280504184E-01  0.51100000000E-03 0. -1.
         11    1    4    4    0    0  0.75762012285E-03 -0.37657083500E-01 -0.30403734317E-01  0.48407417896E-01  0.51100000000E-03 0.  1.
</event>
<event>
 8    1  0.1143506E+005  0.1043930E+01  0.7957747E-01            NaN
         13   -1    0    0    0    0  0.00000000000E+00  0.00000000000E+00  0.74505805969E-08  0.10566000000E+00  0.10566000000E+00 0. -1.
     999900   -1    0    0    0    0 -0.00000000000E+00 -0.00000000000E+00 -0.74505805969E-08  0.93827000000E+00  0.93827000000E+00 0. -1.
     999902    2    1    2    0    0  0.31579723701E-03 -0.21231053904E-01  0.84098481230E-02  0.10210918100E+01  0.10208363735E+01 0.  0.
     999903    2    3    3    0    0 -0.11335305499E+00 -0.48749116893E-01  0.46105961627E-01  0.13255433259E+00  0.14815529642E-01 0.  0.
         14    1    1    2    0    0 -0.31579723701E-03  0.21231053904E-01 -0.84098481230E-02  0.22838190017E-01  0.00000000000E+00 0.  1.
     999901    1    3    3    0    0  0.11366885222E+00  0.27518062989E-01 -0.37696113504E-01  0.88853747739E+00  0.88000000000E+00 0. -1.
        -11    1    4    4    0    0 -0.25719012270E-01 -0.47837249300E-02  0.79546787611E-02  0.27347571218E-01  0.51100000000E-03 0.  1.
         11    1    4    4    0    0 -0.87634042717E-01 -0.43965391963E-01  0.38151282866E-01  0.10520676137E+00  0.51100000000E-03 0. -1.
</event>
<event>
 8    1  0.1143506E+005  0.1043930E+01  0.7957747E-01            NaN
         13   -1    0    0    0    0  0.00000000000E+00  0.00000000000E+00  0.74505805969E-08  0.10566000000E+00  0.10566000000E+00 0.  1.
     999900   -1    0    0    0    0 -0.00000000000E+00 -0.00000000000E+00 -0.74505805969E-08  0.93827000000E+00  0.93827000000E+00 0. -1.
     999902    2    1    2    0    0  0.10719896358E-01  0.14500564114E-01 -0.15250492511E-01  0.10203130557E+01  0.10200396911E+01 0.  0.
     999903    2    3    3    0    0  0.45116296120E-01  0.56099796739E-01 -0.11055607165E+00  0.13352291032E+00  0.20568306519E-01 0.  0.
         14    1    1    2    0    0 -0.10719896358E-01 -0.14500564114E-01  0.15250492511E-01  0.23616944327E-01  0.00000000000E+00 0.  1.
     999901    1    3    3    0    0 -0.34396399763E-01 -0.41599232626E-01  0.95305579139E-01  0.88679014535E+00  0.88000000000E+00 0.  1.
        -11    1    4    4    0    0  0.11228006676E-01  0.72621967652E-02 -0.99832066732E-02  0.16695303898E-01  0.51100000000E-03 0.  1.
         11    1    4    4    0    0  0.33888289445E-01  0.48837599974E-01 -0.10057286498E+00  0.11682760643E+00  0.51100000000E-03 0. -1.
</event>
<event>
 8    1  0.1143506E+005  0.1043930E+01  0.7957747E-01            NaN
         13   -1    0    0    0    0  0.00000000000E+00  0.00000000000E+00  0.74505805969E-08  0.10566000000E+00  0.10566000000E+00 0.  1.
     999900   -1    0    0    0    0 -0.00000000000E+00 -0.00000000000E+00 -0.74505805969E-08  0.93827000000E+00  0.93827000000E+00 0. -1.
     999902    2    1    2    0    0  0.76458505758E-02  0.23372514738E-01  0.25824721932E-02  0.10192034426E+01  0.10189034571E+01 0.  0.
     999903    2    3    3    0    0 -0.10740977170E+00  0.67083195337E-01  0.23684659010E-01  0.13038753251E+00  0.20073151429E-01 0.  0.
         14    1    1    2    0    0 -0.76458505758E-02 -0.23372514738E-01 -0.25824721932E-02  0.24726557359E-01  0.00000000000E+00 0. -1.
     999901    1    3    3    0    0  0.11505562227E+00 -0.43710680600E-01 -0.21102186817E-01  0.88881591013E+00  0.88000000000E+00 0.  1.
        -11    1    4    4    0    0 -0.60253753657E-01  0.40205994914E-01  0.36571325866E-02  0.72530494252E-01  0.51100000000E-03 0.  1.
         11    1    4    4    0    0 -0.47156018042E-01  0.26877200423E-01  0.20027526423E-01  0.57857038257E-01  0.51100000000E-03 0. -1.
</event>
<event>
 8    1  0.1143506E+005  0.1043930E+01  0.7957747E-01            NaN
         13   -1    0    0    0    0  0.00000000000E+00  0.00000000000E+00  0.74505805969E-08  0.10566000000E+00  0.10566000000E+00 0. -1.
     999900   -1    0    0    0    0 -0.00000000000E+00 -0.00000000000E+00 -0.74505805969E-08  0.93827000000E+00  0.93827000000E+00 0.  1.
     999902    2    1    2    0    0 -0.13945455461E-02 -0.51800401980E-02  0.29047363140E-01  0.10143914340E+01  0.10139612688E+01 0.  0.
     999903    2    3    3    0    0  0.40627331401E-01  0.37672209097E-01  0.11398260843E+00  0.12826720499E+00  0.19765258817E-01 0.  0.
         14    1    1    2    0    0  0.13945455461E-02  0.51800401980E-02 -0.29047363140E-01  0.29538565962E-01  0.00000000000E+00 0.  1.
     999901    1    3    3    0    0 -0.42021876947E-01 -0.42852249295E-01 -0.84935245292E-01  0.88612422905E+00  0.88000000000E+00 0.  1.
        -11    1    4    4    0    0  0.44683262633E-02  0.11203475906E-01  0.12749839524E-01  0.17558568873E-01  0.51100000000E-03 0. -1.
         11    1    4    4    0    0  0.36159005138E-01  0.26468733191E-01  0.10123276891E+00  0.11070863612E+00  0.51100000000E-03 0.  1.
</event>
<event>
 8    1  0.1143506E+005  0.1043930E+01  0.7957747E-01            NaN
         13   -1    0    0    0    0  0.00000000000E+00  0.00000000000E+00  0.74505805969E-08  0.10566000000E+00  0.10566000000E+00 0.  1.
     999900   -1    0    0    0    0 -0.00000000000E+00 -0.00000000000E+00 -0.74505805969E-08  0.93827000000E+00  0.93827000000E+00 0. -1.
     999902    2    1    2    0    0 -0.12116059158E-01  0.18960050288E-01  0.89216741224E-02  0.10197250694E+01  0.10194377561E+01 0.  0.
     999903    2    3    3    0    0 -0.71916784011E-01 -0.91226569107E-01  0.54113147412E-01  0.12969165033E+00  0.19934410205E-01 0.  0.
         14    1    1    2    0    0  0.12116059158E-01 -0.18960050288E-01 -0.89216741224E-02  0.24204930605E-01  0.00000000000E+00 0. -1.
     999901    1    3    3    0    0  0.59800724852E-01  0.11018661939E+00 -0.45191473289E-01  0.89003341906E+00  0.88000000000E+00 0. -1.
        -11    1    4    4    0    0 -0.56551937225E-01 -0.61060946295E-01  0.45071166722E-01  0.94647936888E-01  0.51100000000E-03 0.  1.
         11    1    4    4    0    0 -0.15364846786E-01 -0.30165622811E-01  0.90419806895E-02  0.35043713447E-01  0.51100000000E-03 0. -1.
</event>
<event>
 8    1  0.1143506E+005  0.1043930E+01  0.7957747E-01            NaN
         13   -1    0    0    0    0  0.00000000000E+00  0.00000000000E+00  0.74505805969E-08  0.10566000000E+00  0.10566000000E+00 0. -1.
     999900   -1    0    0    0    0 -0.00000000000E+00 -0.00000000000E+00 -0.74505805969E-08  0.93827000000E+00  0.93827000000E+00 0. -1.
     999902    2    1    2    0    0  0.32730202713E-02 -0.62031915892E-02 -0.32352623981E-01  0.10108258533E+01  0.10102836341E+01 0.  0.
     999903    2    3    3    0    0 -0.30645143791E-01 -0.10825094677E+00 -0.48747100302E-01  0.12412806658E+00  0.19341789206E-01 0.  0.
         14    1    1    2    0    0 -0.32730202713E-02  0.62031915892E-02  0.32352623981E-01  0.33104146659E-01  0.00000000000E+00 0. -1.
     999901    1    3    3    0    0  0.33918164062E-01  0.10204775518E+00  0.16394476321E-01  0.88669778676E+00  0.88000000000E+00 0. -1.
        -11    1    4    4    0    0 -0.11339628544E-02 -0.31494062094E-01 -0.18237916534E-01  0.36414894472E-01  0.51100000000E-03 0. -1.
         11    1    4    4    0    0 -0.29511180937E-01 -0.76756884680E-01 -0.30509183768E-01  0.87713172108E-01  0.51100000000E-03 0.  1.
</event>
<event>
 8    1  0.1143506E+005  0.1043930E+01  0.7957747E-01            NaN
         13   -1    0    0    0    0  0.00000000000E+00  0.00000000000E+00  0.74505805969E-08  0.10566000000E+00  0.10566000000E+00 0.  1.
     999900   -1    0    0    0    0 -0.00000000000E+00 -0.00000000000E+00 -0.74505805969E-08  0.93827000000E+00  0.93827000000E+00 0. -1.
     999902    2    1    2    0    0 -0.89970089106E-02  0.21589253486E-01  0.13298865369E-02  0.10205032923E+01  0.10202343647E+01 0.  0.
     999903    2    3    3    0    0 -0.88488307613E-01 -0.27072285823E-01  0.90798246750E-01  0.13107010231E+00  0.19286286912E-01 0.  0.
         14    1    1    2    0    0  0.89970089106E-02 -0.21589253486E-01 -0.13298865369E-02  0.23426707699E-01  0.00000000000E+00 0.  1.
     999901    1    3    3    0    0  0.79491298702E-01  0.48661539310E-01 -0.89468360213E-01  0.88943318999E+00  0.88000000000E+00 0. -1.
        -11    1    4    4    0    0 -0.17034877203E-01  0.24297456093E-02  0.16046950688E-01  0.23534155018E-01  0.51100000000E-03 0. -1.
         11    1    4    4    0    0 -0.71453430410E-01 -0.29502031433E-01  0.74751296062E-01  0.10753594729E+00  0.51100000000E-03 0.  1.
</event>
<event>
 8    1  0.1147769E+005  0.1043930E+01  0.7957747E-01            NaN
         13   -1    0    0    0    0  0.00000000000E+00  0.00000000000E+00  0.74505805969E-08  0.10566000000E+00  0.10566000000E+00 0. -1.
     999900   -1    0    0    0    0 -0.00000000000E+00 -0.00000000000E+00 -0.74505805969E-08  0.93827000000E+00  0.93827000000E+00 0. -1.
     999902    2    1    2    0    0  0.17596308902E-01 -0.85669864327E-02 -0.52904636858E-02  0.10236565605E+01  0.10234557838E+01 0.  0.
     999903    2    3    3    0    0  0.17250561758E-01 -0.11271258597E+00 -0.69918349354E-01  0.13516165952E+00  0.19452241819E-01 0.  0.
         14    1    1    2    0    0 -0.17596308902E-01  0.85669864327E-02  0.52904636858E-02  0.20273439509E-01  0.00000000000E+00 0.  1.
     999901    1    3    3    0    0  0.34574714402E-03  0.10414559953E+00  0.64627885668E-01  0.88849490097E+00  0.88000000000E+00 0.  1.
        -11    1    4    4    0    0  0.15448175563E-01 -0.43434041713E-01 -0.32452263475E-01  0.56378831430E-01  0.51100000000E-03 0. -1.
         11    1    4    4    0    0  0.18023861951E-02 -0.69278544255E-01 -0.37466085879E-01  0.78782828092E-01  0.51100000000E-03 0.  1.
</event>
<event>
 8    1  0.1143506E+005  0.1043930E+01  0.7957747E-01            NaN
         13   -1    0    0    0    0  0.00000000000E+00  0.00000000000E+00  0.74505805969E-08  0.10566000000E+00  0.10566000000E+00 0. -1.
     999900   -1    0    0    0    0 -0.00000000000E+00 -0.00000000000E+00 -0.74505805969E-08  0.93827000000E+00  0.93827000000E+00 0. -1.
     999902    2    1    2    0    0 -0.18819511363E-01  0.14769028180E-01  0.72353029469E-02  0.10189370448E+01  0.10186304793E+01 0.  0.
     999903    2    3    3    0    0 -0.20913175754E-01 -0.58126203797E-03  0.12737187390E+00  0.13063934102E+00  0.20133166085E-01 0.  0.
         14    1    1    2    0    0  0.18819511363E-01 -0.14769028180E-01 -0.72353029469E-02  0.24992955208E-01  0.00000000000E+00 0.  1.
     999901    1    3    3    0    0  0.20936643910E-02  0.15350290218E-01 -0.12013657095E+00  0.88829770377E+00  0.88000000000E+00 0. -1.
        -11    1    4    4    0    0 -0.21809686112E-01  0.56271135440E-02  0.92507329891E-01  0.95211312457E-01  0.51100000000E-03 0.  1.
         11    1    4    4    0    0  0.89651035823E-03 -0.62083755819E-02  0.34864544009E-01  0.35428028567E-01  0.51100000000E-03 0. -1.
</event>
<event>
 8    1  0.1143506E+005  0.1043930E+01  0.7957747E-01            NaN
         13   -1    0    0    0    0  0.00000000000E+00  0.00000000000E+00  0.74505805969E-08  0.10566000000E+00  0.10566000000E+00 0.  1.
     999900   -1    0    0    0    0 -0.00000000000E+00 -0.00000000000E+00 -0.74505805969E-08  0.93827000000E+00  0.93827000000E+00 0. -1.
     999902    2    1    2    0    0 -0.73230935812E-02  0.25801309494E-02 -0.22383778092E-01  0.10202378431E+01  0.10199627142E+01 0.  0.
     999903    2    3    3    0    0 -0.10524170490E+00  0.58981914469E-01 -0.51811944024E-01  0.13252435750E+00  0.17987359537E-01 0.  0.
         14    1    1    2    0    0  0.73230935812E-02 -0.25801309494E-02  0.22383778092E-01  0.23692156867E-01  0.00000000000E+00 0. -1.
     999901    1    3    3    0    0  0.97918611316E-01 -0.56401783520E-01  0.29428165931E-01  0.88771348563E+00  0.88000000000E+00 0.  1.
        -11    1    4    4    0    0 -0.31721766426E-01  0.25320072574E-01 -0.23180499854E-01  0.46743697274E-01  0.51100000000E-03 0.  1.
         11    1    4    4    0    0 -0.73519938471E-01  0.33661841895E-01 -0.28631444169E-01  0.85780660226E-01  0.51100000000E-03 0. -1.
</event>
<event>
 8    1  0.1143506E+005  0.1043930E+01  0.7957747E-01            NaN
         13   -1    0    0    0    0  0.00000000000E+00  0.00000000000E+00  0.74505805969E-08  0.10566000000E+00  0.10566000000E+00 0.  1.
     999900   -1    0    0    0    0 -0.00000000000E+00 -0.00000000000E+00 -0.74505805969E-08  0.93827000000E+00  0.93827000000E+00 0.  1.
     999902    2    1    2    0    0 -0.71616991365E-02  0.23888959013E-02 -0.26511879056E-01  0.10163641427E+01  0.10159902529E+01 0.  0.
     999903    2    3    3    0    0 -0.10436345254E+00  0.60928651957E-01 -0.32010451092E-01  0.12906187277E+00  0.32066605223E-01 0.  0.
         14    1    1    2    0    0  0.71616991365E-02 -0.23888959013E-02  0.26511879056E-01  0.27565857310E-01  0.00000000000E+00 0.  1.
     999901    1    3    3    0    0  0.97201753399E-01 -0.58539756056E-01  0.54985720359E-02  0.88730226992E+00  0.88000000000E+00 0.  1.
        -11    1    4    4    0    0 -0.68263554922E-01  0.34978430727E-01 -0.35381884600E-01  0.84472139937E-01  0.51100000000E-03 0. -1.
         11    1    4    4    0    0 -0.36099897614E-01  0.25950221230E-01  0.33714335087E-02  0.44589732837E-01  0.51100000000E-03 0.  1.
</event>
<event>
 8    1  0.1143506E+005  0.1043930E+01  0.7957747E-01            NaN
         13   -1    0    0    0    0  0.00000000000E+00  0.00000000000E+00  0.74505805969E-08  0.10566000000E+00  0.10566000000E+00 0. -1.
     999900   -1    0    0    0    0 -0.00000000000E+00 -0.00000000000E+00 -0.74505805969E-08  0.93827000000E+00  0.93827000000E+00 0. -1.
     999902    2    1    2    0    0  0.21729998583E-01  0.28966905982E-02 -0.92499194862E-02  0.10201362053E+01  0.10198586827E+01 0.  0.
     999903    2    3    3    0    0  0.28100746044E-01 -0.91159131585E-01  0.86116825605E-01  0.12997784852E+00  0.19454928789E-01 0.  0.
         14    1    1    2    0    0 -0.21729998583E-01 -0.28966905982E-02  0.92499194862E-02  0.23793794681E-01  0.00000000000E+00 0. -1.
     999901    1    3    3    0    0 -0.63707474614E-02  0.94055822183E-01 -0.95366745091E-01  0.89015835680E+00  0.88000000000E+00 0. -1.
        -11    1    4    4    0    0  0.15406010039E-01 -0.76117485358E-01  0.69160015537E-01  0.10399319974E+00  0.51100000000E-03 0.  1.
         11    1    4    4    0    0  0.12694736005E-01 -0.15041646227E-01  0.16956810068E-01  0.25984648778E-01  0.51100000000E-03 0. -1.
</event>
<event>
 8    1  0.1143506E+005  0.1043930E+01  0.7957747E-01            NaN
         13   -1    0    0    0    0  0.00000000000E+00  0.00000000000E+00  0.74505805969E-08  0.10566000000E+00  0.10566000000E+00 0.  1.
     999900   -1    0    0    0    0 -0.00000000000E+00 -0.00000000000E+00 -0.74505805969E-08  0.93827000000E+00  0.93827000000E+00 0.  1.
     999902    2    1    2    0    0 -0.23706072121E-01  0.19963396895E-02 -0.43951802716E-02  0.10197374219E+01  0.10194504052E+01 0.  0.
     999903    2    3    3    0    0  0.62438906121E-01 -0.10775693133E+00  0.23717510710E-01  0.12830202814E+00  0.19715903819E-01 0.  0.
         14    1    1    2    0    0  0.23706072121E-01 -0.19963396895E-02  0.43951802716E-02  0.24192578142E-01  0.00000000000E+00 0.  1.
     999901    1    3    3    0    0 -0.86144978242E-01  0.10975327102E+00 -0.28112690982E-01  0.89143539372E+00  0.88000000000E+00 0.  1.
        -11    1    4    4    0    0  0.34162656427E-01 -0.51151292552E-01  0.20885105068E-01  0.64961454407E-01  0.51100000000E-03 0. -1.
         11    1    4    4    0    0  0.28276249694E-01 -0.56605638779E-01  0.28324056420E-02  0.63340573735E-01  0.51100000000E-03 0.  1.
</event>
<event>
 8    1  0.1143506E+005  0.1043930E+01  0.7957747E-01            NaN
         13   -1    0    0    0    0  0.00000000000E+00  0.00000000000E+00  0.74505805969E-08  0.10566000000E+00  0.10566000000E+00 0.  1.
     999900   -1    0    0    0    0 -0.00000000000E+00 -0.00000000000E+00 -0.74505805969E-08  0.93827000000E+00  0.93827000000E+00 0. -1.
     999902    2    1    2    0    0 -0.12055947034E-01 -0.14851243519E-01 -0.13208610511E-01  0.10206840824E+01  0.10204193370E+01 0.  0.
     999903    2    3    3    0    0 -0.12085873128E+00 -0.51871486209E-01 -0.43871664971E-03  0.13311909075E+00  0.20567348921E-01 0.  0.
         14    1    1    2    0    0  0.12055947034E-01  0.14851243519E-01  0.13208610511E-01  0.23245917589E-01  0.00000000000E+00 0.  1.
     999901    1    3    3    0    0  0.10880278425E+00  0.37020242690E-01 -0.12769893861E-01  0.88756499166E+00  0.88000000000E+00 0. -1.
        -11    1    4    4    0    0 -0.59842630781E-01 -0.36236305491E-01 -0.35722254848E-02  0.70051639598E-01  0.51100000000E-03 0.  1.
         11    1    4    4    0    0 -0.61016100501E-01 -0.15635180718E-01  0.31335088351E-02  0.63067451154E-01  0.51100000000E-03 0. -1.
</event>
<event>
 8    1  0.1143506E+005  0.1043930E+01  0.7957747E-01            NaN
         13   -1    0    0    0    0  0.00000000000E+00  0.00000000000E+00  0.74505805969E-08  0.10566000000E+00  0.10566000000E+00 0. -1.
     999900   -1    0    0    0    0 -0.00000000000E+00 -0.00000000000E+00 -0.74505805969E-08  0.93827000000E+00  0.93827000000E+00 0.  1.
     999902    2    1    2    0    0  0.19840355973E-01  0.98498962869E-02 -0.71871027864E-02  0.10206423503E+01  0.10203766425E+01 0.  0.
     999903    2    3    3    0    0  0.83228959898E-02 -0.78250479489E-01  0.10118726036E+00  0.12955350474E+00  0.18784056876E-01 0.  0.
         14    1    1    2    0    0 -0.19840355973E-01 -0.98498962869E-02  0.71871027864E-02  0.23287649698E-01  0.00000000000E+00 0.  1.
     999901    1    3    3    0    0  0.11517459983E-01  0.88100375776E-01 -0.10837436315E+00  0.89108884556E+00  0.88000000000E+00 0.  1.
        -11    1    4    4    0    0 -0.51765989700E-02 -0.20578588685E-01  0.32937805884E-01  0.39184635594E-01  0.51100000000E-03 0. -1.
         11    1    4    4    0    0  0.13499494960E-01 -0.57671890804E-01  0.68249454479E-01  0.90368869147E-01  0.51100000000E-03 0.  1.
</event>
<event>
 8    1  0.1143506E+005  0.1043930E+01  0.7957747E-01            NaN
         13   -1    0    0    0    0  0.00000000000E+00  0.00000000000E+00  0.74505805969E-08  0.10566000000E+00  0.10566000000E+00 0.  1.
     999900   -1    0    0    0    0 -0.00000000000E+00 -0.00000000000E+00 -0.74505805969E-08  0.93827000000E+00  0.93827000000E+00 0. -1.
     999902    2    1    2    0    0 -0.81176862147E-02  0.15408672112E-01 -0.11972068963E-01  0.10227957993E+01  0.10225774262E+01 0.  0.
     999903    2    3    3    0    0 -0.23942195092E-01 -0.25678530769E-01 -0.12793039794E+00  0.13409736482E+00  0.19578071515E-01 0.  0.
         14    1    1    2    0    0  0.81176862147E-02 -0.15408672112E-01  0.11972068963E-01  0.21134200742E-01  0.00000000000E+00 0.  1.
     999901    1    3    3    0    0  0.15824508877E-01  0.41087202881E-01  0.11595832898E+00  0.88869843444E+00  0.88000000000E+00 0.  1.
        -11    1    4    4    0    0 -0.44476784300E-02 -0.18585131262E-01 -0.52812945677E-01  0.56166335998E-01  0.51100000000E-03 0. -1.
         11    1    4    4    0    0 -0.19494516662E-01 -0.70933995070E-02 -0.75117452266E-01  0.77931028817E-01  0.51100000000E-03 0.  1.
</event>
<event>
 8    1  0.1143506E+005  0.1043930E+01  0.7957747E-01            NaN
         13   -1    0    0    0    0  0.00000000000E+00  0.00000000000E+00  0.74505805969E-08  0.10566000000E+00  0.10566000000E+00 0.  1.
     999900   -1    0    0    0    0 -0.00000000000E+00 -0.00000000000E+00 -0.74505805969E-08  0.93827000000E+00  0.93827000000E+00 0. -1.
     999902    2    1    2    0    0  0.22817447100E-01 -0.81248862936E-03  0.19812494835E-02  0.10210122911E+01  0.10207550525E+01 0.  0.
     999903    2    3    3    0    0  0.11056516270E+00 -0.10848141247E-01 -0.71344033984E-01  0.13355695530E+00  0.20128381743E-01 0.  0.
         14    1    1    2    0    0 -0.22817447100E-01  0.81248862936E-03 -0.19812494835E-02  0.22917708861E-01  0.00000000000E+00 0. -1.
     999901    1    3    3    0    0 -0.87747715601E-01  0.10035652618E-01  0.73325283468E-01  0.88745533584E+00  0.88000000000E+00 0.  1.
        -11    1    4    4    0    0  0.20931217732E-01 -0.65992594363E-02 -0.22303235322E-01  0.31294752399E-01  0.51100000000E-03 0.  1.
         11    1    4    4    0    0  0.89633944969E-01 -0.42488818108E-02 -0.49040798662E-01  0.10226220290E+00  0.51100000000E-03 0. -1.
</event>
<event>
 8    1  0.1143506E+005  0.1043930E+01  0.7957747E-01            NaN
         13   -1    0    0    0    0  0.00000000000E+00  0.00000000000E+00  0.74505805969E-08  0.10566000000E+00  0.10566000000E+00 0.  1.
     999900   -1    0    0    0    0 -0.00000000000E+00 -0.00000000000E+00 -0.74505805969E-08  0.93827000000E+00  0.93827000000E+00 0.  1.
     999902    2    1    2    0    0 -0.60923590266E-02 -0.67340806340E-03  0.22176274834E-01  0.10209222300E+01  0.10206629425E+01 0.  0.
     999903    2    3    3    0    0  0.88895059935E-01 -0.32890943856E-01  0.90508724775E-01  0.13259239083E+00  0.20118821432E-01 0.  0.
         14    1    1    2    0    0  0.60923590266E-02  0.67340806340E-03 -0.22176274834E-01  0.23007770045E-01  0.00000000000E+00 0. -1.
     999901    1    3    3    0    0 -0.94987418962E-01  0.32217535792E-01 -0.68332449942E-01  0.88832983913E+00  0.88000000000E+00 0.  1.
        -11    1    4    4    0    0  0.40617874381E-01 -0.10694894230E-01  0.52620852737E-01  0.67330585513E-01  0.51100000000E-03 0.  1.
         11    1    4    4    0    0  0.48277185554E-01 -0.22196049625E-01  0.37887872039E-01  0.65261805312E-01  0.51100000000E-03 0. -1.
</event>
<event>
 8    1  0.1143506E+005  0.1043930E+01  0.7957747E-01            NaN
         13   -1    0    0    0    0  0.00000000000E+00  0.00000000000E+00  0.74505805969E-08  0.10566000000E+00  0.10566000000E+00 0.  1.
     999900   -1    0    0    0    0 -0.00000000000E+00 -0.00000000000E+00 -0.74505805969E-08  0.93827000000E+00  0.93827000000E+00 0.  1.
     999902    2    1    2    0    0  0.50769014568E-02  0.16520835987E-01  0.14217864504E-01  0.10215500844E+01  0.10213049076E+01 0.  0.
     999903    2    3    3    0    0  0.74062759952E-01 -0.10003285094E+00 -0.31651431955E-01  0.13000771136E+00  0.20207132134E-01 0.  0.
         14    1    1    2    0    0 -0.50769014568E-02 -0.16520835987E-01 -0.14217864504E-01  0.22379915575E-01  0.00000000000E+00 0. -1.
     999901    1    3    3    0    0 -0.68985858495E-01  0.11655368693E+00  0.45869296459E-01  0.89154237306E+00  0.88000000000E+00 0. -1.
        -11    1    4    4    0    0  0.15293841531E-01 -0.24127127348E-01 -0.15987527518E-01  0.32739609344E-01  0.51100000000E-03 0. -1.
         11    1    4    4    0    0  0.58768918421E-01 -0.75905723596E-01 -0.15663904437E-01  0.97268102018E-01  0.51100000000E-03 0.  1.
</event>
<event>
 8    1  0.1143506E+005  0.1043930E+01  0.7957747E-01            NaN
         13   -1    0    0    0    0  0.00000000000E+00  0.00000000000E+00  0.74505805969E-08  0.10566000000E+00  0.10566000000E+00 0.  1.
     999900   -1    0    0    0    0 -0.00000000000E+00 -0.00000000000E+00 -0.74505805969E-08  0.93827000000E+00  0.93827000000E+00 0.  1.
     999902    2    1    2    0    0 -0.17952761695E-01  0.15452577328E-01  0.17907819731E-02  0.10201751963E+01  0.10198985932E+01 0.  0.
     999903    2    3    3    0    0  0.38642883927E-01 -0.12021972664E+00  0.47597223080E-02  0.12797630829E+00  0.20229319734E-01 0.  0.
         14    1    1    2    0    0  0.17952761695E-01 -0.15452577328E-01 -0.17907819731E-02  0.23754803696E-01  0.00000000000E+00 0. -1.
     999901    1    3    3    0    0 -0.56595645622E-01  0.13567230396E+00 -0.29689403348E-02  0.89219888801E+00  0.88000000000E+00 0.  1.
        -11    1    4    4    0    0  0.78672641182E-02 -0.48112885543E-01 -0.48176798014E-02  0.48991986688E-01  0.51100000000E-03 0. -1.
         11    1    4    4    0    0  0.30775619808E-01 -0.72106841092E-01  0.95774021093E-02  0.78984321602E-01  0.51100000000E-03 0.  1.
</event>
<event>
 8    1  0.1143506E+005  0.1043930E+01  0.7957747E-01            NaN
         13   -1    0    0    0    0  0.00000000000E+00  0.00000000000E+00  0.74505805969E-08  0.10566000000E+00  0.10566000000E+00 0.  1.
     999900   -1    0    0    0    0 -0.00000000000E+00 -0.00000000000E+00 -0.74505805969E-08  0.93827000000E+00  0.93827000000E+00 0.  1.
     999902    2    1    2    0    0 -0.15652034346E-02  0.16458905807E-01  0.14535028030E-01  0.10219160844E+01  0.10216789471E+01 0.  0.
     999903    2    3    3    0    0 -0.35179268759E-03  0.96075607458E-01 -0.88772984128E-01  0.13230221479E+00  0.19813813887E-01 0.  0.
         14    1    1    2    0    0  0.15652034346E-02 -0.16458905807E-01 -0.14535028030E-01  0.22013915644E-01  0.00000000000E+00 0. -1.
     999901    1    3    3    0    0 -0.12134107470E-02 -0.79616701651E-01  0.10330801216E+00  0.88961386957E+00  0.88000000000E+00 0. -1.
        -11    1    4    4    0    0 -0.46697935174E-03  0.13847176653E-01 -0.23623845664E-01  0.27391779350E-01  0.51100000000E-03 0. -1.
         11    1    4    4    0    0  0.11518666415E-03  0.82228430806E-01 -0.65149138463E-01  0.10491043544E+00  0.51100000000E-03 0.  1.
</event>
<event>
 8    1  0.1143506E+005  0.1043930E+01  0.7957747E-01            NaN
         13   -1    0    0    0    0  0.00000000000E+00  0.00000000000E+00  0.74505805969E-08  0.10566000000E+00  0.10566000000E+00 0. -1.
     999900   -1    0    0    0    0 -0.00000000000E+00 -0.00000000000E+00 -0.74505805969E-08  0.93827000000E+00  0.93827000000E+00 0.  1.
     999902    2    1    2    0    0  0.80903725011E-02  0.20548461524E-01 -0.90588270877E-02  0.10200604431E+01  0.10197811294E+01 0.  0.
     999903    2    3    3    0    0  0.35857879228E-02  0.84619688658E-01 -0.10050015787E+00  0.13299396848E+00  0.20341198000E-01 0.  0.
         14    1    1    2    0    0 -0.80903725011E-02 -0.20548461524E-01  0.90588270877E-02  0.23869556896E-01  0.00000000000E+00 0. -1.
     999901    1    3    3    0    0  0.45045845783E-02 -0.64071227134E-01  0.91441330782E-01  0.88706647463E+00  0.88000000000E+00 0. -1.
        -11    1    4    4    0    0  0.90280901077E-02  0.20497067296E-01 -0.20956569676E-01  0.30676947571E-01  0.51100000000E-03 0.  1.
         11    1    4    4    0    0 -0.54423021849E-02  0.64122621362E-01 -0.79543588195E-01  0.10231702091E+00  0.51100000000E-03 0. -1.
</event>
<event>
 8    1  0.1143506E+005  0.1043930E+01  0.7957747E-01            NaN
         13   -1    0    0    0    0  0.00000000000E+00  0.00000000000E+00  0.74505805969E-08  0.10566000000E+00  0.10566000000E+00 0.  1.
     999900   -1    0    0    0    0 -0.00000000000E+00 -0.00000000000E+00 -0.74505805969E-08  0.93827000000E+00  0.93827000000E+00 0.  1.
     999902    2    1    2    0    0  0.22492636455E-01 -0.71878901427E-02 -0.24335961323E-02  0.10201917008E+01  0.10199154865E+01 0.  0.
     999903    2    3    3    0    0 -0.76531333019E-01 -0.98776367990E-01 -0.28585895633E-01  0.12953007111E+00  0.18629817128E-01 0.  0.
         14    1    1    2    0    0 -0.22492636455E-01  0.71878901427E-02  0.24335961323E-02  0.23738299213E-01  0.00000000000E+00 0. -1.
     999901    1    3    3    0    0  0.99023969474E-01  0.91588477847E-01  0.26152299501E-01  0.89066162967E+00  0.88000000000E+00 0. -1.
        -11    1    4    4    0    0 -0.25778077405E-01 -0.48318384001E-01 -0.12375156975E-01  0.56147850701E-01  0.51100000000E-03 0.  1.
         11    1    4    4    0    0 -0.50753255615E-01 -0.50457983989E-01 -0.16210738658E-01  0.73382220412E-01  0.51100000000E-03 0. -1.
</event>
<event>
 8    1  0.1143506E+005  0.1043930E+01  0.7957747E-01            NaN
         13   -1    0    0    0    0  0.00000000000E+00  0.00000000000E+00  0.74505805969E-08  0.10566000000E+00  0.10566000000E+00 0. -1.
     999900   -1    0    0    0    0 -0.00000000000E+00 -0.00000000000E+00 -0.74505805969E-08  0.93827000000E+00  0.93827000000E+00 0. -1.
     999902    2    1    2    0    0  0.87264642690E-02 -0.20537003739E-01  0.73893229106E-02  0.10204242179E+01  0.10201534505E+01 0.  0.
     999903    2    3    3    0    0  0.10578479972E-01 -0.11689865469E+00  0.60465219521E-01  0.13357245542E+00  0.20207878855E-01 0.  0.
         14    1    1    2    0    0 -0.87264642690E-02  0.20537003739E-01 -0.73893229106E-02  0.23505782146E-01  0.00000000000E+00 0.  1.
     999901    1    3    3    0    0 -0.18520157026E-02  0.96361650951E-01 -0.53075896610E-01  0.88685176244E+00  0.88000000000E+00 0. -1.
        -11    1    4    4    0    0  0.14213510538E-01 -0.47743732259E-01  0.23733149464E-01  0.55181621545E-01  0.51100000000E-03 0. -1.
         11    1    4    4    0    0 -0.36350305667E-02 -0.69154922430E-01  0.36732070057E-01  0.78390833872E-01  0.51100000000E-03 0.  1.
</event>
<event>
 8    1  0.1143506E+005  0.1043930E+01  0.7957747E-01            NaN
         13   -1    0    0    0    0  0.00000000000E+00  0.00000000000E+00  0.74505805969E-08  0.10566000000E+00  0.10566000000E+00 0. -1.
     999900   -1    0    0    0    0 -0.00000000000E+00 -0.00000000000E+00 -0.74505805969E-08  0.93827000000E+00  0.93827000000E+00 0. -1.
     999902    2    1    2    0    0  0.13501077614E-01  0.18533834773E-01 -0.90691888721E-02  0.10192716887E+01  0.10189733770E+01 0.  0.
     999903    2    3    3    0    0  0.82156568387E-01  0.16296586981E-01 -0.99990434232E-01  0.13192437535E+00  0.19765459721E-01 0.  0.
         14    1    1    2    0    0 -0.13501077614E-01 -0.18533834773E-01  0.90691888721E-02  0.24658311275E-01  0.00000000000E+00 0. -1.
     999901    1    3    3    0    0 -0.68655490773E-01  0.22372477916E-02  0.90921245360E-01  0.88734731337E+00  0.88000000000E+00 0.  1.
        -11    1    4    4    0    0  0.38455128591E-01  0.15197514735E-01 -0.58595237738E-01  0.71717671293E-01  0.51100000000E-03 0. -1.
         11    1    4    4    0    0  0.43701439796E-01  0.10990722467E-02 -0.41395196494E-01  0.60206704060E-01  0.51100000000E-03 0.  1.
</event>
<event>
 8    1  0.1143506E+005  0.1043930E+01  0.7957747E-01            NaN
         13   -1    0    0    0    0  0.00000000000E+00  0.00000000000E+00  0.74505805969E-08  0.10566000000E+00  0.10566000000E+00 0. -1.
     999900   -1    0    0    0    0 -0.00000000000E+00 -0.00000000000E+00 -0.74505805969E-08  0.93827000000E+00  0.93827000000E+00 0. -1.
     999902    2    1    2    0    0 -0.33006934367E-02  0.13425647117E-01  0.19140749139E-01  0.10203183322E+01  0.10200450913E+01 0.  0.
     999903    2    3    3    0    0 -0.42811352775E-01 -0.12006119385E+00  0.93094868986E-02  0.12932086722E+00  0.19741275505E-01 0.  0.
         14    1    1    2    0    0  0.33006934367E-02 -0.13425647117E-01 -0.19140749139E-01  0.23611667779E-01  0.00000000000E+00 0.  1.
     999901    1    3    3    0    0  0.39510659338E-01  0.13348684097E+00  0.98312622409E-02  0.89099746500E+00  0.88000000000E+00 0. -1.
        -11    1    4    4    0    0 -0.35853330632E-01 -0.79663157553E-01  0.37141019166E-03  0.87361771132E-01  0.51100000000E-03 0. -1.
         11    1    4    4    0    0 -0.69580221422E-02 -0.40398036296E-01  0.89380767069E-02  0.41959096093E-01  0.51100000000E-03 0.  1.
</event>
<event>
 8    1  0.1143506E+005  0.1043930E+01  0.7957747E-01            NaN
         13   -1    0    0    0    0  0.00000000000E+00  0.00000000000E+00  0.74505805969E-08  0.10566000000E+00  0.10566000000E+00 0. -1.
     999900   -1    0    0    0    0 -0.00000000000E+00 -0.00000000000E+00 -0.74505805969E-08  0.93827000000E+00  0.93827000000E+00 0.  1.
     999902    2    1    2    0    0  0.14216962342E-01 -0.16159609058E-01  0.85407904385E-02  0.10207740054E+01  0.10205113278E+01 0.  0.
     999903    2    3    3    0    0  0.95225291211E-02  0.11928025360E+00  0.46288393429E-01  0.12960013035E+00  0.18306309313E-01 0.  0.
         14    1    1    2    0    0 -0.14216962342E-01  0.16159609058E-01 -0.85407904385E-02  0.23155994568E-01  0.00000000000E+00 0.  1.
     999901    1    3    3    0    0  0.46944332206E-02 -0.13543986266E+00 -0.37747602990E-01  0.89117387508E+00  0.88000000000E+00 0.  1.
        -11    1    4    4    0    0 -0.22936878986E-02  0.41063418115E-01  0.88030863487E-02  0.42062106007E-01  0.51100000000E-03 0.  1.
         11    1    4    4    0    0  0.11816217020E-01  0.78216835484E-01  0.37485307080E-01  0.87538024342E-01  0.51100000000E-03 0. -1.
</event>
<event>
 8    1  0.1143506E+005  0.1043930E+01  0.7957747E-01            NaN
         13   -1    0    0    0    0  0.00000000000E+00  0.00000000000E+00  0.74505805969E-08  0.10566000000E+00  0.10566000000E+00 0. -1.
     999900   -1    0    0    0    0 -0.00000000000E+00 -0.00000000000E+00 -0.74505805969E-08  0.93827000000E+00  0.93827000000E+00 0. -1.
     999902    2    1    2    0    0  0.94846855578E-03 -0.73760793276E-02  0.23040250860E-01  0.10197192731E+01  0.10194318205E+01 0.  0.
     999903    2    3    3    0    0 -0.70550405902E-01 -0.10424965715E+00 -0.27292338053E-01  0.13009578606E+00  0.18294563304E-01 0.  0.
         14    1    1    2    0    0 -0.94846855578E-03  0.73760793276E-02 -0.23040250860E-01  0.24210726931E-01  0.00000000000E+00 0.  1.
     999901    1    3    3    0    0  0.71498874458E-01  0.96873577819E-01  0.50332588913E-01  0.88962348701E+00  0.88000000000E+00 0.  1.
        -11    1    4    4    0    0 -0.11220312261E-01 -0.75198282954E-02 -0.52349593825E-02  0.14495142137E-01  0.51100000000E-03 0. -1.
         11    1    4    4    0    0 -0.59330093641E-01 -0.96729828851E-01 -0.22057378671E-01  0.11560064392E+00  0.51100000000E-03 0.  1.
</event>
<event>
 8    1  0.1143506E+005  0.1043930E+01  0.7957747E-01            NaN
         13   -1    0    0    0    0  0.00000000000E+00  0.00000000000E+00  0.74505805969E-08  0.10566000000E+00  0.10566000000E+00 0. -1.
     999900   -1    0    0    0    0 -0.00000000000E+00 -0.00000000000E+00 -0.74505805969E-08  0.93827000000E+00  0.93827000000E+00 0.  1.
     999902    2    1    2    0    0 -0.14862602589E-01  0.16056074614E-01 -0.10108229143E-01  0.10198287390E+01  0.10195439108E+01 0.  0.
     999903    2    3    3    0    0 -0.11022023103E+00  0.71056879556E-01 -0.93548887742E-02  0.13296982494E+00  0.19896757018E-01 0.  0.
         14    1    1    2    0    0  0.14862602589E-01 -0.16056074614E-01  0.10108229143E-01  0.24101261049E-01  0.00000000000E+00 0.  1.
     999901    1    3    3    0    0  0.95357628437E-01 -0.55000804942E-01 -0.75334036888E-03  0.88685891401E+00  0.88000000000E+00 0.  1.
        -11    1    4    4    0    0 -0.21177842272E-01  0.19413037940E-01  0.45733639755E-02  0.29095426177E-01  0.51100000000E-03 0.  1.
         11    1    4    4    0    0 -0.89042388755E-01  0.51643841616E-01 -0.13928252750E-01  0.10387439876E+00  0.51100000000E-03 0. -1.
</event>
<event>
 8    1  0.1143506E+005  0.1043930E+01  0.7957747E-01            NaN
         13   -1    0    0    0    0  0.00000000000E+00  0.00000000000E+00  0.74505805969E-08  0.10566000000E+00  0.10566000000E+00 0. -1.
     999900   -1    0    0    0    0 -0.00000000000E+00 -0.00000000000E+00 -0.74505805969E-08  0.93827000000E+00  0.93827000000E+00 0. -1.
     999902    2    1    2    0    0 -0.14402626447E-02  0.14155396406E-01  0.13145107957E-01  0.10245587980E+01  0.10243756572E+01 0.  0.
     999903    2    3    3    0    0 -0.87465166349E-01 -0.18582011901E-01 -0.96441458450E-01  0.13299767418E+00  0.19798483245E-01 0.  0.
         14    1    1    2    0    0  0.14402626447E-02 -0.14155396406E-01 -0.13145107957E-01  0.19371202004E-01  0.00000000000E+00 0.  1.
     999901    1    3    3    0    0  0.86024903705E-01  0.32737408307E-01  0.10958656641E+00  0.89156112381E+00  0.88000000000E+00 0. -1.
        -11    1    4    4    0    0 -0.65109726713E-01 -0.15708548254E-01 -0.83348422208E-01  0.10692640276E+00  0.51100000000E-03 0. -1.
         11    1    4    4    0    0 -0.22355439636E-01 -0.28734636469E-02 -0.13093036243E-01  0.26071271425E-01  0.51100000000E-03 0.  1.
</event>
<event>
 8    1  0.1143506E+005  0.1043930E+01  0.7957747E-01            NaN
         13   -1    0    0    0    0  0.00000000000E+00  0.00000000000E+00  0.74505805969E-08  0.10566000000E+00  0.10566000000E+00 0. -1.
     999900   -1    0    0    0    0 -0.00000000000E+00 -0.00000000000E+00 -0.74505805969E-08  0.93827000000E+00  0.93827000000E+00 0. -1.
     999902    2    1    2    0    0 -0.42393102960E-02  0.10441069993E-02 -0.22955968195E-01  0.10205625357E+01  0.10202949823E+01 0.  0.
     999903    2    3    3    0    0  0.14094650817E-01  0.94427418386E-01 -0.90295745501E-01  0.13287383883E+00  0.19670761683E-01 0.  0.
         14    1    1    2    0    0  0.42393102960E-02 -0.10441069993E-02  0.22955968195E-01  0.23367464282E-01  0.00000000000E+00 0. -1.
     999901    1    3    3    0    0 -0.18333961113E-01 -0.93383311386E-01  0.67339777306E-01  0.88768869689E+00  0.88000000000E+00 0.  1.
        -11    1    4    4    0    0  0.68550565131E-04  0.10300609623E-01 -0.28013827275E-02  0.10687194392E-01  0.51100000000E-03 0. -1.
         11    1    4    4    0    0  0.14026100251E-01  0.84126808763E-01 -0.87494362773E-01  0.12218664444E+00  0.51100000000E-03 0.  1.
</event>
<event>
 8    1  0.1143506E+005  0.1043930E+01  0.7957747E-01            NaN
         13   -1    0    0    0    0  0.00000000000E+00  0.00000000000E+00  0.74505805969E-08  0.10566000000E+00  0.10566000000E+00 0.  1.
     999900   -1    0    0    0    0 -0.00000000000E+00 -0.00000000000E+00 -0.74505805969E-08  0.93827000000E+00  0.93827000000E+00 0. -1.
     999902    2    1    2    0    0 -0.19312876256E-01  0.66351761541E-02  0.14954145871E-01  0.10186191480E+01  0.10183046349E+01 0.  0.
     999903    2    3    3    0    0 -0.66261015419E-01 -0.61476600573E-01  0.93078426509E-01  0.13129353404E+00  0.20112285249E-01 0.  0.
         14    1    1    2    0    0  0.19312876256E-01 -0.66351761541E-02 -0.14954145871E-01  0.25310852033E-01  0.00000000000E+00 0. -1.
     999901    1    3    3    0    0  0.46948139162E-01  0.68111776727E-01 -0.78124280638E-01  0.88732561392E+00  0.88000000000E+00 0. -1.
        -11    1    4    4    0    0 -0.50009609513E-01 -0.37355076689E-01  0.72445379681E-01  0.95629268303E-01  0.51100000000E-03 0. -1.
         11    1    4    4    0    0 -0.16251405906E-01 -0.24121523884E-01  0.20633046828E-01  0.35664265740E-01  0.51100000000E-03 0.  1.
</event>
<event>
 8    1  0.1143506E+005  0.1043930E+01  0.7957747E-01            NaN
         13   -1    0    0    0    0  0.00000000000E+00  0.00000000000E+00  0.74505805969E-08  0.10566000000E+00  0.10566000000E+00 0. -1.
     999900   -1    0    0    0    0 -0.00000000000E+00 -0.00000000000E+00 -0.74505805969E-08  0.93827000000E+00  0.93827000000E+00 0.  1.
     999902    2    1    2    0    0 -0.86067626626E-02  0.21521484339E-01  0.43220053286E-02  0.10203518240E+01  0.10200793667E+01 0.  0.
     999903    2    3    3    0    0 -0.91980414276E-01 -0.41812557605E-01  0.80603018039E-01  0.13086817632E+00  0.20516980121E-01 0.  0.
         14    1    1    2    0    0  0.86067626626E-02 -0.21521484339E-01 -0.43220053286E-02  0.23578175963E-01  0.00000000000E+00 0.  1.
     999901    1    3    3    0    0  0.83373651613E-01  0.63334041943E-01 -0.76281012710E-01  0.88948364771E+00  0.88000000000E+00 0.  1.
        -11    1    4    4    0    0 -0.98226957562E-02 -0.33363144919E-02  0.17526226521E-01  0.20372679828E-01  0.51100000000E-03 0. -1.
         11    1    4    4    0    0 -0.82157718519E-01 -0.38476243113E-01  0.63076791517E-01  0.11049549649E+00  0.51100000000E-03 0.  1.
</event>
<event>
 8    1  0.1143506E+005  0.1043930E+01  0.7957747E-01            NaN
         13   -1    0    0    0    0  0.00000000000E+00  0.00000000000E+00  0.74505805969E-08  0.10566000000E+00  0.10566000000E+00 0. -1.
     999900   -1    0    0    0    0 -0.00000000000E+00 -0.00000000000E+00 -0.74505805969E-08  0.93827000000E+00  0.93827000000E+00 0. -1.
     999902    2    1    2    0    0 -0.94209350981E-02  0.16902670679E-01  0.10289343442E-01  0.10220136846E+01  0.10217786681E+01 0.  0.
     999903    2    3    3    0    0  0.22961604746E-01  0.50029285632E-01 -0.11786721131E+00  0.13152499623E+00  0.19390214542E-01 0.  0.
         14    1    1    2    0    0  0.94209350981E-02 -0.16902670679E-01 -0.10289343442E-01  0.21916315444E-01  0.00000000000E+00 0.  1.
     999901    1    3    3    0    0 -0.32382539844E-01 -0.33126614953E-01  0.12815655475E+00  0.89048868832E+00  0.88000000000E+00 0.  1.
        -11    1    4    4    0    0  0.12589499483E-01  0.15352138677E-01 -0.25527043652E-01  0.32343078669E-01  0.51100000000E-03 0.  1.
         11    1    4    4    0    0  0.10372105263E-01  0.34677146954E-01 -0.92340167653E-01  0.99181917564E-01  0.51100000000E-03 0. -1.
</event>
<event>
 8    1  0.1143506E+005  0.1043930E+01  0.7957747E-01            NaN
         13   -1    0    0    0    0  0.00000000000E+00  0.00000000000E+00  0.74505805969E-08  0.10566000000E+00  0.10566000000E+00 0.  1.
     999900   -1    0    0    0    0 -0.00000000000E+00 -0.00000000000E+00 -0.74505805969E-08  0.93827000000E+00  0.93827000000E+00 0. -1.
     999902    2    1    2    0    0  0.21591240984E-01 -0.42140759586E-02  0.79588081724E-02  0.10205359249E+01  0.10202677547E+01 0.  0.
     999903    2    3    3    0    0  0.75912701848E-01  0.90934872383E-01  0.55619510285E-01  0.13246178044E+00  0.20511071085E-01 0.  0.
         14    1    1    2    0    0 -0.21591240984E-01  0.42140759586E-02 -0.79588081724E-02  0.23394075125E-01  0.00000000000E+00 0. -1.
     999901    1    3    3    0    0 -0.54321460863E-01 -0.95148948341E-01 -0.47660702112E-01  0.88807414443E+00  0.88000000000E+00 0. -1.
        -11    1    4    4    0    0  0.46775950553E-01  0.62851516559E-01  0.26907962772E-01  0.82840824872E-01  0.51100000000E-03 0.  1.
         11    1    4    4    0    0  0.29136751294E-01  0.28083355823E-01  0.28711547513E-01  0.49620955572E-01  0.51100000000E-03 0. -1.
</event>
<event>
 8    1  0.1143506E+005  0.1043930E+01  0.7957747E-01            NaN
         13   -1    0    0    0    0  0.00000000000E+00  0.00000000000E+00  0.74505805969E-08  0.10566000000E+00  0.10566000000E+00 0. -1.
     999900   -1    0    0    0    0 -0.00000000000E+00 -0.00000000000E+00 -0.74505805969E-08  0.93827000000E+00  0.93827000000E+00 0.  1.
     999902    2    1    2    0    0  0.84977356582E-02  0.10805931298E-01 -0.11678562579E-01  0.10258920265E+01  0.10257334360E+01 0.  0.
     999903    2    3    3    0    0 -0.34686947647E-01  0.11086128182E+00  0.67303128994E-01  0.13565941781E+00  0.19502777356E-01 0.  0.
         14    1    1    2    0    0 -0.84977356582E-02 -0.10805931298E-01  0.11678562579E-01  0.18037973457E-01  0.00000000000E+00 0. -1.
     999901    1    3    3    0    0  0.43184683306E-01 -0.10005535053E+00 -0.78981691572E-01  0.89023260873E+00  0.88000000000E+00 0.  1.
        -11    1    4    4    0    0 -0.10085768844E-01  0.15482068612E-01  0.16738311622E-01  0.24936907960E-01  0.51100000000E-03 0.  1.
         11    1    4    4    0    0 -0.24601178804E-01  0.95379213212E-01  0.50564817372E-01  0.11072250985E+00  0.51100000000E-03 0. -1.
</event>
<event>
 8    1  0.1143506E+005  0.1043930E+01  0.7957747E-01            NaN
         13   -1    0    0    0    0  0.00000000000E+00  0.00000000000E+00  0.74505805969E-08  0.10566000000E+00  0.10566000000E+00 0. -1.
     999900   -1    0    0    0    0 -0.00000000000E+00 -0.00000000000E+00 -0.74505805969E-08  0.93827000000E+00  0.93827000000E+00 0.  1.
     999902    2    1    2    0    0  0.89734682331E-03 -0.75417831656E-02 -0.21188325390E-01  0.10214215825E+01  0.10211735506E+01 0.  0.
     999903    2    3    3    0    0 -0.56106080772E-01  0.24322559418E-01 -0.11733583404E+00  0.13377915986E+00  0.19740477886E-01 0.  0.
         14    1    1    2    0    0 -0.89734682331E-03  0.75417831656E-02  0.21188325390E-01  0.22508417480E-01  0.00000000000E+00 0. -1.
     999901    1    3    3    0    0  0.57003427595E-01 -0.31864342583E-01  0.96147508649E-01  0.88764242266E+00  0.88000000000E+00 0. -1.
        -11    1    4    4    0    0 -0.21373012637E-01  0.51842158044E-02 -0.25086989159E-01  0.33366149144E-01  0.51100000000E-03 0.  1.
         11    1    4    4    0    0 -0.34733068135E-01  0.19138343613E-01 -0.92248844880E-01  0.10041301072E+00  0.51100000000E-03 0. -1.
</event>
<event>
 8    1  0.1143506E+005  0.1043930E+01  0.7957747E-01            NaN
         13   -1    0    0    0    0  0.00000000000E+00  0.00000000000E+00  0.74505805969E-08  0.10566000000E+00  0.10566000000E+00 0. -1.
     999900   -1    0    0    0    0 -0.00000000000E+00 -0.00000000000E+00 -0.74505805969E-08  0.93827000000E+00  0.93827000000E+00 0.  1.
     999902    2    1    2    0    0  0.22237460003E-01  0.51074428169E-02 -0.33666773309E-02  0.10208664982E+01  0.10206059387E+01 0.  0.
     999903    2    3    3    0    0  0.66778640065E-01 -0.98219300720E-01  0.53784783031E-01  0.13186333617E+00  0.19715951376E-01 0.  0.
         14    1    1    2    0    0 -0.22237460003E-01 -0.51074428169E-02  0.33666773309E-02  0.23063501811E-01  0.00000000000E+00 0.  1.
     999901    1    3    3    0    0 -0.44541180061E-01  0.10332674354E+00 -0.57151460362E-01  0.88900316201E+00  0.88000000000E+00 0.  1.
        -11    1    4    4    0    0  0.43622898778E-01 -0.70229913213E-01  0.27908416672E-01  0.87260179061E-01  0.51100000000E-03 0. -1.
         11    1    4    4    0    0  0.23155741286E-01 -0.27989387507E-01  0.25876366358E-01  0.44603157113E-01  0.51100000000E-03 0.  1.
</event>
<event>
 8    1  0.1143506E+005  0.1043930E+01  0.7957747E-01            NaN
         13   -1    0    0    0    0  0.00000000000E+00  0.00000000000E+00  0.74505805969E-08  0.10566000000E+00  0.10566000000E+00 0. -1.
     999900   -1    0    0    0    0 -0.00000000000E+00 -0.00000000000E+00 -0.74505805969E-08  0.93827000000E+00  0.93827000000E+00 0.  1.
     999902    2    1    2    0    0 -0.18557263824E-01 -0.14102995304E-01  0.59903332133E-02  0.10198644518E+01  0.10195804772E+01 0.  0.
     999903    2    3    3    0    0 -0.42300114197E-01  0.11815257989E+00 -0.22953874276E-01  0.12919446397E+00  0.20371484489E-01 0.  0.
         14    1    1    2    0    0  0.18557263824E-01  0.14102995304E-01 -0.59903332133E-02  0.24065548180E-01  0.00000000000E+00 0.  1.
     999901    1    3    3    0    0  0.23742850373E-01 -0.13225557519E+00  0.28944207489E-01  0.89066998785E+00  0.88000000000E+00 0. -1.
        -11    1    4    4    0    0 -0.27826372249E-01  0.69974546207E-01 -0.23487370345E-01  0.78883850034E-01  0.51100000000E-03 0.  1.
         11    1    4    4    0    0 -0.14473741949E-01  0.48178033681E-01  0.53349606862E-03  0.50310613934E-01  0.51100000000E-03 0. -1.
</event>
<event>
 8    1  0.1143506E+005  0.1043930E+01  0.7957747E-01            NaN
         13   -1    0    0    0    0  0.00000000000E+00  0.00000000000E+00  0.74505805969E-08  0.10566000000E+00  0.10566000000E+00 0. -1.
     999900   -1    0    0    0    0 -0.00000000000E+00 -0.00000000000E+00 -0.74505805969E-08  0.93827000000E+00  0.93827000000E+00 0. -1.
     999902    2    1    2    0    0  0.10556641389E-01 -0.17912620855E-01  0.12626945757E-01  0.10196042025E+01  0.10193139778E+01 0.  0.
     999903    2    3    3    0    0  0.91137745653E-01 -0.91030727933E-02 -0.90083323164E-01  0.12992992402E+00  0.19437732042E-01 0.  0.
         14    1    1    2    0    0 -0.10556641389E-01  0.17912620855E-01 -0.12626945757E-01  0.24325797468E-01  0.00000000000E+00 0.  1.
     999901    1    3    3    0    0 -0.80581104264E-01 -0.88095480619E-02  0.10271026892E+00  0.88967427851E+00  0.88000000000E+00 0.  1.
        -11    1    4    4    0    0  0.54647481728E-01 -0.53859003821E-02 -0.40412638284E-01  0.68182091756E-01  0.51100000000E-03 0. -1.
         11    1    4    4    0    0  0.36490263925E-01 -0.37171724112E-02 -0.49670684880E-01  0.61747832266E-01  0.51100000000E-03 0.  1.
</event>
<event>
 8    1  0.1143506E+005  0.1043930E+01  0.7957747E-01            NaN
         13   -1    0    0    0    0  0.00000000000E+00  0.00000000000E+00  0.74505805969E-08  0.10566000000E+00  0.10566000000E+00 0.  1.
     999900   -1    0    0    0    0 -0.00000000000E+00 -0.00000000000E+00 -0.74505805969E-08  0.93827000000E+00  0.93827000000E+00 0.  1.
     999902    2    1    2    0    0 -0.10383784035E-01 -0.70827972277E-02  0.26828894683E-01  0.10143026718E+01  0.10138698789E+01 0.  0.
     999903    2    3    3    0    0 -0.12018513737E+00  0.31450559273E-01  0.15072530417E-01  0.12656432696E+00  0.18914089056E-01 0.  0.
         14    1    1    2    0    0  0.10383784035E-01  0.70827972277E-02 -0.26828894683E-01  0.29627328219E-01  0.00000000000E+00 0. -1.
     999901    1    3    3    0    0  0.10980135333E+00 -0.38533356501E-01  0.11756364266E-01  0.88773834482E+00  0.88000000000E+00 0. -1.
        -11    1    4    4    0    0 -0.76160294490E-01  0.27444434188E-01  0.43484880022E-02  0.81072547102E-01  0.51100000000E-03 0.  1.
         11    1    4    4    0    0 -0.44024842875E-01  0.40061250855E-02  0.10724042415E-01  0.45491779863E-01  0.51100000000E-03 0. -1.
</event>
<event>
 8    1  0.1143506E+005  0.1043930E+01  0.7957747E-01            NaN
         13   -1    0    0    0    0  0.00000000000E+00  0.00000000000E+00  0.74505805969E-08  0.10566000000E+00  0.10566000000E+00 0. -1.
     999900   -1    0    0    0    0 -0.00000000000E+00 -0.00000000000E+00 -0.74505805969E-08  0.93827000000E+00  0.93827000000E+00 0.  1.
     999902    2    1    2    0    0  0.59661380774E-02 -0.23665954551E-01 -0.55728371520E-02  0.10188954494E+01  0.10185878500E+01 0.  0.
     999903    2    3    3    0    0 -0.72629251692E-01 -0.45038446953E-02 -0.10542298058E+00  0.12956172529E+00  0.19415020178E-01 0.  0.
         14    1    1    2    0    0 -0.59661380774E-02  0.23665954551E-01  0.55728371520E-02  0.25034550571E-01  0.00000000000E+00 0. -1.
     999901    1    3    3    0    0  0.78595389770E-01 -0.19162109855E-01  0.99850143424E-01  0.88933372414E+00  0.88000000000E+00 0. -1.
        -11    1    4    4    0    0 -0.37365873981E-01  0.54603531143E-02 -0.43499081576E-01  0.57606034523E-01  0.51100000000E-03 0. -1.
         11    1    4    4    0    0 -0.35263377711E-01 -0.99641978096E-02 -0.61923899000E-01  0.71955690768E-01  0.51100000000E-03 0.  1.
</event>
<event>
 8    1  0.1143506E+005  0.1043930E+01  0.7957747E-01            NaN
         13   -1    0    0    0    0  0.00000000000E+00  0.00000000000E+00  0.74505805969E-08  0.10566000000E+00  0.10566000000E+00 0. -1.
     999900   -1    0    0    0    0 -0.00000000000E+00 -0.00000000000E+00 -0.74505805969E-08  0.93827000000E+00  0.93827000000E+00 0. -1.
     999902    2    1    2    0    0 -0.48197727780E-02  0.23213254631E-01  0.41625924748E-02  0.10198590097E+01  0.10195749050E+01 0.  0.
     999903    2    3    3    0    0 -0.12784735717E+00  0.20011030549E-01 -0.75950021315E-02  0.13121719104E+00  0.20368580906E-01 0.  0.
         14    1    1    2    0    0  0.48197727780E-02 -0.23213254631E-01 -0.41625924748E-02  0.24070990348E-01  0.00000000000E+00 0.  1.
     999901    1    3    3    0    0  0.12302758439E+00  0.32022240821E-02  0.11757594606E-01  0.88864181861E+00  0.88000000000E+00 0. -1.
        -11    1    4    4    0    0 -0.38935077330E-01 -0.24459543606E-02 -0.61713495698E-02  0.39500248302E-01  0.51100000000E-03 0. -1.
         11    1    4    4    0    0 -0.88912279838E-01  0.22456984910E-01 -0.14236525617E-02  0.91716942736E-01  0.51100000000E-03 0.  1.
</event>
<event>
 7    1  0.1143506E+005  0.1043930E+01  0.7957747E-01            NaN
         13   -1    0    0    0    0  0.00000000000E+00  0.00000000000E+00  0.74505805969E-08  0.10566000000E+00  0.10566000000E+00 0. -1.
     999900   -1    0    0    0    0 -0.00000000000E+00 -0.00000000000E+00 -0.74505805969E-08  0.93827000000E+00  0.93827000000E+00 0. -1.
     999902    2    1    2    0    0 -0.21678150758E-01 -0.28353023706E-02 -0.61815450946E-03  0.10220584826E+01  0.10218244362E+01 0.  0.
         14    1    1    2    0    0  0.21678150758E-01  0.28353023706E-02  0.61815450946E-03  0.21871517433E-01  0.00000000000E+00 0.  1.
     999901    1    3    3    0    0 -0.13338234290E+00  0.69041952236E-02  0.35275683693E-01  0.89077656636E+00  0.88000000000E+00 0.  1.
        -11    1    3    3    0    0  0.69602358354E-01 -0.34102654972E-01 -0.19207145269E-01  0.79853959920E-01  0.51100000000E-03 0.  1.
         11    1    3    3    0    0  0.42101833793E-01  0.24363157378E-01 -0.16686692933E-01  0.51427956290E-01  0.51100000000E-03 0. -1.
</event>
<event>
 8    1  0.1143506E+005  0.1043930E+01  0.7957747E-01            NaN
         13   -1    0    0    0    0  0.00000000000E+00  0.00000000000E+00  0.74505805969E-08  0.10566000000E+00  0.10566000000E+00 0. -1.
     999900   -1    0    0    0    0 -0.00000000000E+00 -0.00000000000E+00 -0.74505805969E-08  0.93827000000E+00  0.93827000000E+00 0. -1.
     999902    2    1    2    0    0 -0.14368259699E-01  0.19927669525E-01 -0.63383853046E-02  0.10185580858E+01  0.10182420342E+01 0.  0.
     999903    2    3    3    0    0 -0.15688591967E-01  0.63134020178E-01  0.11045234162E+00  0.12979005880E+00  0.20339694491E-01 0.  0.
         14    1    1    2    0    0  0.14368259699E-01 -0.19927669525E-01  0.63383853046E-02  0.25371914152E-01  0.00000000000E+00 0. -1.
     999901    1    3    3    0    0  0.13203322685E-02 -0.43206350653E-01 -0.11679072692E+00  0.88876802705E+00  0.88000000000E+00 0. -1.
        -11    1    4    4    0    0 -0.70380194160E-02  0.34645277669E-02  0.12351051746E-01  0.14640569326E-01  0.51100000000E-03 0.  1.
         11    1    4    4    0    0 -0.86505725511E-02  0.59669492411E-01  0.98101289871E-01  0.11514948947E+00  0.51100000000E-03 0. -1.
</event>
<event>
 8    1  0.1143506E+005  0.1043930E+01  0.7957747E-01            NaN
         13   -1    0    0    0    0  0.00000000000E+00  0.00000000000E+00  0.74505805969E-08  0.10566000000E+00  0.10566000000E+00 0.  1.
     999900   -1    0    0    0    0 -0.00000000000E+00 -0.00000000000E+00 -0.74505805969E-08  0.93827000000E+00  0.93827000000E+00 0.  1.
     999902    2    1    2    0    0 -0.23328838333E-01 -0.16072544172E-03 -0.61818804881E-02  0.10197954568E+01  0.10195098320E+01 0.  0.
     999903    2    3    3    0    0 -0.11995188916E+00  0.43668140397E-01  0.30153774466E-01  0.13267806699E+00  0.19971408229E-01 0.  0.
         14    1    1    2    0    0  0.23328838333E-01  0.16072544172E-03  0.61818804881E-02  0.24134543232E-01  0.00000000000E+00 0. -1.
     999901    1    3    3    0    0  0.96623050824E-01 -0.43828865839E-01 -0.36335654954E-01  0.88711738978E+00  0.88000000000E+00 0.  1.
        -11    1    4    4    0    0 -0.25954494254E-01  0.76237380048E-02  0.14806553210E-01  0.30842378185E-01  0.51100000000E-03 0. -1.
         11    1    4    4    0    0 -0.93997394904E-01  0.36044402392E-01  0.15347221256E-01  0.10183568880E+00  0.51100000000E-03 0.  1.
</event>
<event>
 8    1  0.1143506E+005  0.1043930E+01  0.7957747E-01            NaN
         13   -1    0    0    0    0  0.00000000000E+00  0.00000000000E+00  0.74505805969E-08  0.10566000000E+00  0.10566000000E+00 0.  1.
     999900   -1    0    0    0    0 -0.00000000000E+00 -0.00000000000E+00 -0.74505805969E-08  0.93827000000E+00  0.93827000000E+00 0. -1.
     999902    2    1    2    0    0  0.68196937569E-02  0.67301951805E-02  0.23484341228E-01  0.10185662851E+01  0.10182504403E+01 0.  0.
     999903    2    3    3    0    0 -0.72944572263E-01 -0.98922340872E-01  0.30555275869E-01  0.12863662799E+00  0.22521479313E-01 0.  0.
         14    1    1    2    0    0 -0.68196937569E-02 -0.67301951805E-02 -0.23484341228E-01  0.25363714890E-01  0.00000000000E+00 0. -1.
     999901    1    3    3    0    0  0.79764266020E-01  0.10565253605E+00 -0.70709346410E-02  0.88992965712E+00  0.88000000000E+00 0.  1.
        -11    1    4    4    0    0 -0.15299194180E-01 -0.34109127817E-01  0.16071833677E-01  0.40694752754E-01  0.51100000000E-03 0. -1.
         11    1    4    4    0    0 -0.57645378083E-01 -0.64813213055E-01  0.14483442192E-01  0.87941875234E-01  0.51100000000E-03 0.  1.
</event>
<event>
 8    1  0.1143506E+005  0.1043930E+01  0.7957747E-01            NaN
         13   -1    0    0    0    0  0.00000000000E+00  0.00000000000E+00  0.74505805969E-08  0.10566000000E+00  0.10566000000E+00 0. -1.
     999900   -1    0    0    0    0 -0.00000000000E+00 -0.00000000000E+00 -0.74505805969E-08  0.93827000000E+00  0.93827000000E+00 0. -1.
     999902    2    1    2    0    0  0.34504070689E-02  0.18998287115E-01  0.13896963082E-01  0.10201399642E+01  0.10198625303E+01 0.  0.
     999903    2    3    3    0    0  0.13119658417E-02 -0.11164313775E+00  0.61935839364E-01  0.12919693094E+00  0.19745564197E-01 0.  0.
         14    1    1    2    0    0 -0.34504070689E-02 -0.18998287115E-01 -0.13896963082E-01  0.23790035837E-01  0.00000000000E+00 0. -1.
     999901    1    3    3    0    0  0.21384412272E-02  0.13064142486E+00 -0.48038876283E-01  0.89094303323E+00  0.88000000000E+00 0.  1.
        -11    1    4    4    0    0  0.83421113600E-03 -0.75166767947E-01  0.51932448125E-01  0.91367276424E-01  0.51100000000E-03 0. -1.
         11    1    4    4    0    0  0.47775470572E-03 -0.36476369799E-01  0.10003391240E-01  0.37829654513E-01  0.51100000000E-03 0.  1.
</event>
<event>
 8    1  0.1143506E+005  0.1043930E+01  0.7957747E-01            NaN
         13   -1    0    0    0    0  0.00000000000E+00  0.00000000000E+00  0.74505805969E-08  0.10566000000E+00  0.10566000000E+00 0. -1.
     999900   -1    0    0    0    0 -0.00000000000E+00 -0.00000000000E+00 -0.74505805969E-08  0.93827000000E+00  0.93827000000E+00 0.  1.
     999902    2    1    2    0    0  0.18178549357E-01 -0.43582555517E-02  0.12009183441E-01  0.10217112121E+01  0.10214695915E+01 0.  0.
     999903    2    3    3    0    0 -0.10412237514E-01  0.12421517787E+00  0.37053947215E-01  0.13155628118E+00  0.19905652712E-01 0.  0.
         14    1    1    2    0    0 -0.18178549357E-01  0.43582555517E-02 -0.12009183441E-01  0.22218787886E-01  0.00000000000E+00 0.  1.
     999901    1    3    3    0    0  0.28590786871E-01 -0.12857343342E+00 -0.25044763775E-01  0.89015493094E+00  0.88000000000E+00 0.  1.
        -11    1    4    4    0    0  0.16615744379E-02  0.44887385059E-02 -0.17467289946E-02  0.51207212546E-02  0.51100000000E-03 0.  1.
         11    1    4    4    0    0 -0.12073811952E-01  0.11972643936E+00  0.38800676210E-01  0.12643555992E+00  0.51100000000E-03 0. -1.
</event>
<event>
 8    1  0.1143506E+005  0.1043930E+01  0.7957747E-01            NaN
         13   -1    0    0    0    0  0.00000000000E+00  0.00000000000E+00  0.74505805969E-08  0.10566000000E+00  0.10566000000E+00 0.  1.
     999900   -1    0    0    0    0 -0.00000000000E+00 -0.00000000000E+00 -0.74505805969E-08  0.93827000000E+00  0.93827000000E+00 0. -1.
     999902    2    1    2    0    0 -0.28999516203E-03 -0.18395713757E-01  0.14723203040E-01  0.10203660638E+01  0.10200939393E+01 0.  0.
     999903    2    3    3    0    0 -0.19424138589E-01 -0.10079571116E+00 -0.79033127974E-01  0.13135193307E+00  0.21680001282E-01 0.  0.
         14    1    1    2    0    0  0.28999516203E-03  0.18395713757E-01 -0.14723203040E-01  0.23563936207E-01  0.00000000000E+00 0. -1.
     999901    1    3    3    0    0  0.19134143427E-01  0.82399997405E-01  0.93756331014E-01  0.88901413072E+00  0.88000000000E+00 0.  1.
        -11    1    4    4    0    0 -0.19777781420E-01 -0.73323813425E-01 -0.47731726014E-01  0.89700173033E-01  0.51100000000E-03 0.  1.
         11    1    4    4    0    0  0.35364283084E-03 -0.27471897738E-01 -0.31301401961E-01  0.41651760038E-01  0.51100000000E-03 0. -1.
</event>
<event>
 8    1  0.1143506E+005  0.1043930E+01  0.7957747E-01            NaN
         13   -1    0    0    0    0  0.00000000000E+00  0.00000000000E+00  0.74505805969E-08  0.10566000000E+00  0.10566000000E+00 0. -1.
     999900   -1    0    0    0    0 -0.00000000000E+00 -0.00000000000E+00 -0.74505805969E-08  0.93827000000E+00  0.93827000000E+00 0. -1.
     999902    2    1    2    0    0  0.61936311390E-02  0.14100734656E-01  0.19912676453E-01  0.10187564729E+01  0.10184454058E+01 0.  0.
     999903    2    3    3    0    0  0.74203867950E-01 -0.65898104810E-01 -0.78153459976E-01  0.12710509832E+00  0.14105618610E-01 0.  0.
         14    1    1    2    0    0 -0.61936311390E-02 -0.14100734656E-01 -0.19912676453E-01  0.25173527128E-01  0.00000000000E+00 0. -1.
     999901    1    3    3    0    0 -0.68010236811E-01  0.79998839466E-01  0.98066136429E-01  0.89165137455E+00  0.88000000000E+00 0.  1.
        -11    1    4    4    0    0  0.55295804620E-01 -0.40722199615E-01 -0.55832893822E-01  0.88507043243E-01  0.51100000000E-03 0. -1.
         11    1    4    4    0    0  0.18908063330E-01 -0.25175905195E-01 -0.22320566154E-01  0.38598055077E-01  0.51100000000E-03 0.  1.
</event>
<event>
 8    1  0.1143506E+005  0.1043930E+01  0.7957747E-01            NaN
         13   -1    0    0    0    0  0.00000000000E+00  0.00000000000E+00  0.74505805969E-08  0.10566000000E+00  0.10566000000E+00 0.  1.
     999900   -1    0    0    0    0 -0.00000000000E+00 -0.00000000000E+00 -0.74505805969E-08  0.93827000000E+00  0.93827000000E+00 0. -1.
     999902    2    1    2    0    0 -0.82438329504E-02  0.12820918088E-01 -0.17627346768E-01  0.10206263506E+01  0.10203602733E+01 0.  0.
     999903    2    3    3    0    0 -0.73727728204E-01  0.37235497695E-01  0.98737342683E-01  0.13021916665E+00  0.19639458468E-01 0.  0.
         14    1    1    2    0    0  0.82438329504E-02 -0.12820918088E-01  0.17627346768E-01  0.23303649422E-01  0.00000000000E+00 0. -1.
     999901    1    3    3    0    0  0.65483895254E-01 -0.24414579608E-01 -0.11636468945E+00  0.89040718393E+00  0.88000000000E+00 0.  1.
        -11    1    4    4    0    0 -0.43034963143E-01  0.14047413763E-01  0.63946020257E-01  0.78349808639E-01  0.51100000000E-03 0.  1.
         11    1    4    4    0    0 -0.30692765061E-01  0.23188083933E-01  0.34791322426E-01  0.51869358013E-01  0.51100000000E-03 0. -1.
</event>
<event>
 8    1  0.1143506E+005  0.1043930E+01  0.7957747E-01            NaN
         13   -1    0    0    0    0  0.00000000000E+00  0.00000000000E+00  0.74505805969E-08  0.10566000000E+00  0.10566000000E+00 0. -1.
     999900   -1    0    0    0    0 -0.00000000000E+00 -0.00000000000E+00 -0.74505805969E-08  0.93827000000E+00  0.93827000000E+00 0. -1.
     999902    2    1    2    0    0 -0.15451409501E-01  0.17694353127E-01 -0.21129445054E-02  0.10203439719E+01  0.10200713309E+01 0.  0.
     999903    2    3    3    0    0  0.10214997531E+00 -0.28387375428E-01 -0.69743539202E-01  0.12875689887E+00  0.21765045527E-01 0.  0.
         14    1    1    2    0    0  0.15451409501E-01 -0.17694353127E-01  0.21129445054E-02  0.23586028123E-01  0.00000000000E+00 0. -1.
     999901    1    3    3    0    0 -0.11760138481E+00  0.46081728555E-01  0.67630594697E-01  0.89158707301E+00  0.88000000000E+00 0. -1.
        -11    1    4    4    0    0  0.81277656092E-01 -0.27106925580E-01 -0.46493640165E-01  0.97482113698E-01  0.51100000000E-03 0.  1.
         11    1    4    4    0    0  0.20872319216E-01 -0.12804498483E-02 -0.23249899037E-01  0.31274785171E-01  0.51100000000E-03 0. -1.
</event>
<event>
 8    1  0.1143506E+005  0.1043930E+01  0.7957747E-01            NaN
         13   -1    0    0    0    0  0.00000000000E+00  0.00000000000E+00  0.74505805969E-08  0.10566000000E+00  0.10566000000E+00 0.  1.
     999900   -1    0    0    0    0 -0.00000000000E+00 -0.00000000000E+00 -0.74505805969E-08  0.93827000000E+00  0.93827000000E+00 0.  1.
     999902    2    1    2    0    0 -0.15676039789E-01  0.16251408567E-01 -0.12071130950E-01  0.10183261193E+01  0.10180041879E+01 0.  0.
     999903    2    3    3    0    0  0.31068040966E-01 -0.48840143081E-01  0.11034688652E+00  0.12624535493E+00  0.20269966229E-01 0.  0.
         14    1    1    2    0    0  0.15676039789E-01 -0.16251408567E-01  0.12071130950E-01  0.25603880688E-01  0.00000000000E+00 0.  1.
     999901    1    3    3    0    0 -0.46744080755E-01  0.65091551648E-01 -0.12241801747E+00  0.89208076438E+00  0.88000000000E+00 0.  1.
        -11    1    4    4    0    0  0.16116446033E-01 -0.21305515433E-01  0.30948456974E-01  0.40886830773E-01  0.51100000000E-03 0.  1.
         11    1    4    4    0    0  0.14951594933E-01 -0.27534627649E-01  0.79398429545E-01  0.85358524156E-01  0.51100000000E-03 0. -1.
</event>
<event>
 8    1  0.1143506E+005  0.1043930E+01  0.7957747E-01            NaN
         13   -1    0    0    0    0  0.00000000000E+00  0.00000000000E+00  0.74505805969E-08  0.10566000000E+00  0.10566000000E+00 0. -1.
     999900   -1    0    0    0    0 -0.00000000000E+00 -0.00000000000E+00 -0.74505805969E-08  0.93827000000E+00  0.93827000000E+00 0.  1.
     999902    2    1    2    0    0  0.20199436714E-01 -0.12493872596E-01 -0.19000611879E-02  0.10201030336E+01  0.10198247275E+01 0.  0.
     999903    2    3    3    0    0 -0.53412772430E-01 -0.10637670675E+00  0.50147437813E-01  0.13052915468E+00  0.18819317275E-01 0.  0.
         14    1    1    2    0    0 -0.20199436714E-01  0.12493872596E-01  0.19000611879E-02  0.23826966415E-01  0.00000000000E+00 0.  1.
     999901    1    3    3    0    0  0.73612209144E-01  0.93882834159E-01 -0.52047499001E-01  0.88957387891E+00  0.88000000000E+00 0.  1.
        -11    1    4    4    0    0 -0.27563736297E-01 -0.46662427352E-01  0.13523229085E-01  0.55859471273E-01  0.51100000000E-03 0. -1.
         11    1    4    4    0    0 -0.25849036133E-01 -0.59714279403E-01  0.36624208728E-01  0.74669683403E-01  0.51100000000E-03 0.  1.
</event>
<event>
 8    1  0.1143506E+005  0.1043930E+01  0.7957747E-01            NaN
         13   -1    0    0    0    0  0.00000000000E+00  0.00000000000E+00  0.74505805969E-08  0.10566000000E+00  0.10566000000E+00 0.  1.
     999900   -1    0    0    0    0 -0.00000000000E+00 -0.00000000000E+00 -0.74505805969E-08  0.93827000000E+00  0.93827000000E+00 0. -1.
     999902    2    1    2    0    0 -0.13018729185E-01 -0.18007566277E-01  0.85562570710E-02  0.10201188831E+01  0.10198409515E+01 0.  0.
     999903    2    3    3    0    0 -0.47660924314E-01  0.93807877097E-01  0.74030510746E-01  0.12995617160E+00  0.18346893551E-01 0.  0.
         14    1    1    2    0    0  0.13018729185E-01  0.18007566277E-01 -0.85562570710E-02  0.23811116897E-01  0.00000000000E+00 0.  1.
     999901    1    3    3    0    0  0.34642195129E-01 -0.11181544337E+00 -0.65474253675E-01  0.89016271151E+00  0.88000000000E+00 0. -1.
        -11    1    4    4    0    0 -0.15398882429E-01  0.37210154168E-01  0.18360379230E-01  0.44261561198E-01  0.51100000000E-03 0. -1.
         11    1    4    4    0    0 -0.32262041885E-01  0.56597722929E-01  0.55670131517E-01  0.85694610399E-01  0.51100000000E-03 0.  1.
</event>
<event>
 8    1  0.1143506E+005  0.1043930E+01  0.7957747E-01            NaN
         13   -1    0    0    0    0  0.00000000000E+00  0.00000000000E+00  0.74505805969E-08  0.10566000000E+00  0.10566000000E+00 0. -1.
     999900   -1    0    0    0    0 -0.00000000000E+00 -0.00000000000E+00 -0.74505805969E-08  0.93827000000E+00  0.93827000000E+00 0.  1.
     999902    2    1    2    0    0  0.85145686654E-02 -0.78431436396E-02 -0.16922893206E-01  0.10234264126E+01  0.10232210049E+01 0.  0.
     999903    2    3    3    0    0  0.29248212416E-01 -0.13036173452E+00 -0.21002338446E-02  0.13457299368E+00  0.15994995791E-01 0.  0.
         14    1    1    2    0    0 -0.85145686654E-02  0.78431436396E-02  0.16922893206E-01  0.20503587397E-01  0.00000000000E+00 0. -1.
     999901    1    3    3    0    0 -0.20733643750E-01  0.12251859088E+00 -0.14822659361E-01  0.88885341892E+00  0.88000000000E+00 0.  1.
        -11    1    4    4    0    0  0.17632791726E-01 -0.82303667479E-01 -0.89867836774E-02  0.84651239958E-01  0.51100000000E-03 0. -1.
         11    1    4    4    0    0  0.11615420690E-01 -0.48058067040E-01  0.68865498328E-02  0.49921753726E-01  0.51100000000E-03 0.  1.
</event>
<event>
 8    1  0.1143506E+005  0.1043930E+01  0.7957747E-01            NaN
         13   -1    0    0    0    0  0.00000000000E+00  0.00000000000E+00  0.74505805969E-08  0.10566000000E+00  0.10566000000E+00 0.  1.
     999900   -1    0    0    0    0 -0.00000000000E+00 -0.00000000000E+00 -0.74505805969E-08  0.93827000000E+00  0.93827000000E+00 0.  1.
     999902    2    1    2    0    0  0.22170137411E-01 -0.64180103273E-03  0.23035837477E-01  0.10119522466E+01  0.10114468710E+01 0.  0.
     999903    2    3    3    0    0 -0.10423807255E+00 -0.58533181920E-01  0.43624369443E-02  0.12084106199E+00  0.17082805764E-01 0.  0.
         14    1    1    2    0    0 -0.22170137411E-01  0.64180103273E-03 -0.23035837477E-01  0.31977753356E-01  0.00000000000E+00 0. -1.
     999901    1    3    3    0    0  0.12640820996E+00  0.57891380888E-01  0.18673400533E-01  0.89111118465E+00  0.88000000000E+00 0. -1.
        -11    1    4    4    0    0 -0.57329826654E-01 -0.41374827298E-01  0.50870674019E-02  0.70885292789E-01  0.51100000000E-03 0.  1.
         11    1    4    4    0    0 -0.46908245895E-01 -0.17158354623E-01 -0.72463045764E-03  0.49955769202E-01  0.51100000000E-03 0. -1.
</event>
<event>
 8    1  0.1143506E+005  0.1043930E+01  0.7957747E-01            NaN
         13   -1    0    0    0    0  0.00000000000E+00  0.00000000000E+00  0.74505805969E-08  0.10566000000E+00  0.10566000000E+00 0.  1.
     999900   -1    0    0    0    0 -0.00000000000E+00 -0.00000000000E+00 -0.74505805969E-08  0.93827000000E+00  0.93827000000E+00 0. -1.
     999902    2    1    2    0    0  0.51880392719E-02  0.90530655950E-02 -0.20155447651E-01  0.10212338369E+01  0.10209816031E+01 0.  0.
     999903    2    3    3    0    0  0.10328283298E+00 -0.27412045555E-02 -0.82182135620E-01  0.13353512488E+00  0.20071581164E-01 0.  0.
         14    1    1    2    0    0 -0.51880392719E-02 -0.90530655950E-02  0.20155447651E-01  0.22696163072E-01  0.00000000000E+00 0.  1.
     999901    1    3    3    0    0 -0.98094793705E-01  0.11794270151E-01  0.62026687968E-01  0.88769871205E+00  0.88000000000E+00 0. -1.
        -11    1    4    4    0    0  0.33744386719E-01  0.75266016712E-02 -0.21870949128E-01  0.40913725136E-01  0.51100000000E-03 0. -1.
         11    1    4    4    0    0  0.69538446258E-01 -0.10267806227E-01 -0.60311186492E-01  0.92621399740E-01  0.51100000000E-03 0.  1.
</event>
<event>
 8    1  0.1143506E+005  0.1043930E+01  0.7957747E-01            NaN
         13   -1    0    0    0    0  0.00000000000E+00  0.00000000000E+00  0.74505805969E-08  0.10566000000E+00  0.10566000000E+00 0.  1.
     999900   -1    0    0    0    0 -0.00000000000E+00 -0.00000000000E+00 -0.74505805969E-08  0.93827000000E+00  0.93827000000E+00 0.  1.
     999902    2    1    2    0    0 -0.13381884775E-01  0.17531611668E-01  0.90401107427E-02  0.10200939800E+01  0.10198154599E+01 0.  0.
     999903    2    3    3    0    0 -0.76185471077E-01 -0.61583719442E-01 -0.82505321429E-01  0.12959743748E+00  0.19788563196E-01 0.  0.
         14    1    1    2    0    0  0.13381884775E-01 -0.17531611668E-01 -0.90401107427E-02  0.23836020013E-01  0.00000000000E+00 0. -1.
     999901    1    3    3    0    0  0.62803586302E-01  0.79115331111E-01  0.91545432171E-01  0.89049654251E+00  0.88000000000E+00 0. -1.
        -11    1    4    4    0    0 -0.33377644555E-01 -0.16422471818E-01 -0.24637345972E-01  0.44620899523E-01  0.51100000000E-03 0. -1.
         11    1    4    4    0    0 -0.42807826521E-01 -0.45161247624E-01 -0.57867975456E-01  0.84976537955E-01  0.51100000000E-03 0.  1.
</event>
<event>
 8    1  0.1143506E+005  0.1043930E+01  0.7957747E-01            NaN
         13   -1    0    0    0    0  0.00000000000E+00  0.00000000000E+00  0.74505805969E-08  0.10566000000E+00  0.10566000000E+00 0.  1.
     999900   -1    0    0    0    0 -0.00000000000E+00 -0.00000000000E+00 -0.74505805969E-08  0.93827000000E+00  0.93827000000E+00 0.  1.
     999902    2    1    2    0    0 -0.80499904128E-02 -0.11579874562E-01  0.17879613631E-01  0.10211577269E+01  0.10209037794E+01 0.  0.
     999903    2    3    3    0    0 -0.24487586189E-01 -0.67634491745E-02  0.12993138889E+00  0.13388719717E+00  0.19955691531E-01 0.  0.
         14    1    1    2    0    0  0.80499904128E-02  0.11579874562E-01 -0.17879613631E-01  0.22772273143E-01  0.00000000000E+00 0. -1.
     999901    1    3    3    0    0  0.16437595777E-01 -0.48164253877E-02 -0.11205177526E+00  0.88727052969E+00  0.88000000000E+00 0.  1.
        -11    1    4    4    0    0 -0.23220253007E-01 -0.83618284678E-02  0.75867933366E-01  0.79782860060E-01  0.51100000000E-03 0.  1.
         11    1    4    4    0    0 -0.12673331828E-02  0.15983792933E-02  0.54063455527E-01  0.54104337112E-01  0.51100000000E-03 0. -1.
</event>
<event>
 8    1  0.1143506E+005  0.1043930E+01  0.7957747E-01            NaN
         13   -1    0    0    0    0  0.00000000000E+00  0.00000000000E+00  0.74505805969E-08  0.10566000000E+00  0.10566000000E+00 0.  1.
     999900   -1    0    0    0    0 -0.00000000000E+00 -0.00000000000E+00 -0.74505805969E-08  0.93827000000E+00  0.93827000000E+00 0. -1.
     999902    2    1    2    0    0  0.96379968769E-02 -0.40424123155E-03  0.21018094317E-01  0.10208039393E+01  0.10205419481E+01 0.  0.
     999903    2    3    3    0    0  0.15699782961E-01 -0.45847770451E-01 -0.11715119136E+00  0.12884395639E+00  0.22975252370E-01 0.  0.
         14    1    1    2    0    0 -0.96379968769E-02  0.40424123155E-03 -0.21018094317E-01  0.23126060700E-01  0.00000000000E+00 0. -1.
     999901    1    3    3    0    0 -0.60617860836E-02  0.45443529219E-01  0.13816928568E+00  0.89195998290E+00  0.88000000000E+00 0.  1.
        -11    1    4    4    0    0  0.19693703058E-01 -0.24140343326E-01 -0.76116225573E-01  0.82246817766E-01  0.51100000000E-03 0. -1.
         11    1    4    4    0    0 -0.39939200971E-02 -0.21707427124E-01 -0.41034965789E-01  0.46597138629E-01  0.51100000000E-03 0.  1.
</event>
<event>
 8    1  0.1143506E+005  0.1043930E+01  0.7957747E-01            NaN
         13   -1    0    0    0    0  0.00000000000E+00  0.00000000000E+00  0.74505805969E-08  0.10566000000E+00  0.10566000000E+00 0. -1.
     999900   -1    0    0    0    0 -0.00000000000E+00 -0.00000000000E+00 -0.74505805969E-08  0.93827000000E+00  0.93827000000E+00 0.  1.
     999902    2    1    2    0    0 -0.19349529123E-01  0.13281736249E-01  0.90739295730E-02  0.10187676274E+01  0.10184568394E+01 0.  0.
     999903    2    3    3    0    0  0.10662943621E+00  0.48552845907E-01  0.48885668006E-01  0.12820616106E+00  0.17882832136E-01 0.  0.
         14    1    1    2    0    0  0.19349529123E-01 -0.13281736249E-01 -0.90739295730E-02  0.25162372562E-01  0.00000000000E+00 0.  1.
     999901    1    3    3    0    0 -0.12597896533E+00 -0.35271109658E-01 -0.39811738433E-01  0.89056146638E+00  0.88000000000E+00 0.  1.
        -11    1    4    4    0    0  0.34659470153E-01  0.21296608250E-01  0.96048900751E-02  0.41801189320E-01  0.51100000000E-03 0.  1.
         11    1    4    4    0    0  0.71969966055E-01  0.27256237657E-01  0.39280777931E-01  0.86404971738E-01  0.51100000000E-03 0. -1.
</event>
<event>
 8    1  0.1143506E+005  0.1043930E+01  0.7957747E-01            NaN
         13   -1    0    0    0    0  0.00000000000E+00  0.00000000000E+00  0.74505805969E-08  0.10566000000E+00  0.10566000000E+00 0. -1.
     999900   -1    0    0    0    0 -0.00000000000E+00 -0.00000000000E+00 -0.74505805969E-08  0.93827000000E+00  0.93827000000E+00 0.  1.
     999902    2    1    2    0    0  0.31213136734E-02 -0.21254060180E-01 -0.60279630268E-02  0.10216182540E+01  0.10213745850E+01 0.  0.
     999903    2    3    3    0    0  0.58013318853E-01  0.29490731985E-01 -0.11296178634E+00  0.13199866743E+00  0.20688996924E-01 0.  0.
         14    1    1    2    0    0 -0.31213136734E-02  0.21254060180E-01  0.60279630268E-02  0.22311746041E-01  0.00000000000E+00 0. -1.
     999901    1    3    3    0    0 -0.54892005180E-01 -0.50744792164E-01  0.10693382331E+00  0.88961958653E+00  0.88000000000E+00 0. -1.
        -11    1    4    4    0    0  0.37440802018E-01  0.28894601359E-01 -0.71842972552E-01  0.86013867891E-01  0.51100000000E-03 0. -1.
         11    1    4    4    0    0  0.20572516835E-01  0.59613062611E-03 -0.41118813786E-01  0.45984799541E-01  0.51100000000E-03 0.  1.
</event>
<event>
 8    1  0.1143506E+005  0.1043930E+01  0.7957747E-01            NaN
         13   -1    0    0    0    0  0.00000000000E+00  0.00000000000E+00  0.74505805969E-08  0.10566000000E+00  0.10566000000E+00 0. -1.
     999900   -1    0    0    0    0 -0.00000000000E+00 -0.00000000000E+00 -0.74505805969E-08  0.93827000000E+00  0.93827000000E+00 0. -1.
     999902    2    1    2    0    0  0.21877284151E-01  0.18775188832E-02 -0.48409307804E-02  0.10214449994E+01  0.10211974891E+01 0.  0.
     999903    2    3    3    0    0  0.12841371339E+00 -0.24078239492E-01 -0.22776544510E-01  0.13445830373E+00  0.22145452309E-01 0.  0.
         14    1    1    2    0    0 -0.21877284151E-01 -0.18775188832E-02  0.48409307804E-02  0.22485000551E-01  0.00000000000E+00 0.  1.
     999901    1    3    3    0    0 -0.10653642924E+00  0.25955758376E-01  0.17935613729E-01  0.88698669572E+00  0.88000000000E+00 0. -1.
        -11    1    4    4    0    0  0.10380800358E+00 -0.10466062672E-01 -0.16350363514E-01  0.10560888023E+00  0.51100000000E-03 0.  1.
         11    1    4    4    0    0  0.24605709809E-01 -0.13612176821E-01 -0.64261809957E-02  0.28849423499E-01  0.51100000000E-03 0. -1.
</event>
<event>
 8    1  0.1143506E+005  0.1043930E+01  0.7957747E-01            NaN
         13   -1    0    0    0    0  0.00000000000E+00  0.00000000000E+00  0.74505805969E-08  0.10566000000E+00  0.10566000000E+00 0. -1.
     999900   -1    0    0    0    0 -0.00000000000E+00 -0.00000000000E+00 -0.74505805969E-08  0.93827000000E+00  0.93827000000E+00 0.  1.
     999902    2    1    2    0    0 -0.66764494172E-02 -0.22468556182E-01  0.56672582149E-02  0.10198150916E+01  0.10195299369E+01 0.  0.
     999903    2    3    3    0    0 -0.10607806716E+00 -0.57361712099E-01 -0.49405645846E-01  0.13182227700E+00  0.19831099925E-01 0.  0.
         14    1    1    2    0    0  0.66764494172E-02  0.22468556182E-01 -0.56672582149E-02  0.24114908447E-01  0.00000000000E+00 0.  1.
     999901    1    3    3    0    0  0.99401617743E-01  0.34893155917E-01  0.55072904061E-01  0.88799281456E+00  0.88000000000E+00 0. -1.
        -11    1    4    4    0    0 -0.92415003361E-02 -0.12253687456E-01 -0.52679775641E-02  0.16234866595E-01  0.51100000000E-03 0. -1.
         11    1    4    4    0    0 -0.96836566824E-01 -0.45108024643E-01 -0.44137668282E-01  0.11558741040E+00  0.51100000000E-03 0.  1.
</event>
<event>
 8    1  0.1143506E+005  0.1043930E+01  0.7957747E-01            NaN
         13   -1    0    0    0    0  0.00000000000E+00  0.00000000000E+00  0.74505805969E-08  0.10566000000E+00  0.10566000000E+00 0.  1.
     999900   -1    0    0    0    0 -0.00000000000E+00 -0.00000000000E+00 -0.74505805969E-08  0.93827000000E+00  0.93827000000E+00 0. -1.
     999902    2    1    2    0    0  0.99013801344E-03  0.23268096996E-01  0.33601999503E-03  0.10206384217E+01  0.10203726232E+01 0.  0.
     999903    2    3    3    0    0 -0.57675865974E-01  0.99134615395E-01  0.64921320806E-01  0.13307507762E+00  0.18439655735E-01 0.  0.
         14    1    1    2    0    0 -0.99013801344E-03 -0.23268096996E-01 -0.33601999503E-03  0.23291578317E-01  0.00000000000E+00 0.  1.
     999901    1    3    3    0    0  0.58666003988E-01 -0.75866518400E-01 -0.64585300811E-01  0.88756334406E+00  0.88000000000E+00 0. -1.
        -11    1    4    4    0    0 -0.47197485790E-01  0.64994485450E-01  0.47746810674E-01  0.93444661990E-01  0.51100000000E-03 0.  1.
         11    1    4    4    0    0 -0.10478380184E-01  0.34140129945E-01  0.17174510132E-01  0.39630415633E-01  0.51100000000E-03 0. -1.
</event>
<event>
 8    1  0.1143506E+005  0.1043930E+01  0.7957747E-01            NaN
         13   -1    0    0    0    0  0.00000000000E+00  0.00000000000E+00  0.74505805969E-08  0.10566000000E+00  0.10566000000E+00 0. -1.
     999900   -1    0    0    0    0 -0.00000000000E+00 -0.00000000000E+00 -0.74505805969E-08  0.93827000000E+00  0.93827000000E+00 0. -1.
     999902    2    1    2    0    0 -0.15744241399E-01  0.16351349968E-01 -0.10525111101E-01  0.10189094935E+01  0.10186022433E+01 0.  0.
     999903    2    3    3    0    0  0.11152521640E+00 -0.32049649295E-01  0.46676849847E-01  0.12660223924E+00  0.19604712606E-01 0.  0.
         14    1    1    2    0    0  0.15744241399E-01 -0.16351349968E-01  0.10525111101E-01  0.25020506524E-01  0.00000000000E+00 0. -1.
     999901    1    3    3    0    0 -0.12726945780E+00  0.48400999262E-01 -0.57201960948E-01  0.89230725423E+00  0.88000000000E+00 0. -1.
        -11    1    4    4    0    0  0.92602230331E-01 -0.33990269946E-01  0.38527829196E-01  0.10590168203E+00  0.51100000000E-03 0.  1.
         11    1    4    4    0    0  0.18922986072E-01  0.19406206516E-02  0.81490206504E-02  0.20700557214E-01  0.51100000000E-03 0. -1.
</event>
<event>
 8    1  0.1143506E+005  0.1043930E+01  0.7957747E-01            NaN
         13   -1    0    0    0    0  0.00000000000E+00  0.00000000000E+00  0.74505805969E-08  0.10566000000E+00  0.10566000000E+00 0. -1.
     999900   -1    0    0    0    0 -0.00000000000E+00 -0.00000000000E+00 -0.74505805969E-08  0.93827000000E+00  0.93827000000E+00 0.  1.
     999902    2    1    2    0    0  0.56342347459E-02 -0.23938558023E-01  0.36622616612E-02  0.10190661443E+01  0.10187627766E+01 0.  0.
     999903    2    3    3    0    0 -0.36505077696E-02 -0.10845335433E+00 -0.72051768757E-01  0.13173217578E+00  0.19658394662E-01 0.  0.
         14    1    1    2    0    0 -0.56342347459E-02  0.23938558023E-01 -0.36622616612E-02  0.24863855732E-01  0.00000000000E+00 0.  1.
     999901    1    3    3    0    0  0.92847425155E-02  0.84514796308E-01  0.75714030418E-01  0.88733396849E+00  0.88000000000E+00 0. -1.
        -11    1    4    4    0    0 -0.10468032461E-01 -0.55794026981E-01 -0.42890638001E-01  0.71150692895E-01  0.51100000000E-03 0.  1.
         11    1    4    4    0    0  0.68175246914E-02 -0.52659327351E-01 -0.29161130756E-01  0.60581482880E-01  0.51100000000E-03 0. -1.
</event>
<event>
 8    1  0.1143506E+005  0.1043930E+01  0.7957747E-01            NaN
         13   -1    0    0    0    0  0.00000000000E+00  0.00000000000E+00  0.74505805969E-08  0.10566000000E+00  0.10566000000E+00 0.  1.
     999900   -1    0    0    0    0 -0.00000000000E+00 -0.00000000000E+00 -0.74505805969E-08  0.93827000000E+00  0.93827000000E+00 0. -1.
     999902    2    1    2    0    0 -0.18894547102E-01  0.41197392367E-02 -0.13322312552E-01  0.10204468108E+01  0.10201765698E+01 0.  0.
     999903    2    3    3    0    0 -0.12353127186E+00 -0.26756631695E-01 -0.37496115877E-01  0.13338054092E+00  0.20211816414E-01 0.  0.
         14    1    1    2    0    0  0.18894547102E-01 -0.41197392367E-02  0.13322312552E-01  0.23483189164E-01  0.00000000000E+00 0.  1.
     999901    1    3    3    0    0  0.10463672476E+00  0.30876370932E-01  0.24173803325E-01  0.88706626991E+00  0.88000000000E+00 0.  1.
        -11    1    4    4    0    0 -0.48044856450E-01 -0.11915841382E-01 -0.24935908012E-01  0.55428838492E-01  0.51100000000E-03 0.  1.
         11    1    4    4    0    0 -0.75486415415E-01 -0.14840790313E-01 -0.12560207865E-01  0.77951702431E-01  0.51100000000E-03 0. -1.
</event>
<event>
 8    1  0.1143506E+005  0.1043930E+01  0.7957747E-01            NaN
         13   -1    0    0    0    0  0.00000000000E+00  0.00000000000E+00  0.74505805969E-08  0.10566000000E+00  0.10566000000E+00 0.  1.
     999900   -1    0    0    0    0 -0.00000000000E+00 -0.00000000000E+00 -0.74505805969E-08  0.93827000000E+00  0.93827000000E+00 0.  1.
     999902    2    1    2    0    0  0.34501344252E-02 -0.12183993567E-01 -0.17966298859E-01  0.10219495309E+01  0.10217131215E+01 0.  0.
     999903    2    3    3    0    0  0.87879259843E-01 -0.21132497210E-01 -0.97273895057E-01  0.13431331728E+00  0.20211625107E-01 0.  0.
         14    1    1    2    0    0 -0.34501344252E-02  0.12183993567E-01  0.17966298859E-01  0.21980469092E-01  0.00000000000E+00 0.  1.
     999901    1    3    3    0    0 -0.84429125418E-01  0.89485036428E-02  0.79307596198E-01  0.88763621363E+00  0.88000000000E+00 0. -1.
        -11    1    4    4    0    0  0.11606075205E-01 -0.16224910631E-02 -0.24217496362E-01  0.26908766415E-01  0.51100000000E-03 0. -1.
         11    1    4    4    0    0  0.76273184637E-01 -0.19510006147E-01 -0.73056398695E-01  0.10740455086E+00  0.51100000000E-03 0.  1.
</event>
<event>
 8    1  0.1143506E+005  0.1043930E+01  0.7957747E-01            NaN
         13   -1    0    0    0    0  0.00000000000E+00  0.00000000000E+00  0.74505805969E-08  0.10566000000E+00  0.10566000000E+00 0.  1.
     999900   -1    0    0    0    0 -0.00000000000E+00 -0.00000000000E+00 -0.74505805969E-08  0.93827000000E+00  0.93827000000E+00 0.  1.
     999902    2    1    2    0    0  0.11672968607E-01  0.33147409542E-02  0.18827621228E-01  0.10215307807E+01  0.10212851761E+01 0.  0.
     999903    2    3    3    0    0  0.33824397308E-01  0.99549079074E-01  0.80110709856E-01  0.13388932687E+00  0.21319404723E-01 0.  0.
         14    1    1    2    0    0 -0.11672968607E-01 -0.33147409542E-02 -0.18827621228E-01  0.22399219290E-01  0.00000000000E+00 0. -1.
     999901    1    3    3    0    0 -0.22151428702E-01 -0.96234338120E-01 -0.61283088628E-01  0.88764145384E+00  0.88000000000E+00 0.  1.
        -11    1    4    4    0    0  0.35045921707E-02  0.38466837810E-01  0.34973575900E-01  0.52109422465E-01  0.51100000000E-03 0.  1.
         11    1    4    4    0    0  0.30319805138E-01  0.61082241264E-01  0.45137133957E-01  0.81779904403E-01  0.51100000000E-03 0. -1.
</event>
<event>
 8    1  0.1143506E+005  0.1043930E+01  0.7957747E-01            NaN
         13   -1    0    0    0    0  0.00000000000E+00  0.00000000000E+00  0.74505805969E-08  0.10566000000E+00  0.10566000000E+00 0. -1.
     999900   -1    0    0    0    0 -0.00000000000E+00 -0.00000000000E+00 -0.74505805969E-08  0.93827000000E+00  0.93827000000E+00 0. -1.
     999902    2    1    2    0    0  0.28646840816E-02 -0.21956320567E-01 -0.91428190762E-02  0.10199742581E+01  0.10196928997E+01 0.  0.
     999903    2    3    3    0    0  0.77824136130E-02  0.44025640797E-01  0.11860182034E+00  0.12829242239E+00  0.19842652194E-01 0.  0.
         14    1    1    2    0    0 -0.28646840816E-02  0.21956320567E-01  0.91428190762E-02  0.23955741867E-01  0.00000000000E+00 0. -1.
     999901    1    3    3    0    0 -0.49177295314E-02 -0.65981961365E-01 -0.12774463942E+00  0.89168183574E+00  0.88000000000E+00 0. -1.
        -11    1    4    4    0    0  0.94617311089E-02  0.34115249105E-01  0.67643755429E-01  0.76349940057E-01  0.51100000000E-03 0.  1.
         11    1    4    4    0    0 -0.16793174960E-02  0.99103916922E-02  0.50958064911E-01  0.51942482336E-01  0.51100000000E-03 0. -1.
</event>
<event>
 8    1  0.1143506E+005  0.1043930E+01  0.7957747E-01            NaN
         13   -1    0    0    0    0  0.00000000000E+00  0.00000000000E+00  0.74505805969E-08  0.10566000000E+00  0.10566000000E+00 0.  1.
     999900   -1    0    0    0    0 -0.00000000000E+00 -0.00000000000E+00 -0.74505805969E-08  0.93827000000E+00  0.93827000000E+00 0.  1.
     999902    2    1    2    0    0  0.15202888847E-01  0.92743016204E-02 -0.14311140707E-01  0.10210837914E+01  0.10208281735E+01 0.  0.
     999903    2    3    3    0    0  0.25021615685E-02 -0.12436337492E+00  0.31438959490E-01  0.12972897498E+00  0.19201274434E-01 0.  0.
         14    1    1    2    0    0 -0.15202888847E-01 -0.92743016204E-02  0.14311140707E-01  0.22846208617E-01  0.00000000000E+00 0.  1.
     999901    1    3    3    0    0  0.12700727279E-01  0.13363767654E+00 -0.45750100197E-01  0.89135481641E+00  0.88000000000E+00 0. -1.
        -11    1    4    4    0    0 -0.38829849729E-02 -0.86746756909E-02  0.55085841675E-02  0.10996962816E-01  0.51100000000E-03 0. -1.
         11    1    4    4    0    0  0.63851465414E-02 -0.11568869923E+00  0.25930375323E-01  0.11873201216E+00  0.51100000000E-03 0.  1.
</event>
<event>
 8    1  0.1143506E+005  0.1043930E+01  0.7957747E-01            NaN
         13   -1    0    0    0    0  0.00000000000E+00  0.00000000000E+00  0.74505805969E-08  0.10566000000E+00  0.10566000000E+00 0. -1.
     999900   -1    0    0    0    0 -0.00000000000E+00 -0.00000000000E+00 -0.74505805969E-08  0.93827000000E+00  0.93827000000E+00 0. -1.
     999902    2    1    2    0    0  0.18905491618E-01  0.14477797932E-01  0.42389645520E-03  0.10201139564E+01  0.10198359084E+01 0.  0.
     999903    2    3    3    0    0 -0.84790953850E-01  0.18153381850E-01 -0.93495419922E-01  0.12905430589E+00  0.19863765854E-01 0.  0.
         14    1    1    2    0    0 -0.18905491618E-01 -0.14477797932E-01 -0.42389645520E-03  0.23816043637E-01  0.00000000000E+00 0.  1.
     999901    1    3    3    0    0  0.10369644547E+00 -0.36755839183E-02  0.93919316377E-01  0.89105965048E+00  0.88000000000E+00 0.  1.
        -11    1    4    4    0    0 -0.32053885173E-01  0.16469838080E-01 -0.41663637655E-01  0.55089263425E-01  0.51100000000E-03 0.  1.
         11    1    4    4    0    0 -0.52737068677E-01  0.16835437704E-02 -0.51831782267E-01  0.73965042461E-01  0.51100000000E-03 0. -1.
</event>
<event>
 8    1  0.1143506E+005  0.1043930E+01  0.7957747E-01            NaN
         13   -1    0    0    0    0  0.00000000000E+00  0.00000000000E+00  0.74505805969E-08  0.10566000000E+00  0.10566000000E+00 0. -1.
     999900   -1    0    0    0    0 -0.00000000000E+00 -0.00000000000E+00 -0.74505805969E-08  0.93827000000E+00  0.93827000000E+00 0. -1.
     999902    2    1    2    0    0  0.64020799811E-02 -0.16883939042E-01  0.14368451275E-01  0.10208538994E+01  0.10205930519E+01 0.  0.
     999903    2    3    3    0    0 -0.53299865833E-01  0.97377412815E-01 -0.61540367407E-01  0.12822736631E+00  0.18215499632E-01 0.  0.
         14    1    1    2    0    0 -0.64020799811E-02  0.16883939042E-01 -0.14368451275E-01  0.23076100574E-01  0.00000000000E+00 0.  1.
     999901    1    3    3    0    0  0.59701945814E-01 -0.11426135186E+00  0.75908818681E-01  0.89262653311E+00  0.88000000000E+00 0. -1.
        -11    1    4    4    0    0 -0.28523735594E-01  0.35922204482E-01 -0.30241843459E-01  0.54943957665E-01  0.51100000000E-03 0. -1.
         11    1    4    4    0    0 -0.24776130239E-01  0.61455208334E-01 -0.31298523948E-01  0.73283408649E-01  0.51100000000E-03 0.  1.
</event>
<event>
 8    1  0.1143506E+005  0.1043930E+01  0.7957747E-01            NaN
         13   -1    0    0    0    0  0.00000000000E+00  0.00000000000E+00  0.74505805969E-08  0.10566000000E+00  0.10566000000E+00 0. -1.
     999900   -1    0    0    0    0 -0.00000000000E+00 -0.00000000000E+00 -0.74505805969E-08  0.93827000000E+00  0.93827000000E+00 0.  1.
     999902    2    1    2    0    0 -0.83249858433E-03 -0.15806450361E-01  0.17189448370E-01  0.10205630562E+01  0.10202955149E+01 0.  0.
     999903    2    3    3    0    0 -0.97099900126E-02 -0.96723597254E-01 -0.85052064569E-01  0.13091159553E+00  0.21313234984E-01 0.  0.
         14    1    1    2    0    0  0.83249858433E-03  0.15806450361E-01 -0.17189448370E-01  0.23366943792E-01  0.00000000000E+00 0.  1.
     999901    1    3    3    0    0  0.88774914283E-02  0.80917146893E-01  0.10224151294E+00  0.88965146068E+00  0.88000000000E+00 0. -1.
        -11    1    4    4    0    0 -0.10781904469E-01 -0.46884205442E-01 -0.30270437362E-01  0.56841346598E-01  0.51100000000E-03 0. -1.
         11    1    4    4    0    0  0.10719144565E-02 -0.49839391811E-01 -0.54781627207E-01  0.74070248934E-01  0.51100000000E-03 0.  1.
</event>
<event>
 8    1  0.1143506E+005  0.1043930E+01  0.7957747E-01            NaN
         13   -1    0    0    0    0  0.00000000000E+00  0.00000000000E+00  0.74505805969E-08  0.10566000000E+00  0.10566000000E+00 0. -1.
     999900   -1    0    0    0    0 -0.00000000000E+00 -0.00000000000E+00 -0.74505805969E-08  0.93827000000E+00  0.93827000000E+00 0. -1.
     999902    2    1    2    0    0 -0.17259751265E-01  0.52732075835E-02  0.15326501833E-01  0.10202528509E+01  0.10199780744E+01 0.  0.
     999903    2    3    3    0    0  0.28356167532E-01 -0.80882245688E-01  0.97242344191E-01  0.13108819830E+00  0.19545647201E-01 0.  0.
         14    1    1    2    0    0  0.17259751265E-01 -0.52732075835E-02 -0.15326501833E-01  0.23677149118E-01  0.00000000000E+00 0.  1.
     999901    1    3    3    0    0 -0.45615918797E-01  0.86155453272E-01 -0.81915842358E-01  0.88916465258E+00  0.88000000000E+00 0. -1.
        -11    1    4    4    0    0  0.44066031072E-02 -0.42045316694E-01  0.46799716489E-01  0.63069020853E-01  0.51100000000E-03 0.  1.
         11    1    4    4    0    0  0.23949564425E-01 -0.38836928994E-01  0.50442627702E-01  0.68019177445E-01  0.51100000000E-03 0. -1.
</event>
<event>
 8    1  0.1143506E+005  0.1043930E+01  0.7957747E-01            NaN
         13   -1    0    0    0    0  0.00000000000E+00  0.00000000000E+00  0.74505805969E-08  0.10566000000E+00  0.10566000000E+00 0.  1.
     999900   -1    0    0    0    0 -0.00000000000E+00 -0.00000000000E+00 -0.74505805969E-08  0.93827000000E+00  0.93827000000E+00 0.  1.
     999902    2    1    2    0    0 -0.81133979917E-02 -0.22954302365E-01 -0.11553677115E-01  0.10169816294E+01  0.10166245225E+01 0.  0.
     999903    2    3    3    0    0  0.91081013299E-01 -0.76206670929E-01  0.43790866733E-01  0.12808435493E+00  0.19615154655E-01 0.  0.
         14    1    1    2    0    0  0.81133979917E-02  0.22954302365E-01  0.11553677115E-01  0.26948370617E-01  0.00000000000E+00 0.  1.
     999901    1    3    3    0    0 -0.99194411291E-01  0.53252368564E-01 -0.55344543848E-01  0.88889727445E+00  0.88000000000E+00 0.  1.
        -11    1    4    4    0    0  0.25991648881E-01 -0.21255468971E-01  0.32286836131E-02  0.33734941702E-01  0.51100000000E-03 0. -1.
         11    1    4    4    0    0  0.65089364418E-01 -0.54951201957E-01  0.40562183120E-01  0.94349413233E-01  0.51100000000E-03 0.  1.
</event>
<event>
 8    1  0.1143506E+005  0.1043930E+01  0.7957747E-01            NaN
         13   -1    0    0    0    0  0.00000000000E+00  0.00000000000E+00  0.74505805969E-08  0.10566000000E+00  0.10566000000E+00 0. -1.
     999900   -1    0    0    0    0 -0.00000000000E+00 -0.00000000000E+00 -0.74505805969E-08  0.93827000000E+00  0.93827000000E+00 0.  1.
     999902    2    1    2    0    0  0.80831519816E-02 -0.10924185336E-01  0.19208367555E-01  0.10204005173E+01  0.10201291973E+01 0.  0.
     999903    2    3    3    0    0  0.94884015216E-01 -0.80560691558E-01 -0.37597622638E-01  0.13157513887E+00  0.20135405923E-01 0.  0.
         14    1    1    2    0    0 -0.80831519816E-02  0.10924185336E-01 -0.19208367555E-01  0.23529482683E-01  0.00000000000E+00 0.  1.
     999901    1    3    3    0    0 -0.86800863235E-01  0.69636506222E-01  0.56805990193E-01  0.88882537845E+00  0.88000000000E+00 0.  1.
        -11    1    4    4    0    0  0.94011546162E-02 -0.11588901745E-01 -0.11043374094E-01  0.18571526167E-01  0.51100000000E-03 0. -1.
         11    1    4    4    0    0  0.85482860600E-01 -0.68971789812E-01 -0.26554248544E-01  0.11300361270E+00  0.51100000000E-03 0.  1.
</event>
<event>
 8    1  0.1143506E+005  0.1043930E+01  0.7957747E-01            NaN
         13   -1    0    0    0    0  0.00000000000E+00  0.00000000000E+00  0.74505805969E-08  0.10566000000E+00  0.10566000000E+00 0.  1.
     999900   -1    0    0    0    0 -0.00000000000E+00 -0.00000000000E+00 -0.74505805969E-08  0.93827000000E+00  0.93827000000E+00 0. -1.
     999902    2    1    2    0    0 -0.13388631268E-01  0.18541889937E-02 -0.19363388746E-01  0.10203157186E+01  0.10200424164E+01 0.  0.
     999903    2    3    3    0    0 -0.73925560719E-01  0.58912206910E-01  0.87012755494E-01  0.13001452161E+00  0.19922840149E-01 0.  0.
         14    1    1    2    0    0  0.13388631268E-01 -0.18541889937E-02  0.19363388746E-01  0.23614281437E-01  0.00000000000E+00 0.  1.
     999901    1    3    3    0    0  0.60536929451E-01 -0.57058017916E-01 -0.10637614424E+00  0.89030119695E+00  0.88000000000E+00 0. -1.
        -11    1    4    4    0    0 -0.48871759051E-01  0.45842862768E-01  0.70574646599E-01  0.97319364790E-01  0.51100000000E-03 0. -1.
         11    1    4    4    0    0 -0.25053801667E-01  0.13069344142E-01  0.16438108895E-01  0.32695156818E-01  0.51100000000E-03 0.  1.
</event>
<event>
 8    1  0.1143506E+005  0.1043930E+01  0.7957747E-01            NaN
         13   -1    0    0    0    0  0.00000000000E+00  0.00000000000E+00  0.74505805969E-08  0.10566000000E+00  0.10566000000E+00 0.  1.
     999900   -1    0    0    0    0 -0.00000000000E+00 -0.00000000000E+00 -0.74505805969E-08  0.93827000000E+00  0.93827000000E+00 0.  1.
     999902    2    1    2    0    0 -0.15940422981E-02  0.22393269959E-01  0.61841705604E-02  0.10206438780E+01  0.10203782055E+01 0.  0.
     999903    2    3    3    0    0 -0.62399045540E-01 -0.84691724356E-01 -0.71348320062E-01  0.12869335726E+00  0.20126310340E-01 0.  0.
         14    1    1    2    0    0  0.15940422981E-02 -0.22393269959E-01 -0.61841705604E-02  0.23286121957E-01  0.00000000000E+00 0. -1.
     999901    1    3    3    0    0  0.60805003242E-01  0.10708499431E+00  0.77532490622E-01  0.89195052079E+00  0.88000000000E+00 0. -1.
        -11    1    4    4    0    0 -0.18533471166E-01 -0.40826745475E-01 -0.25814392101E-01  0.51739314454E-01  0.51100000000E-03 0.  1.
         11    1    4    4    0    0 -0.43865574374E-01 -0.43864978880E-01 -0.45533927961E-01  0.76954042804E-01  0.51100000000E-03 0. -1.
</event>
<event>
 8    1  0.1143506E+005  0.1043930E+01  0.7957747E-01            NaN
         13   -1    0    0    0    0  0.00000000000E+00  0.00000000000E+00  0.74505805969E-08  0.10566000000E+00  0.10566000000E+00 0.  1.
     999900   -1    0    0    0    0 -0.00000000000E+00 -0.00000000000E+00 -0.74505805969E-08  0.93827000000E+00  0.93827000000E+00 0. -1.
     999902    2    1    2    0    0  0.12324968359E-01 -0.16046533041E-01 -0.12009644281E-01  0.10204007071E+01  0.10201293915E+01 0.  0.
     999903    2    3    3    0    0 -0.40794616459E-02  0.47096482773E-01  0.11806291717E+00  0.12845058687E+00  0.18054920628E-01 0.  0.
         14    1    1    2    0    0 -0.12324968359E-01  0.16046533041E-01  0.12009644281E-01  0.23529292881E-01  0.00000000000E+00 0.  1.
     999901    1    3    3    0    0  0.16404430005E-01 -0.63143015815E-01 -0.13007256145E+00  0.89195012025E+00  0.88000000000E+00 0. -1.
        -11    1    4    4    0    0  0.27052973771E-02  0.26079998477E-02  0.22534322145E-01  0.22851194556E-01  0.51100000000E-03 0.  1.
         11    1    4    4    0    0 -0.67847590230E-02  0.44488482926E-01  0.95528595028E-01  0.10559939231E+00  0.51100000000E-03 0. -1.
</event>
<event>
 8    1  0.1143506E+005  0.1043930E+01  0.7957747E-01            NaN
         13   -1    0    0    0    0  0.00000000000E+00  0.00000000000E+00  0.74505805969E-08  0.10566000000E+00  0.10566000000E+00 0.  1.
     999900   -1    0    0    0    0 -0.00000000000E+00 -0.00000000000E+00 -0.74505805969E-08  0.93827000000E+00  0.93827000000E+00 0.  1.
     999902    2    1    2    0    0  0.82558267176E-02  0.42355067634E-02 -0.20924998247E-01  0.10210399641E+01  0.10207833534E+01 0.  0.
     999903    2    3    3    0    0 -0.32921827361E-01 -0.46101752627E-01  0.11341864899E+00  0.12847195299E+00  0.20785438513E-01 0.  0.
         14    1    1    2    0    0 -0.82558267176E-02 -0.42355067634E-02  0.20924998247E-01  0.22890035910E-01  0.00000000000E+00 0.  1.
     999901    1    3    3    0    0  0.41177654078E-01  0.50337259391E-01 -0.13434364724E+00  0.89256801110E+00  0.88000000000E+00 0.  1.
        -11    1    4    4    0    0 -0.73381001464E-02 -0.19151155442E-01  0.59897578169E-01  0.63313469815E-01  0.51100000000E-03 0.  1.
         11    1    4    4    0    0 -0.25583727214E-01 -0.26950597185E-01  0.53521070826E-01  0.65158483179E-01  0.51100000000E-03 0. -1.
</event>
<event>
 8    1  0.1143506E+005  0.1043930E+01  0.7957747E-01            NaN
         13   -1    0    0    0    0  0.00000000000E+00  0.00000000000E+00  0.74505805969E-08  0.10566000000E+00  0.10566000000E+00 0.  1.
     999900   -1    0    0    0    0 -0.00000000000E+00 -0.00000000000E+00 -0.74505805969E-08  0.93827000000E+00  0.93827000000E+00 0. -1.
     999902    2    1    2    0    0  0.11166448672E-01  0.98600725154E-02  0.17898949343E-01  0.10206430295E+01  0.10203773374E+01 0.  0.
     999903    2    3    3    0    0  0.11911170626E+00 -0.52083444106E-01  0.11439520603E-01  0.13186245925E+00  0.18882844361E-01 0.  0.
         14    1    1    2    0    0 -0.11166448672E-01 -0.98600725154E-02 -0.17898949343E-01  0.23286970467E-01  0.00000000000E+00 0. -1.
     999901    1    3    3    0    0 -0.10794525759E+00  0.61943516622E-01  0.64594287401E-02  0.88878057028E+00  0.88000000000E+00 0. -1.
        -11    1    4    4    0    0  0.10675672898E+00 -0.39926048928E-01  0.87604283720E-02  0.11431576791E+00  0.51100000000E-03 0.  1.
         11    1    4    4    0    0  0.12354977273E-01 -0.12157395178E-01  0.26790922311E-02  0.17546691344E-01  0.51100000000E-03 0. -1.
</event>
<event>
 8    1  0.1143506E+005  0.1043930E+01  0.7957747E-01            NaN
         13   -1    0    0    0    0  0.00000000000E+00  0.00000000000E+00  0.74505805969E-08  0.10566000000E+00  0.10566000000E+00 0. -1.
     999900   -1    0    0    0    0 -0.00000000000E+00 -0.00000000000E+00 -0.74505805969E-08  0.93827000000E+00  0.93827000000E+00 0. -1.
     999902    2    1    2    0    0 -0.13489856424E-01 -0.16440017085E-01  0.18721595865E-01  0.10155971826E+01  0.10152018956E+01 0.  0.
     999903    2    3    3    0    0 -0.32131013487E-01 -0.31810536789E-01 -0.11466350096E+00  0.12521786478E+00  0.22079015579E-01 0.  0.
         14    1    1    2    0    0  0.13489856424E-01  0.16440017085E-01 -0.18721595865E-01  0.28332817365E-01  0.00000000000E+00 0.  1.
     999901    1    3    3    0    0  0.18641157063E-01  0.15370519704E-01  0.13338509682E+00  0.89037931786E+00  0.88000000000E+00 0.  1.
        -11    1    4    4    0    0 -0.40197761310E-02 -0.13380506262E-01 -0.17475123209E-01  0.22379401246E-01  0.51100000000E-03 0. -1.
         11    1    4    4    0    0 -0.28111237356E-01 -0.18430030527E-01 -0.97188377750E-01  0.10283846353E+00  0.51100000000E-03 0.  1.
</event>
<event>
 8    1  0.1143506E+005  0.1043930E+01  0.7957747E-01            NaN
         13   -1    0    0    0    0  0.00000000000E+00  0.00000000000E+00  0.74505805969E-08  0.10566000000E+00  0.10566000000E+00 0. -1.
     999900   -1    0    0    0    0 -0.00000000000E+00 -0.00000000000E+00 -0.74505805969E-08  0.93827000000E+00  0.93827000000E+00 0. -1.
     999902    2    1    2    0    0 -0.23289296942E-01  0.33248232100E-02 -0.48534081025E-03  0.10203995653E+01  0.10201282231E+01 0.  0.
     999903    2    3    3    0    0 -0.18551187070E-01 -0.12311828165E+00  0.35579877967E-01  0.13061812671E+00  0.17114598756E-01 0.  0.
         14    1    1    2    0    0  0.23289296942E-01 -0.33248232100E-02  0.48534081025E-03  0.23530434699E-01  0.00000000000E+00 0.  1.
     999901    1    3    3    0    0 -0.47381098724E-02  0.12644310486E+00 -0.36065218777E-01  0.88978143859E+00  0.88000000000E+00 0.  1.
        -11    1    4    4    0    0 -0.55105799429E-02 -0.80787099647E-01  0.17953621242E-01  0.82942845365E-01  0.51100000000E-03 0.  1.
         11    1    4    4    0    0 -0.13040607127E-01 -0.42331182007E-01  0.17626256724E-01  0.47675281346E-01  0.51100000000E-03 0. -1.
</event>
<event>
 8    1  0.1143506E+005  0.1043930E+01  0.7957747E-01            NaN
         13   -1    0    0    0    0  0.00000000000E+00  0.00000000000E+00  0.74505805969E-08  0.10566000000E+00  0.10566000000E+00 0. -1.
     999900   -1    0    0    0    0 -0.00000000000E+00 -0.00000000000E+00 -0.74505805969E-08  0.93827000000E+00  0.93827000000E+00 0.  1.
     999902    2    1    2    0    0  0.13468842441E-01 -0.18236915784E-01  0.11637056878E-01  0.10184463600E+01  0.10181274833E+01 0.  0.
     999903    2    3    3    0    0 -0.38194646449E-01  0.44130341599E-01  0.11303975764E+00  0.12892890735E+00  0.20937007307E-01 0.  0.
         14    1    1    2    0    0 -0.13468842441E-01  0.18236915784E-01 -0.11637056878E-01  0.25483639984E-01  0.00000000000E+00 0.  1.
     999901    1    3    3    0    0  0.51663488890E-01 -0.62367257383E-01 -0.10140270077E+00  0.88951745267E+00  0.88000000000E+00 0.  1.
        -11    1    4    4    0    0 -0.37804820665E-01  0.46112236306E-01  0.10640502632E+00  0.12197472504E+00  0.51100000000E-03 0. -1.
         11    1    4    4    0    0 -0.38982578416E-03 -0.19818947071E-02  0.66347313269E-02  0.69541823065E-02  0.51100000000E-03 0.  1.
</event>
<event>
 8    1  0.1143506E+005  0.1043930E+01  0.7957747E-01            NaN
         13   -1    0    0    0    0  0.00000000000E+00  0.00000000000E+00  0.74505805969E-08  0.10566000000E+00  0.10566000000E+00 0.  1.
     999900   -1    0    0    0    0 -0.00000000000E+00 -0.00000000000E+00 -0.74505805969E-08  0.93827000000E+00  0.93827000000E+00 0.  1.
     999902    2    1    2    0    0 -0.20838662680E-01 -0.11124902067E-01 -0.23820415878E-02  0.10201878975E+01  0.10199115936E+01 0.  0.
     999903    2    3    3    0    0  0.52177325472E-01  0.11472741819E+00  0.11082321427E-01  0.12813889095E+00  0.20295411994E-01 0.  0.
         14    1    1    2    0    0  0.20838662680E-01  0.11124902067E-01  0.23820415878E-02  0.23742102485E-01  0.00000000000E+00 0. -1.
     999901    1    3    3    0    0 -0.73015988153E-01 -0.12585232026E+00 -0.13464363014E-01  0.89204900656E+00  0.88000000000E+00 0.  1.
        -11    1    4    4    0    0  0.48222712210E-01  0.87492889448E-01  0.55075913371E-02  0.10005513660E+00  0.51100000000E-03 0.  1.
         11    1    4    4    0    0  0.39546132624E-02  0.27234528741E-01  0.55747300896E-02  0.28083754350E-01  0.51100000000E-03 0. -1.
</event>
<event>
 8    1  0.1143506E+005  0.1043930E+01  0.7957747E-01            NaN
         13   -1    0    0    0    0  0.00000000000E+00  0.00000000000E+00  0.74505805969E-08  0.10566000000E+00  0.10566000000E+00 0. -1.
     999900   -1    0    0    0    0 -0.00000000000E+00 -0.00000000000E+00 -0.74505805969E-08  0.93827000000E+00  0.93827000000E+00 0.  1.
     999902    2    1    2    0    0  0.13810961660E-01 -0.95444665622E-02 -0.16247927965E-01  0.10205668952E+01  0.10202994427E+01 0.  0.
     999903    2    3    3    0    0  0.86595830848E-01 -0.25659832782E-01 -0.96713842540E-01  0.13375682215E+00  0.19495004335E-01 0.  0.
         14    1    1    2    0    0 -0.13810961660E-01  0.95444665622E-02  0.16247927965E-01  0.23363104826E-01  0.00000000000E+00 0. -1.
     999901    1    3    3    0    0 -0.72784869187E-01  0.16115366220E-01  0.80465914575E-01  0.88681007303E+00  0.88000000000E+00 0. -1.
        -11    1    4    4    0    0  0.13447933477E-01 -0.86085116444E-02 -0.92201716435E-02  0.18445218179E-01  0.51100000000E-03 0.  1.
         11    1    4    4    0    0  0.73147897371E-01 -0.17051321138E-01 -0.87493670896E-01  0.11531160397E+00  0.51100000000E-03 0. -1.
</event>
<event>
 8    1  0.1143506E+005  0.1043930E+01  0.7957747E-01            NaN
         13   -1    0    0    0    0  0.00000000000E+00  0.00000000000E+00  0.74505805969E-08  0.10566000000E+00  0.10566000000E+00 0.  1.
     999900   -1    0    0    0    0 -0.00000000000E+00 -0.00000000000E+00 -0.74505805969E-08  0.93827000000E+00  0.93827000000E+00 0.  1.
     999902    2    1    2    0    0 -0.72426857902E-02 -0.21786668439E-01 -0.36847225314E-02  0.10206772023E+01  0.10204122984E+01 0.  0.
     999903    2    3    3    0    0  0.12145338648E+00  0.31183570203E-01  0.24411831264E-01  0.12929740588E+00  0.19963504735E-01 0.  0.
         14    1    1    2    0    0  0.72426857902E-02  0.21786668439E-01  0.36847225314E-02  0.23252797665E-01  0.00000000000E+00 0. -1.
     999901    1    3    3    0    0 -0.12869607227E+00 -0.52970238642E-01 -0.28096553795E-01  0.89137979646E+00  0.88000000000E+00 0.  1.
        -11    1    4    4    0    0  0.83643344740E-01  0.13244214708E-01  0.11293930520E-01  0.85436715352E-01  0.51100000000E-03 0. -1.
         11    1    4    4    0    0  0.37810041745E-01  0.17939355495E-01  0.13117900744E-01  0.43860690524E-01  0.51100000000E-03 0.  1.
</event>
<event>
 8    1  0.1143506E+005  0.1043930E+01  0.7957747E-01            NaN
         13   -1    0    0    0    0  0.00000000000E+00  0.00000000000E+00  0.74505805969E-08  0.10566000000E+00  0.10566000000E+00 0.  1.
     999900   -1    0    0    0    0 -0.00000000000E+00 -0.00000000000E+00 -0.74505805969E-08  0.93827000000E+00  0.93827000000E+00 0. -1.
     999902    2    1    2    0    0  0.19100306630E-01  0.38546374951E-02 -0.13466786997E-01  0.10202438375E+01  0.10199688493E+01 0.  0.
     999903    2    3    3    0    0  0.84679036879E-01 -0.98495448277E-01  0.57530774476E-02  0.13168010137E+00  0.20848467045E-01 0.  0.
         14    1    1    2    0    0 -0.19100306630E-01 -0.38546374951E-02  0.13466786997E-01  0.23686162534E-01  0.00000000000E+00 0.  1.
     999901    1    3    3    0    0 -0.65578730249E-01  0.10235008577E+00 -0.19219864444E-01  0.88856373610E+00  0.88000000000E+00 0. -1.
        -11    1    4    4    0    0  0.72086880409E-01 -0.78440770623E-01 -0.25937385000E-02  0.10656669941E+00  0.51100000000E-03 0. -1.
         11    1    4    4    0    0  0.12592156470E-01 -0.20054677653E-01  0.83468159476E-02  0.25113401956E-01  0.51100000000E-03 0.  1.
</event>
<event>
 7    1  0.1143506E+005  0.1043930E+01  0.7957747E-01            NaN
         13   -1    0    0    0    0  0.00000000000E+00  0.00000000000E+00  0.74505805969E-08  0.10566000000E+00  0.10566000000E+00 0.  1.
     999900   -1    0    0    0    0 -0.00000000000E+00 -0.00000000000E+00 -0.74505805969E-08  0.93827000000E+00  0.93827000000E+00 0. -1.
     999903    2    1    2    0    0  0.24765698720E-01  0.32914295335E-01 -0.74281203008E-01  0.87101400572E-01  0.19294200964E-01 0.  0.
         14    1    1    2    0    0  0.14935805127E-01  0.34614102309E-01  0.62832942293E-01  0.73274777316E-01  0.00000000000E+00 0.  1.
     999901    1    1    2    0    0 -0.39701503847E-01 -0.67528397643E-01  0.11448260715E-01  0.88355382211E+00  0.88000000000E+00 0. -1.
        -11    1    3    3    0    0  0.68313464731E-02  0.19589527214E-01 -0.21998683574E-01  0.30242686242E-01  0.51100000000E-03 0. -1.
         11    1    3    3    0    0  0.17934352247E-01  0.13324768121E-01 -0.52282519434E-01  0.56858714331E-01  0.51100000000E-03 0.  1.
</event>
<event>
 8    1  0.1143506E+005  0.1043930E+01  0.7957747E-01            NaN
         13   -1    0    0    0    0  0.00000000000E+00  0.00000000000E+00  0.74505805969E-08  0.10566000000E+00  0.10566000000E+00 0.  1.
     999900   -1    0    0    0    0 -0.00000000000E+00 -0.00000000000E+00 -0.74505805969E-08  0.93827000000E+00  0.93827000000E+00 0. -1.
     999902    2    1    2    0    0 -0.56407485448E-02 -0.24257152336E-01  0.15767512866E-01  0.10144538750E+01  0.10140255532E+01 0.  0.
     999903    2    3    3    0    0 -0.10723199604E+00 -0.44716877490E-01  0.49095773917E-01  0.12774639509E+00  0.20259475228E-01 0.  0.
         14    1    1    2    0    0  0.56407485448E-02  0.24257152336E-01 -0.15767512866E-01  0.29476125010E-01  0.00000000000E+00 0. -1.
     999901    1    3    3    0    0  0.10159124749E+00  0.20459725153E-01 -0.33328261051E-01  0.88670747990E+00  0.88000000000E+00 0.  1.
        -11    1    4    4    0    0 -0.87694929940E-01 -0.44609400024E-01  0.40767902422E-01  0.10650202954E+00  0.51100000000E-03 0.  1.
         11    1    4    4    0    0 -0.19537066096E-01 -0.10747746622E-03  0.83278714952E-02  0.21244365551E-01  0.51100000000E-03 0. -1.
</event>
<event>
 8    1  0.1143506E+005  0.1043930E+01  0.7957747E-01            NaN
         13   -1    0    0    0    0  0.00000000000E+00  0.00000000000E+00  0.74505805969E-08  0.10566000000E+00  0.10566000000E+00 0. -1.
     999900   -1    0    0    0    0 -0.00000000000E+00 -0.00000000000E+00 -0.74505805969E-08  0.93827000000E+00  0.93827000000E+00 0.  1.
     999902    2    1    2    0    0 -0.12849092762E-01 -0.42360981498E-03 -0.67762562320E-02  0.10293974063E+01  0.10292948187E+01 0.  0.
     999903    2    3    3    0    0  0.89942568881E-01  0.77645894556E-01  0.64579750342E-01  0.13712353981E+00  0.22666503406E-01 0.  0.
         14    1    1    2    0    0  0.12849092762E-01  0.42360981498E-03  0.67762562320E-02  0.14532593664E-01  0.00000000000E+00 0. -1.
     999901    1    3    3    0    0 -0.10279166164E+00 -0.78069504371E-01 -0.71356006574E-01  0.89227386653E+00  0.88000000000E+00 0.  1.
        -11    1    4    4    0    0  0.19885170996E-01  0.29513518188E-01  0.14231624990E-01  0.38331032496E-01  0.51100000000E-03 0.  1.
         11    1    4    4    0    0  0.70057397886E-01  0.48132376368E-01  0.50348125353E-01  0.98792507311E-01  0.51100000000E-03 0. -1.
</event>
<event>
 8    1  0.1143506E+005  0.1043930E+01  0.7957747E-01            NaN
         13   -1    0    0    0    0  0.00000000000E+00  0.00000000000E+00  0.74505805969E-08  0.10566000000E+00  0.10566000000E+00 0.  1.
     999900   -1    0    0    0    0 -0.00000000000E+00 -0.00000000000E+00 -0.74505805969E-08  0.93827000000E+00  0.93827000000E+00 0.  1.
     999902    2    1    2    0    0  0.10960646168E-01 -0.41580486858E-02 -0.20447521672E-01  0.10203603951E+01  0.10200881381E+01 0.  0.
     999903    2    3    3    0    0  0.11497383922E+00 -0.61970781832E-01 -0.90122347372E-03  0.13213569704E+00  0.19991716341E-01 0.  0.
         14    1    1    2    0    0 -0.10960646168E-01  0.41580486858E-02  0.20447521672E-01  0.23569604914E-01  0.00000000000E+00 0.  1.
     999901    1    3    3    0    0 -0.10401319305E+00  0.57812733146E-01 -0.19546298198E-01  0.88822469804E+00  0.88000000000E+00 0. -1.
        -11    1    4    4    0    0  0.31034946661E-01 -0.22126299603E-01  0.74663833381E-02  0.38842618984E-01  0.51100000000E-03 0. -1.
         11    1    4    4    0    0  0.83938892562E-01 -0.39844482229E-01 -0.83676068118E-02  0.93293078057E-01  0.51100000000E-03 0.  1.
</event>
<event>
 8    1  0.1143506E+005  0.1043930E+01  0.7957747E-01            NaN
         13   -1    0    0    0    0  0.00000000000E+00  0.00000000000E+00  0.74505805969E-08  0.10566000000E+00  0.10566000000E+00 0. -1.
     999900   -1    0    0    0    0 -0.00000000000E+00 -0.00000000000E+00 -0.74505805969E-08  0.93827000000E+00  0.93827000000E+00 0. -1.
     999902    2    1    2    0    0 -0.18086360191E-01 -0.40495205843E-02 -0.90571501242E-02  0.10233012092E+01  0.10230932595E+01 0.  0.
     999903    2    3    3    0    0  0.12115731931E+00 -0.38374899890E-01  0.24734605273E-01  0.13105185129E+00  0.20274566921E-01 0.  0.
         14    1    1    2    0    0  0.18086360191E-01  0.40495205843E-02  0.90571501242E-02  0.20628790810E-01  0.00000000000E+00 0. -1.
     999901    1    3    3    0    0 -0.13924367950E+00  0.34325379305E-01 -0.33791755397E-01  0.89224935790E+00  0.88000000000E+00 0.  1.
        -11    1    4    4    0    0  0.16536660487E-01 -0.12998095830E-01  0.38422018854E-02  0.21387736477E-01  0.51100000000E-03 0.  1.
         11    1    4    4    0    0  0.10462065882E+00 -0.25376804060E-01  0.20892403388E-01  0.10966411481E+00  0.51100000000E-03 0. -1.
</event>
<event>
 8    1  0.1143506E+005  0.1043930E+01  0.7957747E-01            NaN
         13   -1    0    0    0    0  0.00000000000E+00  0.00000000000E+00  0.74505805969E-08  0.10566000000E+00  0.10566000000E+00 0. -1.
     999900   -1    0    0    0    0 -0.00000000000E+00 -0.00000000000E+00 -0.74505805969E-08  0.93827000000E+00  0.93827000000E+00 0. -1.
     999902    2    1    2    0    0 -0.20587273402E-01  0.29115227101E-02 -0.10443777814E-01  0.10206623124E+01  0.10203970652E+01 0.  0.
     999903    2    3    3    0    0  0.12388976630E+00  0.16340640989E-01 -0.23385542070E-01  0.12868616616E+00  0.19938782329E-01 0.  0.
         14    1    1    2    0    0  0.20587273402E-01 -0.29115227101E-02  0.10443777814E-01  0.23267687587E-01  0.00000000000E+00 0. -1.
     999901    1    3    3    0    0 -0.14447703971E+00 -0.13429118279E-01  0.12941764257E-01  0.89197614625E+00  0.88000000000E+00 0. -1.
        -11    1    4    4    0    0  0.73937238747E-01  0.16065150378E-02 -0.19357960237E-01  0.76447942482E-01  0.51100000000E-03 0. -1.
         11    1    4    4    0    0  0.49952527556E-01  0.14734125952E-01 -0.40275818329E-02  0.52238223680E-01  0.51100000000E-03 0.  1.
</event>
<event>
 8    1  0.1143506E+005  0.1043930E+01  0.7957747E-01            NaN
         13   -1    0    0    0    0  0.00000000000E+00  0.00000000000E+00  0.74505805969E-08  0.10566000000E+00  0.10566000000E+00 0.  1.
     999900   -1    0    0    0    0 -0.00000000000E+00 -0.00000000000E+00 -0.74505805969E-08  0.93827000000E+00  0.93827000000E+00 0.  1.
     999902    2    1    2    0    0 -0.11898843723E-01  0.18091891729E-01  0.93426567647E-02  0.10203464408E+01  0.10200738576E+01 0.  0.
     999903    2    3    3    0    0  0.87634092329E-01  0.11245441356E-01 -0.91667583499E-01  0.12896731391E+00  0.20577368731E-01 0.  0.
         14    1    1    2    0    0  0.11898843723E-01 -0.18091891729E-01 -0.93426567647E-02  0.23583559182E-01  0.00000000000E+00 0. -1.
     999901    1    3    3    0    0 -0.99532936052E-01  0.68464503725E-02  0.10101024026E+00  0.89137912690E+00  0.88000000000E+00 0. -1.
        -11    1    4    4    0    0  0.51851718194E-01  0.46368367167E-03 -0.64505176505E-01  0.82764694159E-01  0.51100000000E-03 0.  1.
         11    1    4    4    0    0  0.35782374136E-01  0.10781757685E-01 -0.27162406994E-01  0.46202619755E-01  0.51100000000E-03 0. -1.
</event>
<event>
 8    1  0.1143506E+005  0.1043930E+01  0.7957747E-01            NaN
         13   -1    0    0    0    0  0.00000000000E+00  0.00000000000E+00  0.74505805969E-08  0.10566000000E+00  0.10566000000E+00 0. -1.
     999900   -1    0    0    0    0 -0.00000000000E+00 -0.00000000000E+00 -0.74505805969E-08  0.93827000000E+00  0.93827000000E+00 0. -1.
     999902    2    1    2    0    0  0.14425789721E-01 -0.35289687059E-02 -0.55182119821E-02  0.10280867777E+01  0.10279646953E+01 0.  0.
     999903    2    3    3    0    0  0.61656542072E-01 -0.49580284231E-02 -0.12268047275E+00  0.13906496609E+00  0.21504770951E-01 0.  0.
         14    1    1    2    0    0 -0.14425789721E-01  0.35289687059E-02  0.55182119821E-02  0.15843222295E-01  0.00000000000E+00 0. -1.
     999901    1    3    3    0    0 -0.47230752352E-01  0.14290597172E-02  0.11716226077E+00  0.88902181162E+00  0.88000000000E+00 0.  1.
        -11    1    4    4    0    0  0.58302856994E-01 -0.65936203095E-03 -0.10023439044E+00  0.11596056243E+00  0.51100000000E-03 0. -1.
         11    1    4    4    0    0  0.33536850788E-02 -0.42986663921E-02 -0.22446082307E-01  0.23104403656E-01  0.51100000000E-03 0.  1.
</event>
<event>
 8    1  0.1143506E+005  0.1043930E+01  0.7957747E-01            NaN
         13   -1    0    0    0    0  0.00000000000E+00  0.00000000000E+00  0.74505805969E-08  0.10566000000E+00  0.10566000000E+00 0. -1.
     999900   -1    0    0    0    0 -0.00000000000E+00 -0.00000000000E+00 -0.74505805969E-08  0.93827000000E+00  0.93827000000E+00 0.  1.
     999902    2    1    2    0    0  0.82382061817E-02  0.77090792378E-02  0.21776868881E-01  0.10194038922E+01  0.10191088095E+01 0.  0.
     999903    2    3    3    0    0  0.51486011173E-01  0.10800998173E+00  0.52188261447E-01  0.13212969760E+00  0.20437143949E-01 0.  0.
         14    1    1    2    0    0 -0.82382061817E-02 -0.77090792378E-02 -0.21776868881E-01  0.24526107764E-01  0.00000000000E+00 0.  1.
     999901    1    3    3    0    0 -0.43247804992E-01 -0.10030090250E+00 -0.30411392566E-01  0.88727419464E+00  0.88000000000E+00 0.  1.
        -11    1    4    4    0    0  0.45402006858E-01  0.95855773490E-01  0.38511290418E-01  0.11284082660E+00  0.51100000000E-03 0.  1.
         11    1    4    4    0    0  0.60840043151E-02  0.12154208245E-01  0.13676971029E-01  0.19288870991E-01  0.51100000000E-03 0. -1.
</event>
<event>
 8    1  0.1143506E+005  0.1043930E+01  0.7957747E-01            NaN
         13   -1    0    0    0    0  0.00000000000E+00  0.00000000000E+00  0.74505805969E-08  0.10566000000E+00  0.10566000000E+00 0.  1.
     999900   -1    0    0    0    0 -0.00000000000E+00 -0.00000000000E+00 -0.74505805969E-08  0.93827000000E+00  0.93827000000E+00 0.  1.
     999902    2    1    2    0    0 -0.13831454217E-01 -0.17934199110E-01  0.42722429577E-02  0.10208822955E+01  0.10206220968E+01 0.  0.
     999903    2    3    3    0    0 -0.10666877910E+00 -0.64891047301E-01  0.43103032449E-01  0.13390340921E+00  0.21981245145E-01 0.  0.
         14    1    1    2    0    0  0.13831454217E-01  0.17934199110E-01 -0.42722429577E-02  0.23047704514E-01  0.00000000000E+00 0.  1.
     999901    1    3    3    0    0  0.92837324882E-01  0.46956848191E-01 -0.38830789491E-01  0.88697888627E+00  0.88000000000E+00 0.  1.
        -11    1    4    4    0    0 -0.93193971608E-02 -0.13536903123E-01  0.86048994907E-02  0.18558133685E-01  0.51100000000E-03 0. -1.
         11    1    4    4    0    0 -0.97349381938E-01 -0.51354144178E-01  0.34498132958E-01  0.11534527553E+00  0.51100000000E-03 0.  1.
</event>
<event>
 8    1  0.1143506E+005  0.1043930E+01  0.7957747E-01            NaN
         13   -1    0    0    0    0  0.00000000000E+00  0.00000000000E+00  0.74505805969E-08  0.10566000000E+00  0.10566000000E+00 0.  1.
     999900   -1    0    0    0    0 -0.00000000000E+00 -0.00000000000E+00 -0.74505805969E-08  0.93827000000E+00  0.93827000000E+00 0. -1.
     999902    2    1    2    0    0  0.14617236295E-01 -0.80567492601E-02  0.13283121008E-01  0.10225988934E+01  0.10223763889E+01 0.  0.
     999903    2    3    3    0    0 -0.11387038607E+00 -0.56865388241E-01  0.28189832130E-01  0.13180511120E+00  0.19436653527E-01 0.  0.
         14    1    1    2    0    0 -0.14617236295E-01  0.80567492601E-02 -0.13283121008E-01  0.21331106611E-01  0.00000000000E+00 0.  1.
     999901    1    3    3    0    0  0.12848762237E+00  0.48808638981E-01 -0.14906711122E-01  0.89079378218E+00  0.88000000000E+00 0.  1.
        -11    1    4    4    0    0 -0.43765474801E-01 -0.25713810259E-01  0.22165267798E-02  0.50811326833E-01  0.51100000000E-03 0. -1.
         11    1    4    4    0    0 -0.70104911271E-01 -0.31151577982E-01  0.25973305351E-01  0.80993784372E-01  0.51100000000E-03 0.  1.
</event>
<event>
 8    1  0.1143506E+005  0.1043930E+01  0.7957747E-01            NaN
         13   -1    0    0    0    0  0.00000000000E+00  0.00000000000E+00  0.74505805969E-08  0.10566000000E+00  0.10566000000E+00 0.  1.
     999900   -1    0    0    0    0 -0.00000000000E+00 -0.00000000000E+00 -0.74505805969E-08  0.93827000000E+00  0.93827000000E+00 0. -1.
     999902    2    1    2    0    0  0.90939147729E-02 -0.21829844883E-01 -0.35308576084E-02  0.10200195761E+01  0.10197392938E+01 0.  0.
     999903    2    3    3    0    0 -0.78419727078E-01 -0.10342827654E+00 -0.10859761453E-01  0.13189196460E+00  0.20748347504E-01 0.  0.
         14    1    1    2    0    0 -0.90939147729E-02  0.21829844883E-01  0.35308576084E-02  0.23910423856E-01  0.00000000000E+00 0.  1.
     999901    1    3    3    0    0  0.87513641851E-01  0.81598431656E-01  0.73289038450E-02  0.88812761155E+00  0.88000000000E+00 0. -1.
        -11    1    4    4    0    0 -0.48574233420E-01 -0.76908468395E-01 -0.13084215309E-01  0.91901177764E-01  0.51100000000E-03 0.  1.
         11    1    4    4    0    0 -0.29845493658E-01 -0.26519808143E-01  0.22244538558E-02  0.39990786834E-01  0.51100000000E-03 0. -1.
</event>
<event>
 8    1  0.1143506E+005  0.1043930E+01  0.7957747E-01            NaN
         13   -1    0    0    0    0  0.00000000000E+00  0.00000000000E+00  0.74505805969E-08  0.10566000000E+00  0.10566000000E+00 0.  1.
     999900   -1    0    0    0    0 -0.00000000000E+00 -0.00000000000E+00 -0.74505805969E-08  0.93827000000E+00  0.93827000000E+00 0. -1.
     999902    2    1    2    0    0 -0.81309854143E-02 -0.96152639835E-02  0.20189292896E-01  0.10201355937E+01  0.10198580566E+01 0.  0.
     999903    2    3    3    0    0  0.42733791884E-02  0.11517646832E+00  0.57702317505E-01  0.13045358770E+00  0.20117168666E-01 0.  0.
         14    1    1    2    0    0  0.81309854143E-02  0.96152639835E-02 -0.20189292896E-01  0.23794406336E-01  0.00000000000E+00 0. -1.
     999901    1    3    3    0    0 -0.12404364603E-01 -0.12479173230E+00 -0.37513024609E-01  0.88968200596E+00  0.88000000000E+00 0. -1.
        -11    1    4    4    0    0 -0.70485461119E-02  0.71058957202E-01  0.36861993751E-01  0.80362460796E-01  0.51100000000E-03 0.  1.
         11    1    4    4    0    0  0.11321925300E-01  0.44117511118E-01  0.20840323754E-01  0.50091126908E-01  0.51100000000E-03 0. -1.
</event>
<event>
 8    1  0.1143506E+005  0.1043930E+01  0.7957747E-01            NaN
         13   -1    0    0    0    0  0.00000000000E+00  0.00000000000E+00  0.74505805969E-08  0.10566000000E+00  0.10566000000E+00 0. -1.
     999900   -1    0    0    0    0 -0.00000000000E+00 -0.00000000000E+00 -0.74505805969E-08  0.93827000000E+00  0.93827000000E+00 0.  1.
     999902    2    1    2    0    0 -0.12823546184E-01 -0.62314201198E-02  0.18157270151E-01  0.10208440650E+01  0.10205829926E+01 0.  0.
     999903    2    3    3    0    0 -0.19335379533E-01  0.10592122658E+00  0.73654648817E-01  0.13196804491E+00  0.19934754633E-01 0.  0.
         14    1    1    2    0    0  0.12823546184E-01  0.62314201198E-02 -0.18157270151E-01  0.23085934956E-01  0.00000000000E+00 0.  1.
     999901    1    3    3    0    0  0.65118333492E-02 -0.11215264670E+00 -0.55497378666E-01  0.88887602014E+00  0.88000000000E+00 0. -1.
        -11    1    4    4    0    0 -0.93258929283E-02  0.74965521873E-01  0.60839885673E-01  0.96997703882E-01  0.51100000000E-03 0. -1.
         11    1    4    4    0    0 -0.10009486604E-01  0.30955704707E-01  0.12814763144E-01  0.34970341026E-01  0.51100000000E-03 0.  1.
</event>
<event>
 8    1  0.1143506E+005  0.1043930E+01  0.7957747E-01            NaN
         13   -1    0    0    0    0  0.00000000000E+00  0.00000000000E+00  0.74505805969E-08  0.10566000000E+00  0.10566000000E+00 0.  1.
     999900   -1    0    0    0    0 -0.00000000000E+00 -0.00000000000E+00 -0.74505805969E-08  0.93827000000E+00  0.93827000000E+00 0. -1.
     999902    2    1    2    0    0  0.63165479609E-02  0.21333896928E-01  0.11414407914E-01  0.10189235479E+01  0.10186166472E+01 0.  0.
     999903    2    3    3    0    0 -0.10157226369E-02 -0.38409762275E-01 -0.11956558169E+00  0.12719554868E+00  0.20160301253E-01 0.  0.
         14    1    1    2    0    0 -0.63165479609E-02 -0.21333896928E-01 -0.11414407914E-01  0.25006452053E-01  0.00000000000E+00 0. -1.
     999901    1    3    3    0    0  0.73322705978E-02  0.59743659203E-01  0.13097998961E+00  0.89172799927E+00  0.88000000000E+00 0.  1.
        -11    1    4    4    0    0  0.50734179457E-02 -0.69542395294E-03 -0.16010632901E-01  0.16817391920E-01  0.51100000000E-03 0.  1.
         11    1    4    4    0    0 -0.60891405826E-02 -0.37714338323E-01 -0.10355494879E+00  0.11037815675E+00  0.51100000000E-03 0. -1.
</event>
<event>
 8    1  0.1143506E+005  0.1043930E+01  0.7957747E-01            NaN
         13   -1    0    0    0    0  0.00000000000E+00  0.00000000000E+00  0.74505805969E-08  0.10566000000E+00  0.10566000000E+00 0.  1.
     999900   -1    0    0    0    0 -0.00000000000E+00 -0.00000000000E+00 -0.74505805969E-08  0.93827000000E+00  0.93827000000E+00 0.  1.
     999902    2    1    2    0    0  0.91471445540E-02  0.46044067476E-02  0.39302466479E-03  0.10336818156E+01  0.10336310128E+01 0.  0.
     999903    2    3    3    0    0  0.12930491401E+00  0.19305515556E-01 -0.55977191399E-01  0.14360787855E+00  0.19932714545E-01 0.  0.
         14    1    1    2    0    0 -0.91471445540E-02 -0.46044067476E-02 -0.39302466479E-03  0.10248184394E-01  0.00000000000E+00 0.  1.
     999901    1    3    3    0    0 -0.12015776945E+00 -0.14701108808E-01  0.56370216064E-01  0.89007393705E+00  0.88000000000E+00 0. -1.
        -11    1    4    4    0    0  0.93225326275E-01  0.99842010006E-02 -0.31030890556E-01  0.98761445000E-01  0.51100000000E-03 0.  1.
         11    1    4    4    0    0  0.36079587730E-01  0.93213145553E-02 -0.24946300843E-01  0.44846433554E-01  0.51100000000E-03 0. -1.
</event>
<event>
 8    1  0.1143506E+005  0.1043930E+01  0.7957747E-01            NaN
         13   -1    0    0    0    0  0.00000000000E+00  0.00000000000E+00  0.74505805969E-08  0.10566000000E+00  0.10566000000E+00 0. -1.
     999900   -1    0    0    0    0 -0.00000000000E+00 -0.00000000000E+00 -0.74505805969E-08  0.93827000000E+00  0.93827000000E+00 0. -1.
     999902    2    1    2    0    0  0.22932746728E-01  0.57362292927E-02 -0.42668073165E-03  0.10202868772E+01  0.10200128992E+01 0.  0.
     999903    2    3    3    0    0 -0.11509962854E+00 -0.49785101750E-01 -0.12860785661E-01  0.12771185975E+00  0.20455768514E-01 0.  0.
         14    1    1    2    0    0 -0.22932746728E-01 -0.57362292927E-02  0.42668073165E-03  0.23643122794E-01  0.00000000000E+00 0. -1.
     999901    1    3    3    0    0  0.13803237527E+00  0.55521331043E-01  0.12434104930E-01  0.89257501746E+00  0.88000000000E+00 0. -1.
        -11    1    4    4    0    0 -0.48241749922E-01 -0.18108663482E-01  0.44716066186E-02  0.51724718611E-01  0.51100000000E-03 0. -1.
         11    1    4    4    0    0 -0.66857878621E-01 -0.31676438268E-01 -0.17332392280E-01  0.75987141137E-01  0.51100000000E-03 0.  1.
</event>
<event>
 8    1  0.1143506E+005  0.1043930E+01  0.7957747E-01            NaN
         13   -1    0    0    0    0  0.00000000000E+00  0.00000000000E+00  0.74505805969E-08  0.10566000000E+00  0.10566000000E+00 0.  1.
     999900   -1    0    0    0    0 -0.00000000000E+00 -0.00000000000E+00 -0.74505805969E-08  0.93827000000E+00  0.93827000000E+00 0. -1.
     999902    2    1    2    0    0 -0.19099700520E-01  0.40492071638E-02  0.12727401032E-01  0.10206237481E+01  0.10203576108E+01 0.  0.
     999903    2    3    3    0    0 -0.12522474091E+00 -0.21537109958E-01 -0.32753709130E-01  0.13271287694E+00  0.19870062965E-01 0.  0.
         14    1    1    2    0    0  0.19099700520E-01 -0.40492071638E-02 -0.12727401032E-01  0.23306251857E-01  0.00000000000E+00 0.  1.
     999901    1    3    3    0    0  0.10612504039E+00  0.25586317121E-01  0.45481110162E-01  0.88791087120E+00  0.88000000000E+00 0. -1.
        -11    1    4    4    0    0 -0.62250992681E-01 -0.49316163381E-02 -0.76542645238E-02  0.62915465633E-01  0.51100000000E-03 0.  1.
         11    1    4    4    0    0 -0.62973748229E-01 -0.16605493619E-01 -0.25099444606E-01  0.69797411305E-01  0.51100000000E-03 0. -1.
</event>
<event>
 8    1  0.1143506E+005  0.1043930E+01  0.7957747E-01            NaN
         13   -1    0    0    0    0  0.00000000000E+00  0.00000000000E+00  0.74505805969E-08  0.10566000000E+00  0.10566000000E+00 0. -1.
     999900   -1    0    0    0    0 -0.00000000000E+00 -0.00000000000E+00 -0.74505805969E-08  0.93827000000E+00  0.93827000000E+00 0.  1.
     999902    2    1    2    0    0 -0.18729758216E-01 -0.12985217390E-01 -0.78837578016E-02  0.10198141681E+01  0.10195289913E+01 0.  0.
     999903    2    3    3    0    0  0.86593493233E-01 -0.74642109478E-01 -0.58816790212E-01  0.12993286505E+00  0.18795133203E-01 0.  0.
         14    1    1    2    0    0  0.18729758216E-01  0.12985217390E-01  0.78837578016E-02  0.24115831948E-01  0.00000000000E+00 0. -1.
     999901    1    3    3    0    0 -0.10532325145E+00  0.61656892088E-01  0.50933032411E-01  0.88988130300E+00  0.88000000000E+00 0.  1.
        -11    1    4    4    0    0  0.43778729980E-01 -0.49800264477E-01 -0.31846976715E-01  0.73560414542E-01  0.51100000000E-03 0.  1.
         11    1    4    4    0    0  0.42814763253E-01 -0.24841845001E-01 -0.26969813497E-01  0.56372450510E-01  0.51100000000E-03 0. -1.
</event>
<event>
 8    1  0.1143506E+005  0.1043930E+01  0.7957747E-01            NaN
         13   -1    0    0    0    0  0.00000000000E+00  0.00000000000E+00  0.74505805969E-08  0.10566000000E+00  0.10566000000E+00 0. -1.
     999900   -1    0    0    0    0 -0.00000000000E+00 -0.00000000000E+00 -0.74505805969E-08  0.93827000000E+00  0.93827000000E+00 0.  1.
     999902    2    1    2    0    0 -0.12966243708E-01  0.55929579805E-02 -0.21685012370E-01  0.10180525114E+01  0.10177235732E+01 0.  0.
     999903    2    3    3    0    0 -0.12231903704E+00  0.12711098777E-01 -0.40689236964E-01  0.13105202555E+00  0.19887195457E-01 0.  0.
         14    1    1    2    0    0  0.12966243708E-01 -0.55929579805E-02  0.21685012370E-01  0.25877488602E-01  0.00000000000E+00 0. -1.
     999901    1    3    3    0    0  0.10935279333E+00 -0.71181407969E-02  0.19004224595E-01  0.88700048585E+00  0.88000000000E+00 0. -1.
        -11    1    4    4    0    0 -0.41316535913E-01  0.10576979159E-01 -0.21564713793E-01  0.47793583565E-01  0.51100000000E-03 0. -1.
         11    1    4    4    0    0 -0.81002501123E-01  0.21341196185E-02 -0.19124523172E-01  0.83258441988E-01  0.51100000000E-03 0.  1.
</event>
<event>
 8    1  0.1143506E+005  0.1043930E+01  0.7957747E-01            NaN
         13   -1    0    0    0    0  0.00000000000E+00  0.00000000000E+00  0.74505805969E-08  0.10566000000E+00  0.10566000000E+00 0. -1.
     999900   -1    0    0    0    0 -0.00000000000E+00 -0.00000000000E+00 -0.74505805969E-08  0.93827000000E+00  0.93827000000E+00 0. -1.
     999902    2    1    2    0    0  0.63257546862E-02 -0.81161303402E-02  0.20091906903E-01  0.10213563103E+01  0.10211068216E+01 0.  0.
     999903    2    3    3    0    0  0.31829868644E-01  0.56746516585E-01  0.11474289000E+00  0.13354077123E+00  0.20830244663E-01 0.  0.
         14    1    1    2    0    0 -0.63257546862E-02  0.81161303402E-02 -0.20091906903E-01  0.22573689708E-01  0.00000000000E+00 0.  1.
     999901    1    3    3    0    0 -0.25504113957E-01 -0.64862646925E-01 -0.94650983099E-01  0.88781553906E+00  0.88000000000E+00 0. -1.
        -11    1    4    4    0    0  0.13438340559E-01  0.68991309921E-02  0.27949110655E-01  0.31774217738E-01  0.51100000000E-03 0. -1.
         11    1    4    4    0    0  0.18391528085E-01  0.49847385593E-01  0.86793779347E-01  0.10176655349E+00  0.51100000000E-03 0.  1.
</event>
<event>
 8    1  0.1143506E+005  0.1043930E+01  0.7957747E-01            NaN
         13   -1    0    0    0    0  0.00000000000E+00  0.00000000000E+00  0.74505805969E-08  0.10566000000E+00  0.10566000000E+00 0.  1.
     999900   -1    0    0    0    0 -0.00000000000E+00 -0.00000000000E+00 -0.74505805969E-08  0.93827000000E+00  0.93827000000E+00 0. -1.
     999902    2    1    2    0    0  0.83457920460E-02 -0.15669775603E-01  0.16423545326E-01  0.10197447369E+01  0.10194578958E+01 0.  0.
     999903    2    3    3    0    0  0.22522547948E-02 -0.95613316352E-01 -0.86739949909E-01  0.13009828593E+00  0.15961396394E-01 0.  0.
         14    1    1    2    0    0 -0.83457920460E-02  0.15669775603E-01 -0.16423545326E-01  0.24185263145E-01  0.00000000000E+00 0. -1.
     999901    1    3    3    0    0  0.60935372512E-02  0.79943540750E-01  0.10316349523E+00  0.88964645093E+00  0.88000000000E+00 0. -1.
        -11    1    4    4    0    0  0.72489993526E-02 -0.33921749824E-01 -0.25759625024E-01  0.43209402971E-01  0.51100000000E-03 0. -1.
         11    1    4    4    0    0 -0.49967445578E-02 -0.61691566528E-01 -0.60980324885E-01  0.86888882954E-01  0.51100000000E-03 0.  1.
</event>
<event>
 8    1  0.1143506E+005  0.1043930E+01  0.7957747E-01            NaN
         13   -1    0    0    0    0  0.00000000000E+00  0.00000000000E+00  0.74505805969E-08  0.10566000000E+00  0.10566000000E+00 0. -1.
     999900   -1    0    0    0    0 -0.00000000000E+00 -0.00000000000E+00 -0.74505805969E-08  0.93827000000E+00  0.93827000000E+00 0. -1.
     999902    2    1    2    0    0  0.20843572990E-01  0.58710686804E-02  0.63266252577E-02  0.10213700760E+01  0.10211208949E+01 0.  0.
     999903    2    3    3    0    0  0.80832025361E-01  0.46244937746E-01  0.94219119926E-01  0.13404051248E+00  0.20425617156E-01 0.  0.
         14    1    1    2    0    0 -0.20843572990E-01 -0.58710686804E-02 -0.63266252577E-02  0.22559923972E-01  0.00000000000E+00 0. -1.
     999901    1    3    3    0    0 -0.59988452371E-01 -0.40373869066E-01 -0.87892494668E-01  0.88732956354E+00  0.88000000000E+00 0. -1.
        -11    1    4    4    0    0  0.50515336698E-02  0.29940595520E-02  0.38621467841E-03  0.59070015910E-02  0.51100000000E-03 0. -1.
         11    1    4    4    0    0  0.75780491691E-01  0.43250878194E-01  0.93832905247E-01  0.12813351089E+00  0.51100000000E-03 0.  1.
</event>
<event>
 8    1  0.1143506E+005  0.1043930E+01  0.7957747E-01            NaN
         13   -1    0    0    0    0  0.00000000000E+00  0.00000000000E+00  0.74505805969E-08  0.10566000000E+00  0.10566000000E+00 0.  1.
     999900   -1    0    0    0    0 -0.00000000000E+00 -0.00000000000E+00 -0.74505805969E-08  0.93827000000E+00  0.93827000000E+00 0. -1.
     999902    2    1    2    0    0 -0.16980861461E-01  0.31049600812E-02  0.15002842167E-01  0.10210591516E+01  0.10208029758E+01 0.  0.
     999903    2    3    3    0    0  0.46705798487E-01  0.10393929684E+00  0.63278583213E-01  0.13170314792E+00  0.18887324826E-01 0.  0.
         14    1    1    2    0    0  0.16980861461E-01 -0.31049600812E-02 -0.15002842167E-01  0.22870848391E-01  0.00000000000E+00 0. -1.
     999901    1    3    3    0    0 -0.63686659948E-01 -0.10083433676E+00 -0.48275741046E-01  0.88935600369E+00  0.88000000000E+00 0. -1.
        -11    1    4    4    0    0  0.34504872765E-01  0.56475097826E-01  0.41113417590E-01  0.77914036899E-01  0.51100000000E-03 0.  1.
         11    1    4    4    0    0  0.12200925722E-01  0.47464199012E-01  0.22165165623E-01  0.53789111021E-01  0.51100000000E-03 0. -1.
</event>
<event>
 8    1  0.1143506E+005  0.1043930E+01  0.7957747E-01            NaN
         13   -1    0    0    0    0  0.00000000000E+00  0.00000000000E+00  0.74505805969E-08  0.10566000000E+00  0.10566000000E+00 0. -1.
     999900   -1    0    0    0    0 -0.00000000000E+00 -0.00000000000E+00 -0.74505805969E-08  0.93827000000E+00  0.93827000000E+00 0. -1.
     999902    2    1    2    0    0 -0.39905805481E-02  0.22305020078E-01 -0.74103902588E-02  0.10200898545E+01  0.10198112368E+01 0.  0.
     999903    2    3    3    0    0  0.44812071083E-01 -0.55445874704E-01 -0.10683439598E+00  0.12974608192E+00  0.18387247566E-01 0.  0.
         14    1    1    2    0    0  0.39905805481E-02 -0.22305020078E-01  0.74103902588E-02  0.23840145502E-01  0.00000000000E+00 0. -1.
     999901    1    3    3    0    0 -0.48802651631E-01  0.77750894782E-01  0.99424005725E-01  0.89034377257E+00  0.88000000000E+00 0.  1.
        -11    1    4    4    0    0  0.14594880207E-01 -0.91019185642E-02 -0.35677354908E-01  0.39610481240E-01  0.51100000000E-03 0.  1.
         11    1    4    4    0    0  0.30217190876E-01 -0.46343956140E-01 -0.71157041076E-01  0.90135600685E-01  0.51100000000E-03 0. -1.
</event>
<event>
 8    1  0.1143506E+005  0.1043930E+01  0.7957747E-01            NaN
         13   -1    0    0    0    0  0.00000000000E+00  0.00000000000E+00  0.74505805969E-08  0.10566000000E+00  0.10566000000E+00 0.  1.
     999900   -1    0    0    0    0 -0.00000000000E+00 -0.00000000000E+00 -0.74505805969E-08  0.93827000000E+00  0.93827000000E+00 0. -1.
     999902    2    1    2    0    0 -0.12185646986E-01 -0.17512147025E-01 -0.90167900653E-02  0.10207682257E+01  0.10205054154E+01 0.  0.
     999903    2    3    3    0    0 -0.11275754945E+00 -0.27220755703E-01  0.60431488201E-01  0.13226835062E+00  0.19690538609E-01 0.  0.
         14    1    1    2    0    0  0.12185646986E-01  0.17512147025E-01  0.90167900653E-02  0.23161774306E-01  0.00000000000E+00 0.  1.
     999901    1    3    3    0    0  0.10057190247E+00  0.97086086779E-02 -0.69448278267E-01  0.88849987507E+00  0.88000000000E+00 0.  1.
        -11    1    4    4    0    0 -0.85936228542E-01 -0.14966052978E-01  0.37687214945E-01  0.95024235903E-01  0.51100000000E-03 0. -1.
         11    1    4    4    0    0 -0.26821320910E-01 -0.12254702725E-01  0.22744273257E-01  0.37244114719E-01  0.51100000000E-03 0.  1.
</event>
<event>
 8    1  0.1143506E+005  0.1043930E+01  0.7957747E-01            NaN
         13   -1    0    0    0    0  0.00000000000E+00  0.00000000000E+00  0.74505805969E-08  0.10566000000E+00  0.10566000000E+00 0. -1.
     999900   -1    0    0    0    0 -0.00000000000E+00 -0.00000000000E+00 -0.74505805969E-08  0.93827000000E+00  0.93827000000E+00 0.  1.
     999902    2    1    2    0    0 -0.12760377095E-01 -0.19373873500E-01  0.48388274134E-02  0.10202321425E+01  0.10199568796E+01 0.  0.
     999903    2    3    3    0    0  0.26089509328E-01  0.10974627400E+00 -0.52109827751E-01  0.12814219443E+00  0.31306240460E-01 0.  0.
         14    1    1    2    0    0  0.12760377095E-01  0.19373873500E-01 -0.48388274134E-02  0.23697857471E-01  0.00000000000E+00 0.  1.
     999901    1    3    3    0    0 -0.38849886423E-01 -0.12912014750E+00  0.56948655165E-01  0.89208994809E+00  0.88000000000E+00 0. -1.
        -11    1    4    4    0    0  0.13614109132E-02  0.23932345571E-01  0.14244552845E-02  0.24018759295E-01  0.51100000000E-03 0. -1.
         11    1    4    4    0    0  0.24728098415E-01  0.85813928431E-01 -0.53534283036E-01  0.10412343514E+00  0.51100000000E-03 0.  1.
</event>
<event>
 8    1  0.1325513E+005  0.1043930E+01  0.7957747E-01            NaN
         13   -1    0    0    0    0  0.00000000000E+00  0.00000000000E+00  0.74505805969E-08  0.10566000000E+00  0.10566000000E+00 0.  1.
     999900   -1    0    0    0    0 -0.00000000000E+00 -0.00000000000E+00 -0.74505805969E-08  0.93827000000E+00  0.93827000000E+00 0.  1.
     999902    2    1    2    0    0 -0.83823547866E-02 -0.10990440250E-01 -0.87534625883E-02  0.10275691701E+01  0.10274389143E+01 0.  0.
     999903    2    3    3    0    0  0.93597344852E-01  0.95125674157E-01  0.89269517515E-02  0.13517178890E+00  0.19554160658E-01 0.  0.
         14    1    1    2    0    0  0.83823547866E-02  0.10990440250E-01  0.87534625883E-02  0.16360829928E-01  0.00000000000E+00 0.  1.
     999901    1    3    3    0    0 -0.10197969964E+00 -0.10611611441E+00 -0.17680414340E-01  0.89239738117E+00  0.88000000000E+00 0. -1.
        -11    1    4    4    0    0  0.32142674521E-01  0.27180045853E-01  0.11077685206E-01  0.43530249810E-01  0.51100000000E-03 0. -1.
         11    1    4    4    0    0  0.61454670331E-01  0.67945628304E-01 -0.21507334541E-02  0.91641539088E-01  0.51100000000E-03 0.  1.
</event>
<event>
 8    1  0.1143506E+005  0.1043930E+01  0.7957747E-01            NaN
         13   -1    0    0    0    0  0.00000000000E+00  0.00000000000E+00  0.74505805969E-08  0.10566000000E+00  0.10566000000E+00 0. -1.
     999900   -1    0    0    0    0 -0.00000000000E+00 -0.00000000000E+00 -0.74505805969E-08  0.93827000000E+00  0.93827000000E+00 0.  1.
     999902    2    1    2    0    0 -0.36051910419E-02 -0.55076455546E-02 -0.22669254263E-01  0.10203243513E+01  0.10200512513E+01 0.  0.
     999903    2    3    3    0    0  0.45783945730E-01  0.76749209534E-01  0.89425799881E-01  0.12804032801E+00  0.20266747701E-01 0.  0.
         14    1    1    2    0    0  0.36051910419E-02  0.55076455546E-02  0.22669254263E-01  0.23605648706E-01  0.00000000000E+00 0. -1.
     999901    1    3    3    0    0 -0.49389136772E-01 -0.82256855089E-01 -0.11209505414E+00  0.89228402328E+00  0.88000000000E+00 0.  1.
        -11    1    4    4    0    0  0.39582121781E-01  0.66987328416E-01  0.66490163472E-01  0.10234866630E+00  0.51100000000E-03 0.  1.
         11    1    4    4    0    0  0.62018239491E-02  0.97618811179E-02  0.22935636409E-01  0.25691661716E-01  0.51100000000E-03 0. -1.
</event>
<event>
 8    1  0.1143506E+005  0.1043930E+01  0.7957747E-01            NaN
         13   -1    0    0    0    0  0.00000000000E+00  0.00000000000E+00  0.74505805969E-08  0.10566000000E+00  0.10566000000E+00 0.  1.
     999900   -1    0    0    0    0 -0.00000000000E+00 -0.00000000000E+00 -0.74505805969E-08  0.93827000000E+00  0.93827000000E+00 0.  1.
     999902    2    1    2    0    0 -0.16444407410E-01  0.16269619024E-01  0.35974312009E-02  0.10205193069E+01  0.10202507512E+01 0.  0.
     999903    2    3    3    0    0  0.11147320037E+00  0.42467127793E-01  0.47120865662E-01  0.12982097799E+00  0.20084297388E-01 0.  0.
         14    1    1    2    0    0  0.16444407410E-01 -0.16269619024E-01 -0.35974312009E-02  0.23410693059E-01  0.00000000000E+00 0. -1.
     999901    1    3    3    0    0 -0.12791760778E+00 -0.26197508769E-01 -0.43523434462E-01  0.89069832895E+00  0.88000000000E+00 0. -1.
        -11    1    4    4    0    0  0.58628143411E-01  0.14229497035E-01  0.30694947636E-01  0.67691792095E-01  0.51100000000E-03 0.  1.
         11    1    4    4    0    0  0.52845056962E-01  0.28237630758E-01  0.16425918026E-01  0.62129185896E-01  0.51100000000E-03 0. -1.
</event>
<event>
 8    1  0.1143506E+005  0.1043930E+01  0.7957747E-01            NaN
         13   -1    0    0    0    0  0.00000000000E+00  0.00000000000E+00  0.74505805969E-08  0.10566000000E+00  0.10566000000E+00 0.  1.
     999900   -1    0    0    0    0 -0.00000000000E+00 -0.00000000000E+00 -0.74505805969E-08  0.93827000000E+00  0.93827000000E+00 0.  1.
     999902    2    1    2    0    0 -0.18038091616E-01  0.49948754531E-02 -0.14975223075E-01  0.10199596259E+01  0.10196779195E+01 0.  0.
     999903    2    3    3    0    0  0.11958039676E+00  0.11318932530E-01  0.38717772973E-01  0.12762461038E+00  0.19010147466E-01 0.  0.
         14    1    1    2    0    0  0.18038091616E-01 -0.49948754531E-02  0.14975223075E-01  0.23970374133E-01  0.00000000000E+00 0.  1.
     999901    1    3    3    0    0 -0.13761848838E+00 -0.63240570773E-02 -0.53692996047E-01  0.89233501549E+00  0.88000000000E+00 0.  1.
        -11    1    4    4    0    0  0.30342490040E-01  0.59257016515E-02  0.18268538029E-01  0.35913524537E-01  0.51100000000E-03 0. -1.
         11    1    4    4    0    0  0.89237906723E-01  0.53932308790E-02  0.20449234944E-01  0.91711085842E-01  0.51100000000E-03 0.  1.
</event>
<event>
 8    1  0.1143506E+005  0.1043930E+01  0.7957747E-01            NaN
         13   -1    0    0    0    0  0.00000000000E+00  0.00000000000E+00  0.74505805969E-08  0.10566000000E+00  0.10566000000E+00 0. -1.
     999900   -1    0    0    0    0 -0.00000000000E+00 -0.00000000000E+00 -0.74505805969E-08  0.93827000000E+00  0.93827000000E+00 0. -1.
     999902    2    1    2    0    0  0.21375618079E-01  0.45596905193E-02  0.97336276880E-02  0.10200040448E+01  0.10197233939E+01 0.  0.
     999903    2    3    3    0    0  0.72493836289E-01  0.31592589390E-01 -0.10277356683E+00  0.13095864735E+00  0.18284235624E-01 0.  0.
         14    1    1    2    0    0 -0.21375618079E-01 -0.45596905193E-02 -0.97336276880E-02  0.23925955234E-01  0.00000000000E+00 0.  1.
     999901    1    3    3    0    0 -0.51118218210E-01 -0.27032898871E-01  0.11250719452E+00  0.88904539742E+00  0.88000000000E+00 0.  1.
        -11    1    4    4    0    0  0.30411353313E-01  0.18056935787E-01 -0.33102625685E-01  0.48445312349E-01  0.51100000000E-03 0. -1.
         11    1    4    4    0    0  0.42082482975E-01  0.13535653603E-01 -0.69670941142E-01  0.82513334998E-01  0.51100000000E-03 0.  1.
</event>
<event>
 8    1  0.1143506E+005  0.1043930E+01  0.7957747E-01            NaN
         13   -1    0    0    0    0  0.00000000000E+00  0.00000000000E+00  0.74505805969E-08  0.10566000000E+00  0.10566000000E+00 0. -1.
     999900   -1    0    0    0    0 -0.00000000000E+00 -0.00000000000E+00 -0.74505805969E-08  0.93827000000E+00  0.93827000000E+00 0.  1.
     999902    2    1    2    0    0 -0.18793763338E-01 -0.12743530927E-01 -0.43139716666E-02  0.10208169415E+01  0.10205552482E+01 0.  0.
     999903    2    3    3    0    0 -0.59334651716E-01 -0.92822186566E-01 -0.72745168606E-01  0.13360840716E+00  0.20561801852E-01 0.  0.
         14    1    1    2    0    0  0.18793763338E-01  0.12743530927E-01  0.43139716666E-02  0.23113058483E-01  0.00000000000E+00 0. -1.
     999901    1    3    3    0    0  0.40540888378E-01  0.80078655639E-01  0.68431196940E-01  0.88720853436E+00  0.88000000000E+00 0.  1.
        -11    1    4    4    0    0 -0.54292277844E-01 -0.81142574746E-01 -0.55931962402E-01  0.11251850696E+00  0.51100000000E-03 0.  1.
         11    1    4    4    0    0 -0.50423738723E-02 -0.11679611820E-01 -0.16813206204E-01  0.21089900199E-01  0.51100000000E-03 0. -1.
</event>
<event>
 8    1  0.1143506E+005  0.1043930E+01  0.7957747E-01            NaN
         13   -1    0    0    0    0  0.00000000000E+00  0.00000000000E+00  0.74505805969E-08  0.10566000000E+00  0.10566000000E+00 0.  1.
     999900   -1    0    0    0    0 -0.00000000000E+00 -0.00000000000E+00 -0.74505805969E-08  0.93827000000E+00  0.93827000000E+00 0. -1.
     999902    2    1    2    0    0  0.32063846514E-01  0.41009483334E-02  0.68739525581E-02  0.10108821672E+01  0.10103418217E+01 0.  0.
     999903    2    3    3    0    0  0.21842696415E-01 -0.38616194725E-01 -0.11167935850E+00  0.12184667082E+00  0.20149893127E-01 0.  0.
         14    1    1    2    0    0 -0.32063846514E-01 -0.41009483334E-02 -0.68739525581E-02  0.33047832823E-01  0.00000000000E+00 0.  1.
     999901    1    3    3    0    0  0.10221150099E-01  0.42717143058E-01  0.11855331106E+00  0.88903549636E+00  0.88000000000E+00 0.  1.
        -11    1    4    4    0    0  0.86853756333E-02 -0.86900959255E-03 -0.19340896007E-01  0.21225510758E-01  0.51100000000E-03 0. -1.
         11    1    4    4    0    0  0.13157320782E-01 -0.37747185132E-01 -0.92338462494E-01  0.10062116006E+00  0.51100000000E-03 0.  1.
</event>
<event>
 8    1  0.1143506E+005  0.1043930E+01  0.7957747E-01            NaN
         13   -1    0    0    0    0  0.00000000000E+00  0.00000000000E+00  0.74505805969E-08  0.10566000000E+00  0.10566000000E+00 0.  1.
     999900   -1    0    0    0    0 -0.00000000000E+00 -0.00000000000E+00 -0.74505805969E-08  0.93827000000E+00  0.93827000000E+00 0. -1.
     999902    2    1    2    0    0 -0.15582599970E-01 -0.16424916962E-01  0.81346263540E-02  0.10198724136E+01  0.10195886291E+01 0.  0.
     999903    2    3    3    0    0 -0.80102455000E-01 -0.45895259185E-01 -0.91451845667E-01  0.13141938826E+00  0.19617273578E-01 0.  0.
         14    1    1    2    0    0  0.15582599970E-01  0.16424916962E-01 -0.81346263540E-02  0.24057586433E-01  0.00000000000E+00 0. -1.
     999901    1    3    3    0    0  0.64519855030E-01  0.29470342223E-01  0.99586472021E-01  0.88845302530E+00  0.88000000000E+00 0.  1.
        -11    1    4    4    0    0 -0.19515583130E-01 -0.11248409595E-01 -0.35124963635E-01  0.41730191645E-01  0.51100000000E-03 0. -1.
         11    1    4    4    0    0 -0.60586871870E-01 -0.34646849590E-01 -0.56326882032E-01  0.89689196618E-01  0.51100000000E-03 0.  1.
</event>
<event>
 8    1  0.1143506E+005  0.1043930E+01  0.7957747E-01            NaN
         13   -1    0    0    0    0  0.00000000000E+00  0.00000000000E+00  0.74505805969E-08  0.10566000000E+00  0.10566000000E+00 0.  1.
     999900   -1    0    0    0    0 -0.00000000000E+00 -0.00000000000E+00 -0.74505805969E-08  0.93827000000E+00  0.93827000000E+00 0.  1.
     999902    2    1    2    0    0 -0.13255995205E-02  0.22082581238E-02  0.22920932485E-01  0.10208648149E+01  0.10206042169E+01 0.  0.
     999903    2    3    3    0    0 -0.65947108285E-01 -0.18168547971E-01 -0.10739754276E+00  0.12869103215E+00  0.18655624845E-01 0.  0.
         14    1    1    2    0    0  0.13255995205E-02 -0.22082581238E-02 -0.22920932485E-01  0.23065185107E-01  0.00000000000E+00 0. -1.
     999901    1    3    3    0    0  0.64621508764E-01  0.20376806095E-01  0.13031847525E+00  0.89217378274E+00  0.88000000000E+00 0. -1.
        -11    1    4    4    0    0 -0.31641944888E-01 -0.17809667238E-01 -0.49517031192E-01  0.61405166089E-01  0.51100000000E-03 0. -1.
         11    1    4    4    0    0 -0.34305163397E-01 -0.35888073304E-03 -0.57880511569E-01  0.67285866061E-01  0.51100000000E-03 0.  1.
</event>
<event>
 8    1  0.1143506E+005  0.1043930E+01  0.7957747E-01            NaN
         13   -1    0    0    0    0  0.00000000000E+00  0.00000000000E+00  0.74505805969E-08  0.10566000000E+00  0.10566000000E+00 0.  1.
     999900   -1    0    0    0    0 -0.00000000000E+00 -0.00000000000E+00 -0.74505805969E-08  0.93827000000E+00  0.93827000000E+00 0.  1.
     999902    2    1    2    0    0 -0.13665812772E-01 -0.19883826953E-01 -0.34565466110E-02  0.10195564749E+01  0.10192650964E+01 0.  0.
     999903    2    3    3    0    0 -0.84322093368E-01  0.18231983370E-01 -0.96416018673E-01  0.13102589665E+00  0.20715122199E-01 0.  0.
         14    1    1    2    0    0  0.13665812772E-01  0.19883826953E-01  0.34565466110E-02  0.24373525135E-01  0.00000000000E+00 0.  1.
     999901    1    3    3    0    0  0.70656280596E-01 -0.38115810323E-01  0.92959472062E-01  0.88853057822E+00  0.88000000000E+00 0. -1.
        -11    1    4    4    0    0 -0.42016000214E-01  0.19101800507E-01 -0.55173796492E-01  0.71934915006E-01  0.51100000000E-03 0.  1.
         11    1    4    4    0    0 -0.42306093154E-01 -0.86981713742E-03 -0.41242222182E-01  0.59090981641E-01  0.51100000000E-03 0. -1.
</event>
<event>
 8    1  0.1143506E+005  0.1043930E+01  0.7957747E-01            NaN
         13   -1    0    0    0    0  0.00000000000E+00  0.00000000000E+00  0.74505805969E-08  0.10566000000E+00  0.10566000000E+00 0. -1.
     999900   -1    0    0    0    0 -0.00000000000E+00 -0.00000000000E+00 -0.74505805969E-08  0.93827000000E+00  0.93827000000E+00 0. -1.
     999902    2    1    2    0    0  0.11357663543E-01 -0.49693628973E-03 -0.20769483273E-01  0.10202526923E+01  0.10199779121E+01 0.  0.
     999903    2    3    3    0    0  0.38482698146E-01 -0.45819975626E-01  0.11215459942E+00  0.12870417582E+00  0.20142553946E-01 0.  0.
         14    1    1    2    0    0 -0.11357663543E-01  0.49693628973E-03  0.20769483273E-01  0.23677307749E-01  0.00000000000E+00 0. -1.
     999901    1    3    3    0    0 -0.27125034602E-01  0.45323039336E-01 -0.13292408269E+00  0.89154851643E+00  0.88000000000E+00 0. -1.
        -11    1    4    4    0    0  0.19051441025E-01 -0.28460455952E-01  0.81891569364E-01  0.88766239146E-01  0.51100000000E-03 0.  1.
         11    1    4    4    0    0  0.19431257120E-01 -0.17359519674E-01  0.30263030052E-01  0.39937936671E-01  0.51100000000E-03 0. -1.
</event>
<event>
 7    1  0.1143506E+005  0.1043930E+01  0.7957747E-01            NaN
         13   -1    0    0    0    0  0.00000000000E+00  0.00000000000E+00  0.74505805969E-08  0.10566000000E+00  0.10566000000E+00 0. -1.
     999900   -1    0    0    0    0 -0.00000000000E+00 -0.00000000000E+00 -0.74505805969E-08  0.93827000000E+00  0.93827000000E+00 0.  1.
     999903    2    1    2    0    0  0.53651849588E-01 -0.14442109767E-01 -0.29040560761E-01  0.65704629881E-01  0.19663385260E-01 0.  0.
         14    1    1    2    0    0  0.51346506248E-01 -0.56421669297E-01  0.45831015032E-01  0.88996350537E-01  0.00000000000E+00 0. -1.
     999901    1    1    2    0    0 -0.10499835584E+00  0.70863779063E-01 -0.16790454271E-01  0.88922901958E+00  0.88000000000E+00 0.  1.
        -11    1    3    3    0    0  0.40349491846E-01 -0.65085100811E-02 -0.11844113693E-01  0.42555685236E-01  0.51100000000E-03 0. -1.
         11    1    3    3    0    0  0.13302357741E-01 -0.79335996855E-02 -0.17196447067E-01  0.23148944645E-01  0.51100000000E-03 0.  1.
</event>
<event>
 8    1  0.1143506E+005  0.1043930E+01  0.7957747E-01            NaN
         13   -1    0    0    0    0  0.00000000000E+00  0.00000000000E+00  0.74505805969E-08  0.10566000000E+00  0.10566000000E+00 0. -1.
     999900   -1    0    0    0    0 -0.00000000000E+00 -0.00000000000E+00 -0.74505805969E-08  0.93827000000E+00  0.93827000000E+00 0. -1.
     999902    2    1    2    0    0  0.22638961366E-01 -0.52245551428E-02  0.20141483435E-02  0.10206088649E+01  0.10203423836E+01 0.  0.
     999903    2    3    3    0    0 -0.88562104638E-01 -0.35698448932E-01  0.84707613966E-01  0.12924331446E+00  0.20268912998E-01 0.  0.
         14    1    1    2    0    0 -0.22638961366E-01  0.52245551428E-02 -0.20141483435E-02  0.23321135087E-01  0.00000000000E+00 0.  1.
     999901    1    3    3    0    0  0.11120106600E+00  0.30473893789E-01 -0.82693465622E-01  0.89136555046E+00  0.88000000000E+00 0. -1.
        -11    1    4    4    0    0 -0.36638020669E-01 -0.12918371453E-01  0.47748438026E-01  0.61558129718E-01  0.51100000000E-03 0.  1.
         11    1    4    4    0    0 -0.51924083969E-01 -0.22780077479E-01  0.36959175940E-01  0.67685184739E-01  0.51100000000E-03 0. -1.
</event>
<event>
 8    1  0.1143506E+005  0.1043930E+01  0.7957747E-01            NaN
         13   -1    0    0    0    0  0.00000000000E+00  0.00000000000E+00  0.74505805969E-08  0.10566000000E+00  0.10566000000E+00 0. -1.
     999900   -1    0    0    0    0 -0.00000000000E+00 -0.00000000000E+00 -0.74505805969E-08  0.93827000000E+00  0.93827000000E+00 0. -1.
     999902    2    1    2    0    0  0.14217316715E-01  0.86862194504E-02 -0.16012466144E-01  0.10208219587E+01  0.10205603802E+01 0.  0.
     999903    2    3    3    0    0 -0.16350834510E-01  0.58751362232E-01  0.11252674154E+00  0.12955137218E+00  0.20055376339E-01 0.  0.
         14    1    1    2    0    0 -0.14217316715E-01 -0.86862194504E-02  0.16012466144E-01  0.23108041347E-01  0.00000000000E+00 0. -1.
     999901    1    3    3    0    0  0.30568151224E-01 -0.50065142781E-01 -0.12853920768E+00  0.89127058647E+00  0.88000000000E+00 0.  1.
        -11    1    4    4    0    0 -0.19754083627E-01  0.36302326466E-01  0.68254256847E-01  0.79793404649E-01  0.51100000000E-03 0.  1.
         11    1    4    4    0    0  0.34032491173E-02  0.22449035766E-01  0.44272484693E-01  0.49757967536E-01  0.51100000000E-03 0. -1.
</event>
<event>
 8    1  0.1143506E+005  0.1043930E+01  0.7957747E-01            NaN
         13   -1    0    0    0    0  0.00000000000E+00  0.00000000000E+00  0.74505805969E-08  0.10566000000E+00  0.10566000000E+00 0.  1.
     999900   -1    0    0    0    0 -0.00000000000E+00 -0.00000000000E+00 -0.74505805969E-08  0.93827000000E+00  0.93827000000E+00 0. -1.
     999902    2    1    2    0    0  0.61623141461E-02  0.13978207574E-01 -0.17452612357E-01  0.10207360766E+01  0.10204725278E+01 0.  0.
     999903    2    3    3    0    0 -0.13773936267E-01 -0.52850572096E-01 -0.11866473133E+00  0.13219376876E+00  0.20272388750E-01 0.  0.
         14    1    1    2    0    0 -0.61623141461E-02 -0.13978207574E-01  0.17452612357E-01  0.23193923357E-01  0.00000000000E+00 0.  1.
     999901    1    3    3    0    0  0.19936250413E-01  0.66828779670E-01  0.10121211897E+00  0.88854230788E+00  0.88000000000E+00 0.  1.
        -11    1    4    4    0    0  0.16436183466E-02 -0.14038163961E-01 -0.15978675755E-01  0.21338948628E-01  0.51100000000E-03 0.  1.
         11    1    4    4    0    0 -0.15417554614E-01 -0.38812408135E-01 -0.10268605558E+00  0.11085482013E+00  0.51100000000E-03 0. -1.
</event>
<event>
 8    1  0.1143506E+005  0.1043930E+01  0.7957747E-01            NaN
         13   -1    0    0    0    0  0.00000000000E+00  0.00000000000E+00  0.74505805969E-08  0.10566000000E+00  0.10566000000E+00 0.  1.
     999900   -1    0    0    0    0 -0.00000000000E+00 -0.00000000000E+00 -0.74505805969E-08  0.93827000000E+00  0.93827000000E+00 0.  1.
     999902    2    1    2    0    0 -0.19547699375E-02 -0.66629362664E-02 -0.22720424891E-01  0.10201721897E+01  0.10198955157E+01 0.  0.
     999903    2    3    3    0    0 -0.70578555176E-01  0.82089814899E-01  0.66566684568E-01  0.12856775794E+00  0.19454426901E-01 0.  0.
         14    1    1    2    0    0  0.19547699375E-02  0.66629362664E-02  0.22720424891E-01  0.23757810346E-01  0.00000000000E+00 0.  1.
     999901    1    3    3    0    0  0.68623785238E-01 -0.88752751166E-01 -0.89287109459E-01  0.89160443172E+00  0.88000000000E+00 0.  1.
        -11    1    4    4    0    0 -0.10157976801E-01  0.24438986357E-01  0.15327113010E-01  0.30588070568E-01  0.51100000000E-03 0.  1.
         11    1    4    4    0    0 -0.60420578374E-01  0.57650828542E-01  0.51239571558E-01  0.97979687370E-01  0.51100000000E-03 0. -1.
</event>
<event>
 8    1  0.1143506E+005  0.1043930E+01  0.7957747E-01            NaN
         13   -1    0    0    0    0  0.00000000000E+00  0.00000000000E+00  0.74505805969E-08  0.10566000000E+00  0.10566000000E+00 0.  1.
     999900   -1    0    0    0    0 -0.00000000000E+00 -0.00000000000E+00 -0.74505805969E-08  0.93827000000E+00  0.93827000000E+00 0.  1.
     999902    2    1    2    0    0  0.74808189640E-02  0.66032304912E-02  0.21079202539E-01  0.10206083773E+01  0.10203418847E+01 0.  0.
     999903    2    3    3    0    0 -0.27663896302E-02 -0.28693248119E-02  0.13197121615E+00  0.13353917298E+00  0.20010569499E-01 0.  0.
         14    1    1    2    0    0 -0.74808189640E-02 -0.66032304912E-02 -0.21079202539E-01  0.23321622691E-01  0.00000000000E+00 0. -1.
     999901    1    3    3    0    0  0.10247208594E-01  0.94725553030E-02 -0.11089201361E+00  0.88706920433E+00  0.88000000000E+00 0.  1.
        -11    1    4    4    0    0  0.54205324699E-02 -0.82127656706E-02  0.84241691730E-01  0.84816009330E-01  0.51100000000E-03 0. -1.
         11    1    4    4    0    0 -0.81869221001E-02  0.53434408587E-02  0.47729524419E-01  0.48723163649E-01  0.51100000000E-03 0.  1.
</event>
<event>
 8    1  0.1143506E+005  0.1043930E+01  0.7957747E-01            NaN
         13   -1    0    0    0    0  0.00000000000E+00  0.00000000000E+00  0.74505805969E-08  0.10566000000E+00  0.10566000000E+00 0.  1.
     999900   -1    0    0    0    0 -0.00000000000E+00 -0.00000000000E+00 -0.74505805969E-08  0.93827000000E+00  0.93827000000E+00 0.  1.
     999902    2    1    2    0    0  0.23574241682E-01 -0.57854178561E-02  0.78256430392E-02  0.10184259490E+01  0.10181065548E+01 0.  0.
     999903    2    3    3    0    0  0.46607812916E-01  0.11189923883E+00 -0.39366272309E-01  0.12904003683E+00  0.20196530223E-01 0.  0.
         14    1    1    2    0    0 -0.23574241682E-01  0.57854178561E-02 -0.78256430392E-02  0.25504051043E-01  0.00000000000E+00 0.  1.
     999901    1    3    3    0    0 -0.23033571234E-01 -0.11768465669E+00  0.47191915348E-01  0.88938591213E+00  0.88000000000E+00 0. -1.
        -11    1    4    4    0    0  0.60222214028E-02  0.41257992580E-02  0.50599947081E-04  0.73179950462E-02  0.51100000000E-03 0.  1.
         11    1    4    4    0    0  0.40585591513E-01  0.10777343957E+00 -0.39416872256E-01  0.12172204178E+00  0.51100000000E-03 0. -1.
</event>
<event>
 8    1  0.1143506E+005  0.1043930E+01  0.7957747E-01            NaN
         13   -1    0    0    0    0  0.00000000000E+00  0.00000000000E+00  0.74505805969E-08  0.10566000000E+00  0.10566000000E+00 0. -1.
     999900   -1    0    0    0    0 -0.00000000000E+00 -0.00000000000E+00 -0.74505805969E-08  0.93827000000E+00  0.93827000000E+00 0. -1.
     999902    2    1    2    0    0  0.10077045784E-01 -0.20259829507E-01  0.67287174549E-02  0.10203231539E+01  0.10200500259E+01 0.  0.
     999903    2    3    3    0    0 -0.11535048898E+00 -0.54764689520E-01  0.18117426099E-01  0.13068707409E+00  0.21117852160E-01 0.  0.
         14    1    1    2    0    0 -0.10077045784E-01  0.20259829507E-01 -0.67287174549E-02  0.23606846083E-01  0.00000000000E+00 0. -1.
     999901    1    3    3    0    0  0.12542753477E+00  0.34504860013E-01 -0.11388708644E-01  0.88963607983E+00  0.88000000000E+00 0.  1.
        -11    1    4    4    0    0 -0.25345403794E-01 -0.97763056992E-02  0.12496911489E-01  0.29906513745E-01  0.51100000000E-03 0. -1.
         11    1    4    4    0    0 -0.90005085187E-01 -0.44988383821E-01  0.56205146091E-02  0.10078056035E+00  0.51100000000E-03 0.  1.
</event>
<event>
 8    1  0.1143506E+005  0.1043930E+01  0.7957747E-01            NaN
         13   -1    0    0    0    0  0.00000000000E+00  0.00000000000E+00  0.74505805969E-08  0.10566000000E+00  0.10566000000E+00 0.  1.
     999900   -1    0    0    0    0 -0.00000000000E+00 -0.00000000000E+00 -0.74505805969E-08  0.93827000000E+00  0.93827000000E+00 0. -1.
     999902    2    1    2    0    0  0.18591116826E-02  0.45182480418E-02  0.23230760857E-01  0.10201910213E+01  0.10199147909E+01 0.  0.
     999903    2    3    3    0    0  0.12620852278E+00  0.12348540107E-02 -0.25929660172E-01  0.13008411548E+00  0.17872149771E-01 0.  0.
         14    1    1    2    0    0 -0.18591116826E-02 -0.45182480418E-02 -0.23230760857E-01  0.23738978740E-01  0.00000000000E+00 0. -1.
     999901    1    3    3    0    0 -0.12434941110E+00  0.32833940311E-02  0.49160421029E-01  0.89010690578E+00  0.88000000000E+00 0. -1.
        -11    1    4    4    0    0  0.75095814360E-02 -0.15617256524E-02 -0.58617579966E-02  0.96671675360E-02  0.51100000000E-03 0.  1.
         11    1    4    4    0    0  0.11869894134E+00  0.27965796631E-02 -0.20067902175E-01  0.12041694795E+00  0.51100000000E-03 0. -1.
</event>
<event>
 8    1  0.1143506E+005  0.1043930E+01  0.7957747E-01            NaN
         13   -1    0    0    0    0  0.00000000000E+00  0.00000000000E+00  0.74505805969E-08  0.10566000000E+00  0.10566000000E+00 0.  1.
     999900   -1    0    0    0    0 -0.00000000000E+00 -0.00000000000E+00 -0.74505805969E-08  0.93827000000E+00  0.93827000000E+00 0. -1.
     999902    2    1    2    0    0 -0.18067503283E-01  0.34365405506E-02 -0.17065901011E-01  0.10188403714E+01  0.10185314001E+01 0.  0.
     999903    2    3    3    0    0  0.11969780704E+00  0.28840709192E-01 -0.26933428690E-01  0.12770512880E+00  0.20587346198E-01 0.  0.
         14    1    1    2    0    0  0.18067503283E-01 -0.34365405506E-02  0.17065901011E-01  0.25089628597E-01  0.00000000000E+00 0. -1.
     999901    1    3    3    0    0 -0.13776531032E+00 -0.25404168641E-01  0.98675276790E-02  0.89113524261E+00  0.88000000000E+00 0. -1.
        -11    1    4    4    0    0  0.90704752506E-01  0.12570221542E-01 -0.19071550637E-01  0.93537948243E-01  0.51100000000E-03 0. -1.
         11    1    4    4    0    0  0.28993054533E-01  0.16270487649E-01 -0.78618780522E-02  0.34167180554E-01  0.51100000000E-03 0.  1.
</event>
<event>
 8    1  0.1143506E+005  0.1043930E+01  0.7957747E-01            NaN
         13   -1    0    0    0    0  0.00000000000E+00  0.00000000000E+00  0.74505805969E-08  0.10566000000E+00  0.10566000000E+00 0.  1.
     999900   -1    0    0    0    0 -0.00000000000E+00 -0.00000000000E+00 -0.74505805969E-08  0.93827000000E+00  0.93827000000E+00 0. -1.
     999902    2    1    2    0    0  0.20846815535E-01  0.38164005393E-03  0.11068414850E-01  0.10203239589E+01  0.10200508497E+01 0.  0.
     999903    2    3    3    0    0  0.33678250737E-01  0.11628326705E+00 -0.45519342528E-01  0.13082971660E+00  0.19707395409E-01 0.  0.
         14    1    1    2    0    0 -0.20846815535E-01 -0.38164005393E-03 -0.11068414850E-01  0.23606041056E-01  0.00000000000E+00 0. -1.
     999901    1    3    3    0    0 -0.12831435203E-01 -0.11590162700E+00  0.56587757377E-01  0.88949424234E+00  0.88000000000E+00 0.  1.
        -11    1    4    4    0    0  0.60467427856E-02  0.55127786367E-01 -0.18177849155E-01  0.58363783710E-01  0.51100000000E-03 0. -1.
         11    1    4    4    0    0  0.27631507952E-01  0.61155480684E-01 -0.27341493373E-01  0.72465932894E-01  0.51100000000E-03 0.  1.
</event>
<event>
 8    1  0.1143506E+005  0.1043930E+01  0.7957747E-01            NaN
         13   -1    0    0    0    0  0.00000000000E+00  0.00000000000E+00  0.74505805969E-08  0.10566000000E+00  0.10566000000E+00 0.  1.
     999900   -1    0    0    0    0 -0.00000000000E+00 -0.00000000000E+00 -0.74505805969E-08  0.93827000000E+00  0.93827000000E+00 0. -1.
     999902    2    1    2    0    0 -0.14791569812E-01 -0.17213510094E-01  0.64180066816E-02  0.10203442781E+01  0.10200716443E+01 0.  0.
     999903    2    3    3    0    0  0.10604695795E-01  0.12525210710E+00 -0.15676543975E-01  0.12825146256E+00  0.20053271861E-01 0.  0.
         14    1    1    2    0    0  0.14791569812E-01  0.17213510094E-01 -0.64180066816E-02  0.23585721889E-01  0.00000000000E+00 0.  1.
     999901    1    3    3    0    0 -0.25396265607E-01 -0.14246561719E+00  0.22094550656E-01  0.89209281555E+00  0.88000000000E+00 0.  1.
        -11    1    4    4    0    0 -0.16156576271E-02  0.45779459698E-01 -0.13712811149E-01  0.47819155058E-01  0.51100000000E-03 0. -1.
         11    1    4    4    0    0  0.12220353422E-01  0.79472647400E-01 -0.19637328257E-02  0.80432307502E-01  0.51100000000E-03 0.  1.
</event>
<event>
 8    1  0.1143506E+005  0.1043930E+01  0.7957747E-01            NaN
         13   -1    0    0    0    0  0.00000000000E+00  0.00000000000E+00  0.74505805969E-08  0.10566000000E+00  0.10566000000E+00 0. -1.
     999900   -1    0    0    0    0 -0.00000000000E+00 -0.00000000000E+00 -0.74505805969E-08  0.93827000000E+00  0.93827000000E+00 0.  1.
     999902    2    1    2    0    0 -0.15237093259E-01 -0.11983057594E-01  0.13932127919E-01  0.10200581155E+01  0.10197787467E+01 0.  0.
     999903    2    3    3    0    0  0.11141237076E+00 -0.61682460982E-01 -0.10541143750E-01  0.12926686138E+00  0.19528527512E-01 0.  0.
         14    1    1    2    0    0  0.15237093259E-01  0.11983057594E-01 -0.13932127919E-01  0.23871884480E-01  0.00000000000E+00 0. -1.
     999901    1    3    3    0    0 -0.12664946402E+00  0.49699403389E-01  0.24473271669E-01  0.89079125414E+00  0.88000000000E+00 0. -1.
        -11    1    4    4    0    0  0.67728131710E-01 -0.40305563575E-01 -0.15676867786E-01  0.80359589252E-01  0.51100000000E-03 0.  1.
         11    1    4    4    0    0  0.43684239051E-01 -0.21376897407E-01  0.51357240362E-02  0.48907272124E-01  0.51100000000E-03 0. -1.
</event>
<event>
 8    1  0.1143506E+005  0.1043930E+01  0.7957747E-01            NaN
         13   -1    0    0    0    0  0.00000000000E+00  0.00000000000E+00  0.74505805969E-08  0.10566000000E+00  0.10566000000E+00 0.  1.
     999900   -1    0    0    0    0 -0.00000000000E+00 -0.00000000000E+00 -0.74505805969E-08  0.93827000000E+00  0.93827000000E+00 0. -1.
     999902    2    1    2    0    0 -0.17008990266E-01  0.70530588781E-02 -0.13804769799E-01  0.10209164592E+01  0.10206570402E+01 0.  0.
     999903    2    3    3    0    0 -0.30187675114E-01  0.77864917371E-01  0.98718451009E-01  0.13083249002E+00  0.19939076911E-01 0.  0.
         14    1    1    2    0    0  0.17008990266E-01 -0.70530588781E-02  0.13804769799E-01  0.23013540767E-01  0.00000000000E+00 0.  1.
     999901    1    3    3    0    0  0.13178684848E-01 -0.70811858493E-01 -0.11252322081E+00  0.89008396922E+00  0.88000000000E+00 0. -1.
        -11    1    4    4    0    0 -0.61016159603E-03  0.94799236606E-02  0.39991894027E-02  0.10319684427E-01  0.51100000000E-03 0. -1.
         11    1    4    4    0    0 -0.29577513518E-01  0.68384993710E-01  0.94719261607E-01  0.12051280559E+00  0.51100000000E-03 0.  1.
</event>
<event>
 8    1  0.1143506E+005  0.1043930E+01  0.7957747E-01            NaN
         13   -1    0    0    0    0  0.00000000000E+00  0.00000000000E+00  0.74505805969E-08  0.10566000000E+00  0.10566000000E+00 0.  1.
     999900   -1    0    0    0    0 -0.00000000000E+00 -0.00000000000E+00 -0.74505805969E-08  0.93827000000E+00  0.93827000000E+00 0.  1.
     999902    2    1    2    0    0 -0.71012609795E-02  0.16153040081E-01  0.13899108511E-01  0.10214681695E+01  0.10212211746E+01 0.  0.
     999903    2    3    3    0    0  0.14716140423E-01  0.12554470146E+00 -0.36478833189E-01  0.13299730809E+00  0.19481833487E-01 0.  0.
         14    1    1    2    0    0  0.71012609795E-02 -0.16153040081E-01 -0.13899108511E-01  0.22461830485E-01  0.00000000000E+00 0.  1.
     999901    1    3    3    0    0 -0.21817401402E-01 -0.10939166138E+00  0.50377941700E-01  0.88847086142E+00  0.88000000000E+00 0. -1.
        -11    1    4    4    0    0  0.29822264352E-02  0.21058169272E-01  0.11928454255E-02  0.21307842894E-01  0.51100000000E-03 0.  1.
         11    1    4    4    0    0  0.11733913988E-01  0.10448653219E+00 -0.37671678614E-01  0.11168946520E+00  0.51100000000E-03 0. -1.
</event>
<event>
 8    1  0.1143506E+005  0.1043930E+01  0.7957747E-01            NaN
         13   -1    0    0    0    0  0.00000000000E+00  0.00000000000E+00  0.74505805969E-08  0.10566000000E+00  0.10566000000E+00 0. -1.
     999900   -1    0    0    0    0 -0.00000000000E+00 -0.00000000000E+00 -0.74505805969E-08  0.93827000000E+00  0.93827000000E+00 0. -1.
     999902    2    1    2    0    0 -0.22599103023E-01  0.89682325085E-02 -0.72189181545E-03  0.10196057368E+01  0.10193155492E+01 0.  0.
     999903    2    3    3    0    0  0.77354341668E-01  0.35198273737E-01 -0.94468623737E-01  0.12861350569E+00  0.19862032301E-01 0.  0.
         14    1    1    2    0    0  0.22599103023E-01 -0.89682325085E-02  0.72189181545E-03  0.24324263187E-01  0.00000000000E+00 0. -1.
     999901    1    3    3    0    0 -0.99953444691E-01 -0.26230041229E-01  0.93746731922E-01  0.89099223112E+00  0.88000000000E+00 0.  1.
        -11    1    4    4    0    0  0.18034558119E-01  0.15799958767E-01 -0.34827249144E-01  0.42285723212E-01  0.51100000000E-03 0. -1.
         11    1    4    4    0    0  0.59319783549E-01  0.19398314971E-01 -0.59641374593E-01  0.86327782482E-01  0.51100000000E-03 0.  1.
</event>
<event>
 8    1  0.1143506E+005  0.1043930E+01  0.7957747E-01            NaN
         13   -1    0    0    0    0  0.00000000000E+00  0.00000000000E+00  0.74505805969E-08  0.10566000000E+00  0.10566000000E+00 0.  1.
     999900   -1    0    0    0    0 -0.00000000000E+00 -0.00000000000E+00 -0.74505805969E-08  0.93827000000E+00  0.93827000000E+00 0.  1.
     999902    2    1    2    0    0  0.13998909340E-01  0.71900973606E-02  0.13595229907E-01  0.10231334320E+01  0.10229220510E+01 0.  0.
     999903    2    3    3    0    0 -0.44404533707E-01  0.29654232971E-01  0.12156280295E+00  0.13432940618E+00  0.20389658095E-01 0.  0.
         14    1    1    2    0    0 -0.13998909340E-01 -0.71900973606E-02 -0.13595229907E-01  0.20796567962E-01  0.00000000000E+00 0.  1.
     999901    1    3    3    0    0  0.58403443047E-01 -0.22464135610E-01 -0.10796757304E+00  0.88880402586E+00  0.88000000000E+00 0.  1.
        -11    1    4    4    0    0 -0.12743828656E-01 -0.10788098141E-02  0.22565878317E-01  0.25943187635E-01  0.51100000000E-03 0. -1.
         11    1    4    4    0    0 -0.31660705051E-01  0.30733042785E-01  0.98996924634E-01  0.10838621855E+00  0.51100000000E-03 0.  1.
</event>
<event>
 8    1  0.1143506E+005  0.1043930E+01  0.7957747E-01            NaN
         13   -1    0    0    0    0  0.00000000000E+00  0.00000000000E+00  0.74505805969E-08  0.10566000000E+00  0.10566000000E+00 0. -1.
     999900   -1    0    0    0    0 -0.00000000000E+00 -0.00000000000E+00 -0.74505805969E-08  0.93827000000E+00  0.93827000000E+00 0.  1.
     999902    2    1    2    0    0  0.20229360392E-02  0.26125541417E-01 -0.67136270475E-02  0.10168798804E+01  0.10165200353E+01 0.  0.
     999903    2    3    3    0    0 -0.10549953148E+00 -0.56962292714E-01  0.25229745191E-01  0.12587760862E+00  0.28875220813E-01 0.  0.
         14    1    1    2    0    0 -0.20229360392E-02 -0.26125541417E-01  0.67136270475E-02  0.27050119643E-01  0.00000000000E+00 0. -1.
     999901    1    3    3    0    0  0.10752246752E+00  0.83087834131E-01 -0.31943372238E-01  0.89100227173E+00  0.88000000000E+00 0.  1.
        -11    1    4    4    0    0 -0.36390746429E-01 -0.33516382803E-01  0.17543797597E-01  0.52494573977E-01  0.51100000000E-03 0.  1.
         11    1    4    4    0    0 -0.69108785051E-01 -0.23445909911E-01  0.76859475938E-02  0.73383034648E-01  0.51100000000E-03 0. -1.
</event>
<event>
 8    1  0.1143506E+005  0.1043930E+01  0.7957747E-01            NaN
         13   -1    0    0    0    0  0.00000000000E+00  0.00000000000E+00  0.74505805969E-08  0.10566000000E+00  0.10566000000E+00 0. -1.
     999900   -1    0    0    0    0 -0.00000000000E+00 -0.00000000000E+00 -0.74505805969E-08  0.93827000000E+00  0.93827000000E+00 0.  1.
     999902    2    1    2    0    0  0.80840407143E-02 -0.64261419721E-04  0.21802971852E-01  0.10206764965E+01  0.10204115763E+01 0.  0.
     999903    2    3    3    0    0 -0.50324493125E-01 -0.10482100023E+00 -0.51338087404E-01  0.12953388967E+00  0.24968633453E-01 0.  0.
         14    1    1    2    0    0 -0.80840407143E-02  0.64261419721E-04 -0.21802971852E-01  0.23253503508E-01  0.00000000000E+00 0.  1.
     999901    1    3    3    0    0  0.58408533840E-01  0.10475673881E+00  0.73141059256E-01  0.89114260683E+00  0.88000000000E+00 0. -1.
        -11    1    4    4    0    0 -0.10988085780E-02 -0.82135342856E-02  0.22289878874E-02  0.85964547201E-02  0.51100000000E-03 0.  1.
         11    1    4    4    0    0 -0.49225684547E-01 -0.96607465943E-01 -0.53567075291E-01  0.12093743495E+00  0.51100000000E-03 0. -1.
</event>
<event>
 8    1  0.1143506E+005  0.1043930E+01  0.7957747E-01            NaN
         13   -1    0    0    0    0  0.00000000000E+00  0.00000000000E+00  0.74505805969E-08  0.10566000000E+00  0.10566000000E+00 0.  1.
     999900   -1    0    0    0    0 -0.00000000000E+00 -0.00000000000E+00 -0.74505805969E-08  0.93827000000E+00  0.93827000000E+00 0.  1.
     999902    2    1    2    0    0  0.54515402747E-02  0.19987312484E-01  0.61916743330E-02  0.10223071236E+01  0.10220784247E+01 0.  0.
     999903    2    3    3    0    0 -0.38107201022E-01 -0.27924561522E-02  0.12575452935E+00  0.13286260141E+00  0.19450260118E-01 0.  0.
         14    1    1    2    0    0 -0.54515402747E-02 -0.19987312484E-01 -0.61916743330E-02  0.21622876376E-01  0.00000000000E+00 0. -1.
     999901    1    3    3    0    0  0.43558741297E-01  0.22779768636E-01 -0.11956285502E+00  0.88944452222E+00  0.88000000000E+00 0.  1.
        -11    1    4    4    0    0 -0.13419502187E-01  0.10674898006E-02  0.75987033976E-01  0.77171970475E-01  0.51100000000E-03 0.  1.
         11    1    4    4    0    0 -0.24687698835E-01 -0.38599459528E-02  0.49767495377E-01  0.55690630932E-01  0.51100000000E-03 0. -1.
</event>
<event>
 8    1  0.1143506E+005  0.1043930E+01  0.7957747E-01            NaN
         13   -1    0    0    0    0  0.00000000000E+00  0.00000000000E+00  0.74505805969E-08  0.10566000000E+00  0.10566000000E+00 0. -1.
     999900   -1    0    0    0    0 -0.00000000000E+00 -0.00000000000E+00 -0.74505805969E-08  0.93827000000E+00  0.93827000000E+00 0.  1.
     999902    2    1    2    0    0  0.10941049035E-01 -0.11383523764E-01  0.16600928242E-01  0.10210196970E+01  0.10207626265E+01 0.  0.
     999903    2    3    3    0    0 -0.12789159640E+00 -0.96763186402E-02  0.88637683501E-02  0.13010035064E+00  0.19940994880E-01 0.  0.
         14    1    1    2    0    0 -0.10941049035E-01  0.11383523764E-01 -0.16600928242E-01  0.22910303048E-01  0.00000000000E+00 0.  1.
     999901    1    3    3    0    0  0.13883264543E+00 -0.17072051240E-02  0.77371598915E-02  0.89091934631E+00  0.88000000000E+00 0.  1.
        -11    1    4    4    0    0 -0.29573247928E-01  0.55560330838E-02 -0.10629049799E-02  0.30113740795E-01  0.51100000000E-03 0.  1.
         11    1    4    4    0    0 -0.98318348467E-01 -0.15232351724E-01  0.99266733300E-02  0.99986609847E-01  0.51100000000E-03 0. -1.
</event>
<event>
 8    1  0.1143506E+005  0.1043930E+01  0.7957747E-01            NaN
         13   -1    0    0    0    0  0.00000000000E+00  0.00000000000E+00  0.74505805969E-08  0.10566000000E+00  0.10566000000E+00 0. -1.
     999900   -1    0    0    0    0 -0.00000000000E+00 -0.00000000000E+00 -0.74505805969E-08  0.93827000000E+00  0.93827000000E+00 0. -1.
     999902    2    1    2    0    0  0.14237255807E-01 -0.17585435033E-01  0.78890824588E-02  0.10199678507E+01  0.10196863399E+01 0.  0.
     999903    2    3    3    0    0  0.22658411206E-01 -0.37350420559E-02  0.12807004905E+00  0.13165134516E+00  0.20069506225E-01 0.  0.
         14    1    1    2    0    0 -0.14237255807E-01  0.17585435033E-01 -0.78890824588E-02  0.23962149325E-01  0.00000000000E+00 0.  1.
     999901    1    3    3    0    0 -0.84211553987E-02 -0.13850392977E-01 -0.12018096659E+00  0.88831650552E+00  0.88000000000E+00 0. -1.
        -11    1    4    4    0    0  0.25061689715E-01 -0.73494944521E-02  0.11058064972E+00  0.11362413728E+00  0.51100000000E-03 0. -1.
         11    1    4    4    0    0 -0.24032785095E-02  0.36144523962E-02  0.17489399333E-01  0.18027207875E-01  0.51100000000E-03 0.  1.
</event>
<event>
 8    1  0.1143506E+005  0.1043930E+01  0.7957747E-01            NaN
         13   -1    0    0    0    0  0.00000000000E+00  0.00000000000E+00  0.74505805969E-08  0.10566000000E+00  0.10566000000E+00 0.  1.
     999900   -1    0    0    0    0 -0.00000000000E+00 -0.00000000000E+00 -0.74505805969E-08  0.93827000000E+00  0.93827000000E+00 0.  1.
     999902    2    1    2    0    0 -0.91223273751E-02 -0.10558580816E-01 -0.19028596610E-01  0.10203336449E+01  0.10200607624E+01 0.  0.
     999903    2    3    3    0    0  0.22237630132E-01 -0.12505382950E+00  0.25990338225E-01  0.13122211454E+00  0.20267540486E-01 0.  0.
         14    1    1    2    0    0  0.91223273751E-02  0.10558580816E-01  0.19028596610E-01  0.23596355112E-01  0.00000000000E+00 0.  1.
     999901    1    3    3    0    0 -0.31359957507E-01  0.11449524868E+00 -0.45018934836E-01  0.88911153035E+00  0.88000000000E+00 0.  1.
        -11    1    4    4    0    0 -0.60235675257E-03 -0.50464636653E-01  0.72028087516E-02  0.50982192588E-01  0.51100000000E-03 0.  1.
         11    1    4    4    0    0  0.22839986885E-01 -0.74589192844E-01  0.18787529474E-01  0.80239921951E-01  0.51100000000E-03 0. -1.
</event>
<event>
 8    1  0.1143506E+005  0.1043930E+01  0.7957747E-01            NaN
         13   -1    0    0    0    0  0.00000000000E+00  0.00000000000E+00  0.74505805969E-08  0.10566000000E+00  0.10566000000E+00 0.  1.
     999900   -1    0    0    0    0 -0.00000000000E+00 -0.00000000000E+00 -0.74505805969E-08  0.93827000000E+00  0.93827000000E+00 0.  1.
     999902    2    1    2    0    0  0.62362974910E-02 -0.16175906561E-01  0.17166565241E-01  0.10195324116E+01  0.10192404505E+01 0.  0.
     999903    2    3    3    0    0  0.71639764214E-01  0.89265436905E-04 -0.10494753443E+00  0.12854755051E+00  0.19447981227E-01 0.  0.
         14    1    1    2    0    0 -0.62362974910E-02  0.16175906561E-01 -0.17166565241E-01  0.24397588439E-01  0.00000000000E+00 0. -1.
     999901    1    3    3    0    0 -0.65403466723E-01 -0.16265171998E-01  0.12211409968E+00  0.89098486105E+00  0.88000000000E+00 0. -1.
        -11    1    4    4    0    0  0.74018561022E-02  0.91620240156E-04 -0.29060897239E-02  0.79688359570E-02  0.51100000000E-03 0. -1.
         11    1    4    4    0    0  0.64237908112E-01 -0.23548032519E-05 -0.10204144471E+00  0.12057871455E+00  0.51100000000E-03 0.  1.
</event>
<event>
 8    1  0.1143506E+005  0.1043930E+01  0.7957747E-01            NaN
         13   -1    0    0    0    0  0.00000000000E+00  0.00000000000E+00  0.74505805969E-08  0.10566000000E+00  0.10566000000E+00 0.  1.
     999900   -1    0    0    0    0 -0.00000000000E+00 -0.00000000000E+00 -0.74505805969E-08  0.93827000000E+00  0.93827000000E+00 0. -1.
     999902    2    1    2    0    0  0.16519755699E-01 -0.12319878778E-01  0.12686535891E-01  0.10197302080E+01  0.10194430181E+01 0.  0.
     999903    2    3    3    0    0 -0.10380047674E+00 -0.16306823056E-01 -0.70099029273E-01  0.12768407471E+00  0.18678800302E-01 0.  0.
         14    1    1    2    0    0 -0.16519755699E-01  0.12319878778E-01 -0.12686535891E-01  0.24199792031E-01  0.00000000000E+00 0. -1.
     999901    1    3    3    0    0  0.12032023244E+00  0.39869442778E-02  0.82785565164E-01  0.89204613326E+00  0.88000000000E+00 0. -1.
        -11    1    4    4    0    0 -0.75556597372E-01 -0.57974988090E-02 -0.42871739028E-01  0.87066971505E-01  0.51100000000E-03 0.  1.
         11    1    4    4    0    0 -0.28243879367E-01 -0.10509324247E-01 -0.27227290245E-01  0.40617103207E-01  0.51100000000E-03 0. -1.
</event>
