<event>
 8    1  0.2257781E+004  0.1043930E+01  0.7957747E-01            NaN
         13   -1    0    0    0    0  0.00000000000E+00  0.00000000000E+00  0.74505805969E-08  0.10566000000E+00  0.10566000000E+00 0.  1.
     999900   -1    0    0    0    0 -0.00000000000E+00 -0.00000000000E+00 -0.74505805969E-08  0.93827000000E+00  0.93827000000E+00 0.  1.
     999902    2    1    2    0    0  0.63547797611E-02  0.11962488869E-01  0.12099918187E-01  0.10257670601E+01  0.10256062447E+01 0.  0.
     999903    2    3    3    0    0  0.93144236349E-01  0.46299209804E-01 -0.78064563216E-01  0.13624974498E+00  0.40625747803E-01 0.  0.
         14    1    1    2    0    0 -0.63547797611E-02 -0.11962488869E-01 -0.12099918187E-01  0.18162939902E-01  0.00000000000E+00 0. -1.
     999901    1    3    3    0    0 -0.86789456588E-01 -0.34336720935E-01  0.90164481404E-01  0.88951731511E+00  0.88000000000E+00 0. -1.
        -11    1    4    4    0    0  0.55681189319E-01  0.17034636428E-01 -0.20826717912E-01  0.61843245243E-01  0.51100000000E-03 0. -1.
         11    1    4    4    0    0  0.37463047030E-01  0.29264573376E-01 -0.57237845304E-01  0.74406499741E-01  0.51100000000E-03 0.  1.
</event>
<event>
 8    1  0.2257781E+004  0.1043930E+01  0.7957747E-01            NaN
         13   -1    0    0    0    0  0.00000000000E+00  0.00000000000E+00  0.74505805969E-08  0.10566000000E+00  0.10566000000E+00 0.  1.
     999900   -1    0    0    0    0 -0.00000000000E+00 -0.00000000000E+00 -0.74505805969E-08  0.93827000000E+00  0.93827000000E+00 0.  1.
     999902    2    1    2    0    0 -0.12749492731E-01 -0.30538177460E-02 -0.27157414880E-02  0.10305415490E+01  0.10304545762E+01 0.  0.
     999903    2    3    3    0    0  0.88526471740E-01  0.29499602361E-01 -0.93625738056E-01  0.13948533665E+00  0.44533331049E-01 0.  0.
         14    1    1    2    0    0  0.12749492731E-01  0.30538177460E-02  0.27157414880E-02  0.13388450977E-01  0.00000000000E+00 0.  1.
     999901    1    3    3    0    0 -0.10127596447E+00 -0.32553420107E-01  0.90909996568E-01  0.89105621238E+00  0.88000000000E+00 0. -1.
        -11    1    4    4    0    0  0.72470715425E-01  0.40579573349E-01 -0.68441343487E-01  0.10762520609E+00  0.51100000000E-03 0.  1.
         11    1    4    4    0    0  0.16055756315E-01 -0.11079970988E-01 -0.25184394570E-01  0.31860130552E-01  0.51100000000E-03 0. -1.
</event>
<event>
 8    1  0.2257781E+004  0.1043930E+01  0.7957747E-01            NaN
         13   -1    0    0    0    0  0.00000000000E+00  0.00000000000E+00  0.74505805969E-08  0.10566000000E+00  0.10566000000E+00 0.  1.
     999900   -1    0    0    0    0 -0.00000000000E+00 -0.00000000000E+00 -0.74505805969E-08  0.93827000000E+00  0.93827000000E+00 0. -1.
     999902    2    1    2    0    0 -0.17905722402E-02 -0.95518418408E-02  0.10701541939E-01  0.10294743149E+01  0.10293728179E+01 0.  0.
     999903    2    3    3    0    0 -0.13091722227E+00 -0.16694392048E-01 -0.16358263368E-01  0.13961087548E+00  0.42492139972E-01 0.  0.
         14    1    1    2    0    0  0.17905722402E-02  0.95518418408E-02 -0.10701541939E-01  0.14455685088E-01  0.00000000000E+00 0. -1.
     999901    1    3    3    0    0  0.12912665003E+00  0.71425502069E-02  0.27059805307E-01  0.88986343943E+00  0.88000000000E+00 0. -1.
        -11    1    4    4    0    0 -0.40506793621E-01 -0.62983901668E-02 -0.25284186664E-01  0.48166599054E-01  0.51100000000E-03 0. -1.
         11    1    4    4    0    0 -0.90410428649E-01 -0.10396001881E-01  0.89259232961E-02  0.91444276427E-01  0.51100000000E-03 0.  1.
</event>
<event>
 8    1  0.2257781E+004  0.1043930E+01  0.7957747E-01            NaN
         13   -1    0    0    0    0  0.00000000000E+00  0.00000000000E+00  0.74505805969E-08  0.10566000000E+00  0.10566000000E+00 0.  1.
     999900   -1    0    0    0    0 -0.00000000000E+00 -0.00000000000E+00 -0.74505805969E-08  0.93827000000E+00  0.93827000000E+00 0.  1.
     999902    2    1    2    0    0  0.72809716276E-02 -0.16235870377E-02  0.10117040156E-01  0.10313600722E+01  0.10312834700E+01 0.  0.
     999903    2    3    3    0    0  0.96248858484E-01 -0.67571333064E-01 -0.59479331172E-01  0.14169269337E+00  0.52050943380E-01 0.  0.
         14    1    1    2    0    0 -0.72809716276E-02  0.16235870377E-02 -0.10117040156E-01  0.12569927773E-01  0.00000000000E+00 0. -1.
     999901    1    3    3    0    0 -0.88967886856E-01  0.65947746026E-01  0.69596371327E-01  0.88966737886E+00  0.88000000000E+00 0. -1.
        -11    1    4    4    0    0  0.48953938207E-01 -0.37278324710E-02 -0.20783160772E-01  0.53315904696E-01  0.51100000000E-03 0. -1.
         11    1    4    4    0    0  0.47294920277E-01 -0.63843500593E-01 -0.38696170400E-01  0.88376788676E-01  0.51100000000E-03 0.  1.
</event>
<event>
 8    1  0.2257781E+004  0.1043930E+01  0.7957747E-01            NaN
         13   -1    0    0    0    0  0.00000000000E+00  0.00000000000E+00  0.74505805969E-08  0.10566000000E+00  0.10566000000E+00 0. -1.
     999900   -1    0    0    0    0 -0.00000000000E+00 -0.00000000000E+00 -0.74505805969E-08  0.93827000000E+00  0.93827000000E+00 0.  1.
     999902    2    1    2    0    0  0.56440069451E-02  0.89725282575E-02 -0.90089574671E-02  0.10300187674E+01  0.10299248219E+01 0.  0.
     999903    2    3    3    0    0  0.10307405173E+00 -0.49945618164E-01 -0.68003456884E-01  0.14072448958E+00  0.45388180256E-01 0.  0.
         14    1    1    2    0    0 -0.56440069451E-02 -0.89725282575E-02  0.90089574671E-02  0.13911232597E-01  0.00000000000E+00 0. -1.
     999901    1    3    3    0    0 -0.97430044781E-01  0.58918146421E-01  0.58994499417E-01  0.88929427782E+00  0.88000000000E+00 0. -1.
        -11    1    4    4    0    0  0.64883883605E-01 -0.23519194734E-01 -0.15707331455E-01  0.70781722606E-01  0.51100000000E-03 0. -1.
         11    1    4    4    0    0  0.38190168121E-01 -0.26426423430E-01 -0.52296125429E-01  0.69942766976E-01  0.51100000000E-03 0.  1.
</event>
<event>
 8    1  0.2257781E+004  0.1043930E+01  0.7957747E-01            NaN
         13   -1    0    0    0    0  0.00000000000E+00  0.00000000000E+00  0.74505805969E-08  0.10566000000E+00  0.10566000000E+00 0. -1.
     999900   -1    0    0    0    0 -0.00000000000E+00 -0.00000000000E+00 -0.74505805969E-08  0.93827000000E+00  0.93827000000E+00 0. -1.
     999902    2    1    2    0    0 -0.48612310668E-03 -0.12392672234E-01 -0.40332530049E-02  0.10308884598E+01  0.10308059637E+01 0.  0.
     999903    2    3    3    0    0 -0.11754219713E+00  0.61161545152E-01  0.22046135849E-02  0.14007351924E+00  0.45374307259E-01 0.  0.
         14    1    1    2    0    0  0.48612310668E-03  0.12392672234E-01  0.40332530049E-02  0.13041540192E-01  0.00000000000E+00 0.  1.
     999901    1    3    3    0    0  0.11705607403E+00 -0.73554217385E-01 -0.62378665898E-02  0.89081494057E+00  0.88000000000E+00 0.  1.
        -11    1    4    4    0    0 -0.94424739624E-01  0.58873778842E-01 -0.13405521712E-01  0.11208087447E+00  0.51100000000E-03 0. -1.
         11    1    4    4    0    0 -0.23117457508E-01  0.22877663097E-02  0.15610135297E-01  0.27992644771E-01  0.51100000000E-03 0.  1.
</event>
<event>
 8    1  0.2257781E+004  0.1043930E+01  0.7957747E-01            NaN
         13   -1    0    0    0    0  0.00000000000E+00  0.00000000000E+00  0.74505805969E-08  0.10566000000E+00  0.10566000000E+00 0.  1.
     999900   -1    0    0    0    0 -0.00000000000E+00 -0.00000000000E+00 -0.74505805969E-08  0.93827000000E+00  0.93827000000E+00 0.  1.
     999902    2    1    2    0    0  0.13819916750E-01 -0.21947517332E-02  0.15925723012E-02  0.10298465586E+01  0.10297502566E+01 0.  0.
     999903    2    3    3    0    0  0.29377972047E-01  0.12921332811E+00 -0.15278639975E-03  0.13995151830E+00  0.45025045565E-01 0.  0.
         14    1    1    2    0    0 -0.13819916750E-01  0.21947517332E-02 -0.15925723012E-02  0.14083441365E-01  0.00000000000E+00 0. -1.
     999901    1    3    3    0    0 -0.15558055296E-01 -0.13140807984E+00  0.17453587010E-02  0.88989504033E+00  0.88000000000E+00 0. -1.
        -11    1    4    4    0    0  0.34902480246E-01  0.87774658325E-01 -0.14878944848E-01  0.95625404010E-01  0.51100000000E-03 0. -1.
         11    1    4    4    0    0 -0.55245081995E-02  0.41438669786E-01  0.14726158448E-01  0.44326114291E-01  0.51100000000E-03 0.  1.
</event>
<event>
 7    1  0.2389701E+004  0.1043930E+01  0.7957747E-01            NaN
         13   -1    0    0    0    0  0.00000000000E+00  0.00000000000E+00  0.74505805969E-08  0.10566000000E+00  0.10566000000E+00 0. -1.
     999900   -1    0    0    0    0 -0.00000000000E+00 -0.00000000000E+00 -0.74505805969E-08  0.93827000000E+00  0.93827000000E+00 0.  1.
     999903    2    1    2    0    0 -0.55968656350E-01  0.63840727100E-01 -0.68122309317E-01  0.11784314153E+00  0.45146739068E-01 0.  0.
         14    1    1    2    0    0  0.93418667454E-02  0.52241055182E-03  0.41036962268E-01  0.42090089799E-01  0.00000000000E+00 0. -1.
     999901    1    1    2    0    0  0.46626789605E-01 -0.64363137652E-01  0.27085347049E-01  0.88399676867E+00  0.88000000000E+00 0. -1.
        -11    1    3    3    0    0 -0.34611316472E-01  0.63888052074E-01 -0.41394338459E-01  0.83626424073E-01  0.51100000000E-03 0.  1.
         11    1    3    3    0    0 -0.21357339878E-01 -0.47324973696E-04 -0.26727970858E-01  0.34216717457E-01  0.51100000000E-03 0. -1.
</event>
<event>
 8    1  0.2257781E+004  0.1043930E+01  0.7957747E-01            NaN
         13   -1    0    0    0    0  0.00000000000E+00  0.00000000000E+00  0.74505805969E-08  0.10566000000E+00  0.10566000000E+00 0. -1.
     999900   -1    0    0    0    0 -0.00000000000E+00 -0.00000000000E+00 -0.74505805969E-08  0.93827000000E+00  0.93827000000E+00 0. -1.
     999902    2    1    2    0    0  0.27574831358E-02  0.15685745280E-01 -0.21931327094E-02  0.10278534286E+01  0.10277276947E+01 0.  0.
     999903    2    3    3    0    0 -0.51785170564E-02 -0.76792140408E-01  0.10392437232E+00  0.13663175899E+00  0.44092091532E-01 0.  0.
         14    1    1    2    0    0 -0.27574831358E-02 -0.15685745280E-01  0.21931327094E-02  0.16076571441E-01  0.00000000000E+00 0. -1.
     999901    1    3    3    0    0  0.79360001922E-02  0.92477885687E-01 -0.10611750502E+00  0.89122166957E+00  0.88000000000E+00 0. -1.
        -11    1    4    4    0    0 -0.29365664261E-02 -0.15216922644E-01  0.57302538082E-01  0.59363458026E-01  0.51100000000E-03 0.  1.
         11    1    4    4    0    0 -0.22419506303E-02 -0.61575217764E-01  0.46621834233E-01  0.77268300962E-01  0.51100000000E-03 0. -1.
</event>
<event>
 8    1  0.2257781E+004  0.1043930E+01  0.7957747E-01            NaN
         13   -1    0    0    0    0  0.00000000000E+00  0.00000000000E+00  0.74505805969E-08  0.10566000000E+00  0.10566000000E+00 0. -1.
     999900   -1    0    0    0    0 -0.00000000000E+00 -0.00000000000E+00 -0.74505805969E-08  0.93827000000E+00  0.93827000000E+00 0. -1.
     999902    2    1    2    0    0  0.62944810645E-02  0.12573172760E-01  0.16102139473E-03  0.10298683112E+01  0.10297723084E+01 0.  0.
     999903    2    3    3    0    0  0.81163057736E-01 -0.95433018305E-01 -0.40092242776E-01  0.13919948025E+00  0.45543434727E-01 0.  0.
         14    1    1    2    0    0 -0.62944810645E-02 -0.12573172760E-01 -0.16102139473E-03  0.14061688839E-01  0.00000000000E+00 0.  1.
     999901    1    3    3    0    0 -0.74868576672E-01  0.10800619107E+00  0.40253264171E-01  0.89066883091E+00  0.88000000000E+00 0.  1.
        -11    1    4    4    0    0  0.26160257060E-01 -0.30162559926E-01 -0.35971176066E-01  0.53743145603E-01  0.51100000000E-03 0.  1.
         11    1    4    4    0    0  0.55002800676E-01 -0.65270458380E-01 -0.41210667105E-02  0.85456334646E-01  0.51100000000E-03 0. -1.
</event>
<event>
 8    1  0.2257781E+004  0.1043930E+01  0.7957747E-01            NaN
         13   -1    0    0    0    0  0.00000000000E+00  0.00000000000E+00  0.74505805969E-08  0.10566000000E+00  0.10566000000E+00 0.  1.
     999900   -1    0    0    0    0 -0.00000000000E+00 -0.00000000000E+00 -0.74505805969E-08  0.93827000000E+00  0.93827000000E+00 0. -1.
     999902    2    1    2    0    0  0.47168472038E-02 -0.33406752785E-02 -0.11956976878E-01  0.10306492600E+01  0.10305636900E+01 0.  0.
     999903    2    3    3    0    0 -0.55224664195E-01  0.24456570540E-01 -0.11990843531E+00  0.14159403728E+00  0.44977229329E-01 0.  0.
         14    1    1    2    0    0 -0.47168472038E-02  0.33406752785E-02  0.11956976878E-01  0.13280739999E-01  0.00000000000E+00 0.  1.
     999901    1    3    3    0    0  0.59941511399E-01 -0.27797245818E-01  0.10795145843E+00  0.88905522272E+00  0.88000000000E+00 0. -1.
        -11    1    4    4    0    0 -0.26380307119E-01 -0.11421032860E-01 -0.54341222956E-01  0.61478372039E-01  0.51100000000E-03 0. -1.
         11    1    4    4    0    0 -0.28844357076E-01  0.35877603400E-01 -0.65567212353E-01  0.80115665245E-01  0.51100000000E-03 0.  1.
</event>
<event>
 8    1  0.2257781E+004  0.1043930E+01  0.7957747E-01            NaN
         13   -1    0    0    0    0  0.00000000000E+00  0.00000000000E+00  0.74505805969E-08  0.10566000000E+00  0.10566000000E+00 0. -1.
     999900   -1    0    0    0    0 -0.00000000000E+00 -0.00000000000E+00 -0.74505805969E-08  0.93827000000E+00  0.93827000000E+00 0.  1.
     999902    2    1    2    0    0 -0.10901640123E-01  0.91958454311E-02  0.10903393379E-02  0.10296262183E+01  0.10295268580E+01 0.  0.
     999903    2    3    3    0    0 -0.78227765857E-01  0.86454042764E-01 -0.65494989199E-01  0.14118081074E+00  0.45260831308E-01 0.  0.
         14    1    1    2    0    0  0.10901640123E-01 -0.91958454311E-02 -0.10903393379E-02  0.14303781683E-01  0.00000000000E+00 0.  1.
     999901    1    3    3    0    0  0.67326125734E-01 -0.77258197333E-01  0.66585328537E-01  0.88844540757E+00  0.88000000000E+00 0.  1.
        -11    1    4    4    0    0 -0.35257972992E-01  0.61310571861E-01 -0.56639475823E-01  0.90611269851E-01  0.51100000000E-03 0. -1.
         11    1    4    4    0    0 -0.42969792865E-01  0.25143470903E-01 -0.88555133757E-02  0.50569540893E-01  0.51100000000E-03 0.  1.
</event>
<event>
 8    1  0.2257781E+004  0.1043930E+01  0.7957747E-01            NaN
         13   -1    0    0    0    0  0.00000000000E+00  0.00000000000E+00  0.74505805969E-08  0.10566000000E+00  0.10566000000E+00 0. -1.
     999900   -1    0    0    0    0 -0.00000000000E+00 -0.00000000000E+00 -0.74505805969E-08  0.93827000000E+00  0.93827000000E+00 0. -1.
     999902    2    1    2    0    0 -0.92671197711E-02 -0.50507077377E-02 -0.85295436635E-02  0.10303600968E+01  0.10302707347E+01 0.  0.
     999903    2    3    3    0    0  0.60952451503E-01  0.66576313117E-01 -0.97550742068E-01  0.14019944161E+00  0.44633276109E-01 0.  0.
         14    1    1    2    0    0  0.92671197711E-02  0.50507077377E-02  0.85295436635E-02  0.13569903191E-01  0.00000000000E+00 0.  1.
     999901    1    3    3    0    0 -0.70219571274E-01 -0.71627020854E-01  0.89021198404E-01  0.89016065520E+00  0.88000000000E+00 0. -1.
        -11    1    4    4    0    0  0.51793642765E-01  0.56196847531E-01 -0.51620452918E-01  0.92225806496E-01  0.51100000000E-03 0. -1.
         11    1    4    4    0    0  0.91588087383E-02  0.10379465585E-01 -0.45930289149E-01  0.47973635110E-01  0.51100000000E-03 0.  1.
</event>
<event>
 8    1  0.2257781E+004  0.1043930E+01  0.7957747E-01            NaN
         13   -1    0    0    0    0  0.00000000000E+00  0.00000000000E+00  0.74505805969E-08  0.10566000000E+00  0.10566000000E+00 0. -1.
     999900   -1    0    0    0    0 -0.00000000000E+00 -0.00000000000E+00 -0.74505805969E-08  0.93827000000E+00  0.93827000000E+00 0. -1.
     999902    2    1    2    0    0  0.53290194051E-02 -0.13538488647E-01  0.66483089388E-03  0.10293652781E+01  0.10292622332E+01 0.  0.
     999903    2    3    3    0    0 -0.13105614286E+00 -0.91342370573E-03  0.58646794147E-02  0.13875462069E+00  0.45187424945E-01 0.  0.
         14    1    1    2    0    0 -0.53290194051E-02  0.13538488647E-01 -0.66483089388E-03  0.14564721858E-01  0.00000000000E+00 0. -1.
     999901    1    3    3    0    0  0.13638516226E+00 -0.12625064942E-01 -0.51998485208E-02  0.89061065746E+00  0.88000000000E+00 0. -1.
        -11    1    4    4    0    0 -0.12514138363E+00 -0.11677898928E-01  0.91842766798E-02  0.12602123345E+00  0.51100000000E-03 0.  1.
         11    1    4    4    0    0 -0.59147592248E-02  0.10764475222E-01 -0.33195972650E-02  0.12733387236E-01  0.51100000000E-03 0. -1.
</event>
<event>
 8    1  0.2257781E+004  0.1043930E+01  0.7957747E-01            NaN
         13   -1    0    0    0    0  0.00000000000E+00  0.00000000000E+00  0.74505805969E-08  0.10566000000E+00  0.10566000000E+00 0.  1.
     999900   -1    0    0    0    0 -0.00000000000E+00 -0.00000000000E+00 -0.74505805969E-08  0.93827000000E+00  0.93827000000E+00 0. -1.
     999902    2    1    2    0    0  0.55795075804E-02 -0.76557106525E-02 -0.97888051591E-02  0.10303079034E+01  0.10302178479E+01 0.  0.
     999903    2    3    3    0    0  0.75667527474E-01  0.25544743487E-01  0.10477277388E+00  0.13949986788E+00  0.45877776303E-01 0.  0.
         14    1    1    2    0    0 -0.55795075804E-02  0.76557106525E-02  0.97888051591E-02  0.13622096640E-01  0.00000000000E+00 0. -1.
     999901    1    3    3    0    0 -0.70088019893E-01 -0.33200454139E-01 -0.11456157904E+00  0.89080803548E+00  0.88000000000E+00 0. -1.
        -11    1    4    4    0    0  0.45972242886E-01 -0.85297676572E-02  0.57139191240E-01  0.73833273995E-01  0.51100000000E-03 0. -1.
         11    1    4    4    0    0  0.29695284588E-01  0.34074511144E-01  0.47633582636E-01  0.65666593883E-01  0.51100000000E-03 0.  1.
</event>
<event>
 8    1  0.2257781E+004  0.1043930E+01  0.7957747E-01            NaN
         13   -1    0    0    0    0  0.00000000000E+00  0.00000000000E+00  0.74505805969E-08  0.10566000000E+00  0.10566000000E+00 0. -1.
     999900   -1    0    0    0    0 -0.00000000000E+00 -0.00000000000E+00 -0.74505805969E-08  0.93827000000E+00  0.93827000000E+00 0.  1.
     999902    2    1    2    0    0 -0.92645252230E-02 -0.59474589112E-02  0.85503600854E-02  0.10299904034E+01  0.10298960718E+01 0.  0.
     999903    2    3    3    0    0  0.69268812100E-01 -0.10775090622E+00  0.35316875175E-01  0.14024444345E+00  0.44864196497E-01 0.  0.
         14    1    1    2    0    0  0.92645252230E-02  0.59474589112E-02 -0.85503600854E-02  0.13939596576E-01  0.00000000000E+00 0.  1.
     999901    1    3    3    0    0 -0.78533337323E-01  0.10180344730E+00 -0.26766515090E-01  0.88974595997E+00  0.88000000000E+00 0. -1.
        -11    1    4    4    0    0  0.38352867427E-01 -0.68603640081E-01  0.43281534588E-01  0.89727109781E-01  0.51100000000E-03 0. -1.
         11    1    4    4    0    0  0.30915944673E-01 -0.39147266134E-01 -0.79646594130E-02  0.50517333673E-01  0.51100000000E-03 0.  1.
</event>
<event>
 8    1  0.2257781E+004  0.1043930E+01  0.7957747E-01            NaN
         13   -1    0    0    0    0  0.00000000000E+00  0.00000000000E+00  0.74505805969E-08  0.10566000000E+00  0.10566000000E+00 0.  1.
     999900   -1    0    0    0    0 -0.00000000000E+00 -0.00000000000E+00 -0.74505805969E-08  0.93827000000E+00  0.93827000000E+00 0.  1.
     999902    2    1    2    0    0 -0.43779746080E-02 -0.43041157254E-02 -0.13414816836E-01  0.10291770551E+01  0.10290713101E+01 0.  0.
     999903    2    3    3    0    0 -0.90987368124E-01 -0.96292378809E-01 -0.49525285337E-02  0.14011314401E+00  0.45345806990E-01 0.  0.
         14    1    1    2    0    0  0.43779746080E-02  0.43041157254E-02  0.13414816836E-01  0.14752944947E-01  0.00000000000E+00 0.  1.
     999901    1    3    3    0    0  0.86609393516E-01  0.91988263083E-01 -0.84622883027E-02  0.88906391104E+00  0.88000000000E+00 0.  1.
        -11    1    4    4    0    0 -0.29266451917E-01 -0.63288521476E-01 -0.70792134094E-02  0.70088077031E-01  0.51100000000E-03 0.  1.
         11    1    4    4    0    0 -0.61720916207E-01 -0.33003857333E-01  0.21266848757E-02  0.70025066982E-01  0.51100000000E-03 0. -1.
</event>
<event>
 8    1  0.2257781E+004  0.1043930E+01  0.7957747E-01            NaN
         13   -1    0    0    0    0  0.00000000000E+00  0.00000000000E+00  0.74505805969E-08  0.10566000000E+00  0.10566000000E+00 0. -1.
     999900   -1    0    0    0    0 -0.00000000000E+00 -0.00000000000E+00 -0.74505805969E-08  0.93827000000E+00  0.93827000000E+00 0. -1.
     999902    2    1    2    0    0  0.90608118479E-02  0.62402599092E-02  0.78301760099E-02  0.10304262668E+01  0.10303377798E+01 0.  0.
     999903    2    3    3    0    0  0.12426176560E+00 -0.47994265915E-01 -0.12913868483E-01  0.14102030831E+00  0.44446860481E-01 0.  0.
         14    1    1    2    0    0 -0.90608118479E-02 -0.62402599092E-02 -0.78301760099E-02  0.13503733240E-01  0.00000000000E+00 0. -1.
     999901    1    3    3    0    0 -0.11520095375E+00  0.54234525824E-01  0.20744044493E-01  0.88940595845E+00  0.88000000000E+00 0. -1.
        -11    1    4    4    0    0  0.11803686074E+00 -0.31207765372E-01 -0.75651764443E-02  0.12232791231E+00  0.51100000000E-03 0.  1.
         11    1    4    4    0    0  0.62249048586E-02 -0.16786500543E-01 -0.53486920389E-02  0.18692396008E-01  0.51100000000E-03 0. -1.
</event>
<event>
 8    1  0.2257781E+004  0.1043930E+01  0.7957747E-01            NaN
         13   -1    0    0    0    0  0.00000000000E+00  0.00000000000E+00  0.74505805969E-08  0.10566000000E+00  0.10566000000E+00 0. -1.
     999900   -1    0    0    0    0 -0.00000000000E+00 -0.00000000000E+00 -0.74505805969E-08  0.93827000000E+00  0.93827000000E+00 0. -1.
     999902    2    1    2    0    0  0.91163372552E-02  0.81700018674E-02 -0.56484602591E-02  0.10304480996E+01  0.10303599004E+01 0.  0.
     999903    2    3    3    0    0  0.44802374762E-01  0.12064136412E+00 -0.39240494380E-01  0.14193713997E+00  0.45218843222E-01 0.  0.
         14    1    1    2    0    0 -0.91163372552E-02 -0.81700018674E-02  0.56484602591E-02  0.13481900414E-01  0.00000000000E+00 0.  1.
     999901    1    3    3    0    0 -0.35686037507E-01 -0.11247136225E+00  0.33592034121E-01  0.88851095962E+00  0.88000000000E+00 0. -1.
        -11    1    4    4    0    0  0.13850061170E-01  0.41100787096E-02 -0.10828183247E-01  0.18061772195E-01  0.51100000000E-03 0. -1.
         11    1    4    4    0    0  0.30952313592E-01  0.11653128541E+00 -0.28412311133E-01  0.12387536778E+00  0.51100000000E-03 0.  1.
</event>
<event>
 8    1  0.2257781E+004  0.1043930E+01  0.7957747E-01            NaN
         13   -1    0    0    0    0  0.00000000000E+00  0.00000000000E+00  0.74505805969E-08  0.10566000000E+00  0.10566000000E+00 0.  1.
     999900   -1    0    0    0    0 -0.00000000000E+00 -0.00000000000E+00 -0.74505805969E-08  0.93827000000E+00  0.93827000000E+00 0. -1.
     999902    2    1    2    0    0 -0.63028926592E-02  0.57494683974E-02  0.11368723376E-01  0.10297162491E+01  0.10296181443E+01 0.  0.
     999903    2    3    3    0    0  0.65316917612E-01 -0.73458076894E-01 -0.85738942183E-01  0.13795780024E+00  0.44931054432E-01 0.  0.
         14    1    1    2    0    0  0.63028926592E-02 -0.57494683974E-02 -0.11368723376E-01  0.14213750874E-01  0.00000000000E+00 0. -1.
     999901    1    3    3    0    0 -0.71619810271E-01  0.79207545291E-01  0.97107665558E-01  0.89175844889E+00  0.88000000000E+00 0.  1.
        -11    1    4    4    0    0  0.41750226618E-01 -0.67394945553E-01 -0.46875567234E-01  0.92101791694E-01  0.51100000000E-03 0. -1.
         11    1    4    4    0    0  0.23566690994E-01 -0.60631313401E-02 -0.38863374948E-01  0.45856008543E-01  0.51100000000E-03 0.  1.
</event>
<event>
 8    1  0.2257781E+004  0.1043930E+01  0.7957747E-01            NaN
         13   -1    0    0    0    0  0.00000000000E+00  0.00000000000E+00  0.74505805969E-08  0.10566000000E+00  0.10566000000E+00 0. -1.
     999900   -1    0    0    0    0 -0.00000000000E+00 -0.00000000000E+00 -0.74505805969E-08  0.93827000000E+00  0.93827000000E+00 0.  1.
     999902    2    1    2    0    0 -0.11025435527E-01  0.57608485977E-03  0.74059485869E-02  0.10306356336E+01  0.10305498868E+01 0.  0.
     999903    2    3    3    0    0 -0.10258422747E+00  0.73769678128E-01 -0.44579383259E-01  0.14134221232E+00  0.44997893690E-01 0.  0.
         14    1    1    2    0    0  0.11025435527E-01 -0.57608485977E-03 -0.74059485869E-02  0.13294366356E-01  0.00000000000E+00 0.  1.
     999901    1    3    3    0    0  0.91558791940E-01 -0.73193593269E-01  0.51985331846E-01  0.88929342132E+00  0.88000000000E+00 0. -1.
        -11    1    4    4    0    0 -0.68408058114E-01  0.32628038310E-01 -0.72961441916E-02  0.76142932304E-01  0.51100000000E-03 0.  1.
         11    1    4    4    0    0 -0.34176169353E-01  0.41141639819E-01 -0.37283239067E-01  0.65199280019E-01  0.51100000000E-03 0. -1.
</event>
<event>
 8    1  0.2257781E+004  0.1043930E+01  0.7957747E-01            NaN
         13   -1    0    0    0    0  0.00000000000E+00  0.00000000000E+00  0.74505805969E-08  0.10566000000E+00  0.10566000000E+00 0.  1.
     999900   -1    0    0    0    0 -0.00000000000E+00 -0.00000000000E+00 -0.74505805969E-08  0.93827000000E+00  0.93827000000E+00 0. -1.
     999902    2    1    2    0    0 -0.24482038741E-03  0.11217725173E-01  0.64074482576E-02  0.10310089827E+01  0.10309280138E+01 0.  0.
     999903    2    3    3    0    0  0.10014859575E+00 -0.28836207383E-01  0.83753043323E-01  0.14102836684E+00  0.44868250476E-01 0.  0.
         14    1    1    2    0    0  0.24482038741E-03 -0.11217725173E-01 -0.64074482576E-02  0.12921017307E-01  0.00000000000E+00 0. -1.
     999901    1    3    3    0    0 -0.10039341614E+00  0.40053932555E-01 -0.77345595065E-01  0.88998061585E+00  0.88000000000E+00 0. -1.
        -11    1    4    4    0    0  0.66266803437E-01 -0.30946784137E-01  0.33656458985E-01  0.80510937385E-01  0.51100000000E-03 0.  1.
         11    1    4    4    0    0  0.33881792314E-01  0.21105767541E-02  0.50096584338E-01  0.60517429456E-01  0.51100000000E-03 0. -1.
</event>
<event>
 7    1  0.2257781E+004  0.1043930E+01  0.7957747E-01            NaN
         13   -1    0    0    0    0  0.00000000000E+00  0.00000000000E+00  0.74505805969E-08  0.10566000000E+00  0.10566000000E+00 0.  1.
     999900   -1    0    0    0    0 -0.00000000000E+00 -0.00000000000E+00 -0.74505805969E-08  0.93827000000E+00  0.93827000000E+00 0.  1.
     999902    2    1    2    0    0  0.11849557097E-01 -0.57991352792E-02  0.75495039370E-02  0.10287300992E+01  0.10286178008E+01 0.  0.
         14    1    1    2    0    0 -0.11849557097E-01  0.57991352792E-02 -0.75495039370E-02  0.15199900759E-01  0.00000000000E+00 0. -1.
     999901    1    3    3    0    0 -0.10138563366E+00  0.50412850004E-01 -0.47981458979E-01  0.88855091163E+00  0.88000000000E+00 0. -1.
        -11    1    3    3    0    0  0.27644035893E-01 -0.32246143977E-02  0.15365582829E-01  0.31795488911E-01  0.51100000000E-03 0. -1.
         11    1    3    3    0    0  0.85591154866E-01 -0.52987370885E-01  0.40165380087E-01  0.10838369870E+00  0.51100000000E-03 0.  1.
</event>
<event>
 8    1  0.2257781E+004  0.1043930E+01  0.7957747E-01            NaN
         13   -1    0    0    0    0  0.00000000000E+00  0.00000000000E+00  0.74505805969E-08  0.10566000000E+00  0.10566000000E+00 0. -1.
     999900   -1    0    0    0    0 -0.00000000000E+00 -0.00000000000E+00 -0.74505805969E-08  0.93827000000E+00  0.93827000000E+00 0.  1.
     999902    2    1    2    0    0  0.96024313617E-02  0.49801530020E-02 -0.77280342266E-02  0.10306359741E+01  0.10305502317E+01 0.  0.
     999903    2    3    3    0    0 -0.25037324651E-01 -0.12492609882E+00 -0.37113502888E-01  0.13994014906E+00  0.44412109043E-01 0.  0.
         14    1    1    2    0    0 -0.96024313617E-02 -0.49801530020E-02  0.77280342266E-02  0.13294025913E-01  0.00000000000E+00 0. -1.
     999901    1    3    3    0    0  0.34639756013E-01  0.12990625182E+00  0.29385468661E-01  0.89069582503E+00  0.88000000000E+00 0. -1.
        -11    1    4    4    0    0 -0.13127019642E-01 -0.60377802625E-01 -0.41048372701E-01  0.74182394926E-01  0.51100000000E-03 0. -1.
         11    1    4    4    0    0 -0.11910305009E-01 -0.64548296193E-01  0.39348698132E-02  0.65757754130E-01  0.51100000000E-03 0.  1.
</event>
<event>
 8    1  0.2257781E+004  0.1043930E+01  0.7957747E-01            NaN
         13   -1    0    0    0    0  0.00000000000E+00  0.00000000000E+00  0.74505805969E-08  0.10566000000E+00  0.10566000000E+00 0.  1.
     999900   -1    0    0    0    0 -0.00000000000E+00 -0.00000000000E+00 -0.74505805969E-08  0.93827000000E+00  0.93827000000E+00 0.  1.
     999902    2    1    2    0    0 -0.13832615427E-01 -0.27192029454E-02 -0.31130286469E-02  0.10294930245E+01  0.10293917919E+01 0.  0.
     999903    2    3    3    0    0 -0.68246978919E-01 -0.10948222785E-01  0.11333325691E+00  0.14011775098E+00  0.44844657501E-01 0.  0.
         14    1    1    2    0    0  0.13832615427E-01  0.27192029454E-02  0.31130286469E-02  0.14436975500E-01  0.00000000000E+00 0. -1.
     999901    1    3    3    0    0  0.54414363492E-01  0.82290198400E-02 -0.11644628555E+00  0.88937527352E+00  0.88000000000E+00 0.  1.
        -11    1    4    4    0    0 -0.32113835164E-01 -0.91156959242E-02  0.92556015241E-01  0.98393452015E-01  0.51100000000E-03 0. -1.
         11    1    4    4    0    0 -0.36133143755E-01 -0.18325268612E-02  0.20777241665E-01  0.41724298970E-01  0.51100000000E-03 0.  1.
</event>
<event>
 7    1  0.2257781E+004  0.1043930E+01  0.7957747E-01            NaN
         13   -1    0    0    0    0  0.00000000000E+00  0.00000000000E+00  0.74505805969E-08  0.10566000000E+00  0.10566000000E+00 0. -1.
     999900   -1    0    0    0    0 -0.00000000000E+00 -0.00000000000E+00 -0.74505805969E-08  0.93827000000E+00  0.93827000000E+00 0. -1.
     999903    2    1    2    0    0 -0.85649222314E-01  0.40833857898E-01 -0.55069998996E-01  0.12152908735E+00  0.52282129358E-01 0.  0.
         14    1    1    2    0    0 -0.13304788421E-01  0.66326894005E-02 -0.27999511985E-01  0.31701461086E-01  0.00000000000E+00 0.  1.
     999901    1    1    2    0    0  0.98954010735E-01 -0.47466547298E-01  0.83069510980E-01  0.89069945156E+00  0.88000000000E+00 0.  1.
        -11    1    3    3    0    0 -0.75063863165E-01  0.20188437515E-01 -0.59515559473E-01  0.97900559258E-01  0.51100000000E-03 0.  1.
         11    1    3    3    0    0 -0.10585359148E-01  0.20645420383E-01  0.44455604774E-02  0.23628528097E-01  0.51100000000E-03 0. -1.
</event>
<event>
 8    1  0.2257781E+004  0.1043930E+01  0.7957747E-01            NaN
         13   -1    0    0    0    0  0.00000000000E+00  0.00000000000E+00  0.74505805969E-08  0.10566000000E+00  0.10566000000E+00 0. -1.
     999900   -1    0    0    0    0 -0.00000000000E+00 -0.00000000000E+00 -0.74505805969E-08  0.93827000000E+00  0.93827000000E+00 0. -1.
     999902    2    1    2    0    0  0.21141156101E-02  0.14635085626E-01  0.15670149407E-02  0.10290602067E+01  0.10289527678E+01 0.  0.
     999903    2    3    3    0    0 -0.11183381598E+00 -0.58853789952E-01 -0.27896698834E-01  0.13818824265E+00  0.48447844268E-01 0.  0.
         14    1    1    2    0    0 -0.21141156101E-02 -0.14635085626E-01 -0.15670149407E-02  0.14869793270E-01  0.00000000000E+00 0. -1.
     999901    1    3    3    0    0  0.11394793159E+00  0.73488875578E-01  0.29463713775E-01  0.89087196408E+00  0.88000000000E+00 0. -1.
        -11    1    4    4    0    0 -0.60817898040E-01 -0.13431414445E-01  0.47750164881E-02  0.62468244088E-01  0.51100000000E-03 0. -1.
         11    1    4    4    0    0 -0.51015917937E-01 -0.45422375507E-01 -0.32671715322E-01  0.75719998566E-01  0.51100000000E-03 0.  1.
</event>
<event>
 7    1  0.2257781E+004  0.1043930E+01  0.7957747E-01            NaN
         13   -1    0    0    0    0  0.00000000000E+00  0.00000000000E+00  0.74505805969E-08  0.10566000000E+00  0.10566000000E+00 0.  1.
     999900   -1    0    0    0    0 -0.00000000000E+00 -0.00000000000E+00 -0.74505805969E-08  0.93827000000E+00  0.93827000000E+00 0. -1.
     999903    2    1    2    0    0  0.38825140871E-01 -0.70799239840E-01  0.71188589754E-01  0.11673656167E+00  0.45162878497E-01 0.  0.
         14    1    1    2    0    0  0.48133460312E-02 -0.24844561234E-01  0.25195523306E-01  0.35710431495E-01  0.00000000000E+00 0.  1.
     999901    1    1    2    0    0 -0.43638486902E-01  0.95643801074E-01 -0.96384113060E-01  0.89148300683E+00  0.88000000000E+00 0. -1.
        -11    1    3    3    0    0  0.22544139103E-02 -0.20911529924E-01 -0.17353989004E-02  0.21110357557E-01  0.51100000000E-03 0. -1.
         11    1    3    3    0    0  0.36570726960E-01 -0.49887709916E-01  0.72923988654E-01  0.95626204115E-01  0.51100000000E-03 0.  1.
</event>
<event>
 8    1  0.2257781E+004  0.1043930E+01  0.7957747E-01            NaN
         13   -1    0    0    0    0  0.00000000000E+00  0.00000000000E+00  0.74505805969E-08  0.10566000000E+00  0.10566000000E+00 0. -1.
     999900   -1    0    0    0    0 -0.00000000000E+00 -0.00000000000E+00 -0.74505805969E-08  0.93827000000E+00  0.93827000000E+00 0.  1.
     999902    2    1    2    0    0 -0.29720389783E-02 -0.55875446998E-02  0.11471654330E-01  0.10308283770E+01  0.10307451142E+01 0.  0.
     999903    2    3    3    0    0  0.25403637645E-01  0.11426375822E+00 -0.61856455300E-01  0.13923063954E+00  0.43097548368E-01 0.  0.
         14    1    1    2    0    0  0.29720389783E-02  0.55875446998E-02 -0.11471654330E-01  0.13101622973E-01  0.00000000000E+00 0.  1.
     999901    1    3    3    0    0 -0.28375676623E-01 -0.11985130292E+00  0.73328109630E-01  0.89159773749E+00  0.88000000000E+00 0.  1.
        -11    1    4    4    0    0  0.25525903909E-03  0.70503082434E-01 -0.19011863820E-01  0.73023707635E-01  0.51100000000E-03 0. -1.
         11    1    4    4    0    0  0.25148378606E-01  0.43760675787E-01 -0.42844591480E-01  0.66206931902E-01  0.51100000000E-03 0.  1.
</event>
<event>
 8    1  0.2257781E+004  0.1043930E+01  0.7957747E-01            NaN
         13   -1    0    0    0    0  0.00000000000E+00  0.00000000000E+00  0.74505805969E-08  0.10566000000E+00  0.10566000000E+00 0.  1.
     999900   -1    0    0    0    0 -0.00000000000E+00 -0.00000000000E+00 -0.74505805969E-08  0.93827000000E+00  0.93827000000E+00 0.  1.
     999902    2    1    2    0    0  0.34164172072E-02 -0.15373292107E-01  0.10576512778E-01  0.10249596906E+01  0.10247841210E+01 0.  0.
     999903    2    3    3    0    0 -0.86554208764E-01  0.53322706411E-01 -0.74190874053E-01  0.13366884938E+00  0.45034802403E-01 0.  0.
         14    1    1    2    0    0 -0.34164172072E-02  0.15373292107E-01 -0.10576512778E-01  0.18970309414E-01  0.00000000000E+00 0.  1.
     999901    1    3    3    0    0  0.89970625972E-01 -0.68695998518E-01  0.84767386831E-01  0.89129084121E+00  0.88000000000E+00 0. -1.
        -11    1    4    4    0    0 -0.64796208589E-01  0.37503135222E-01 -0.27459621666E-01  0.79745380694E-01  0.51100000000E-03 0.  1.
         11    1    4    4    0    0 -0.21758000175E-01  0.15819571188E-01 -0.46731252387E-01  0.53923468684E-01  0.51100000000E-03 0. -1.
</event>
<event>
 8    1  0.2257781E+004  0.1043930E+01  0.7957747E-01            NaN
         13   -1    0    0    0    0  0.00000000000E+00  0.00000000000E+00  0.74505805969E-08  0.10566000000E+00  0.10566000000E+00 0. -1.
     999900   -1    0    0    0    0 -0.00000000000E+00 -0.00000000000E+00 -0.74505805969E-08  0.93827000000E+00  0.93827000000E+00 0. -1.
     999902    2    1    2    0    0 -0.64063288310E-02 -0.73915878491E-03  0.12205980068E-01  0.10301251692E+01  0.10300326649E+01 0.  0.
     999903    2    3    3    0    0  0.11737879857E+00  0.16618806063E-01 -0.56294817255E-01  0.13865648439E+00  0.44749828427E-01 0.  0.
         14    1    1    2    0    0  0.64063288310E-02  0.73915878491E-03 -0.12205980068E-01  0.13804830829E-01  0.00000000000E+00 0.  1.
     999901    1    3    3    0    0 -0.12378512740E+00 -0.17357964848E-01  0.68500797322E-01  0.89146868478E+00  0.88000000000E+00 0.  1.
        -11    1    4    4    0    0  0.68472977292E-01 -0.85951210529E-02 -0.45276824044E-01  0.82538940153E-01  0.51100000000E-03 0. -1.
         11    1    4    4    0    0  0.48905821282E-01  0.25213927116E-01 -0.11017993211E-01  0.56117544237E-01  0.51100000000E-03 0.  1.
</event>
<event>
 8    1  0.2257781E+004  0.1043930E+01  0.7957747E-01            NaN
         13   -1    0    0    0    0  0.00000000000E+00  0.00000000000E+00  0.74505805969E-08  0.10566000000E+00  0.10566000000E+00 0.  1.
     999900   -1    0    0    0    0 -0.00000000000E+00 -0.00000000000E+00 -0.74505805969E-08  0.93827000000E+00  0.93827000000E+00 0.  1.
     999902    2    1    2    0    0  0.11828691621E-01  0.69877564198E-02 -0.29451922754E-02  0.10298793472E+01  0.10297834962E+01 0.  0.
     999903    2    3    3    0    0  0.60659651797E-01 -0.60483727805E-01 -0.10182244738E+00  0.14043369099E+00  0.44899176927E-01 0.  0.
         14    1    1    2    0    0 -0.11828691621E-01 -0.69877564198E-02  0.29451922754E-02  0.14050652753E-01  0.00000000000E+00 0.  1.
     999901    1    3    3    0    0 -0.48830960176E-01  0.67471484225E-01  0.98877255108E-01  0.88944565626E+00  0.88000000000E+00 0. -1.
        -11    1    4    4    0    0  0.27435892771E-01 -0.25296729005E-01 -0.13439351070E-01  0.39667744941E-01  0.51100000000E-03 0.  1.
         11    1    4    4    0    0  0.33223759026E-01 -0.35186998800E-01 -0.88383096313E-01  0.10076594605E+00  0.51100000000E-03 0. -1.
</event>
<event>
 7    1  0.2257781E+004  0.1043930E+01  0.7957747E-01            NaN
         13   -1    0    0    0    0  0.00000000000E+00  0.00000000000E+00  0.74505805969E-08  0.10566000000E+00  0.10566000000E+00 0. -1.
     999900   -1    0    0    0    0 -0.00000000000E+00 -0.00000000000E+00 -0.74505805969E-08  0.93827000000E+00  0.93827000000E+00 0. -1.
     999903    2    1    2    0    0  0.84024094587E-01  0.24222728734E-01 -0.72911637587E-01  0.12233228199E+00  0.44746969309E-01 0.  0.
         14    1    1    2    0    0  0.29003320249E-01 -0.43747653493E-02 -0.81769758809E-02  0.30449861936E-01  0.00000000000E+00 0. -1.
     999901    1    1    2    0    0 -0.11302741484E+00 -0.19847963385E-01  0.81088613468E-01  0.89114785608E+00  0.88000000000E+00 0.  1.
        -11    1    3    3    0    0  0.18516840169E-01  0.18533791325E-01 -0.30309324686E-02  0.26378446947E-01  0.51100000000E-03 0. -1.
         11    1    3    3    0    0  0.65507254418E-01  0.56889374093E-02 -0.69880705118E-01  0.95953835041E-01  0.51100000000E-03 0.  1.
</event>
<event>
 8    1  0.2257781E+004  0.1043930E+01  0.7957747E-01            NaN
         13   -1    0    0    0    0  0.00000000000E+00  0.00000000000E+00  0.74505805969E-08  0.10566000000E+00  0.10566000000E+00 0. -1.
     999900   -1    0    0    0    0 -0.00000000000E+00 -0.00000000000E+00 -0.74505805969E-08  0.93827000000E+00  0.93827000000E+00 0.  1.
     999902    2    1    2    0    0  0.58222012863E-02  0.11980586278E-01 -0.33799125871E-02  0.10301875008E+01  0.10300958356E+01 0.  0.
     999903    2    3    3    0    0  0.11141830829E+00  0.59751280333E-01  0.44504209416E-01  0.14129748163E+00  0.44722463423E-01 0.  0.
         14    1    1    2    0    0 -0.58222012863E-02 -0.11980586278E-01  0.33799125871E-02  0.13742499208E-01  0.00000000000E+00 0.  1.
     999901    1    3    3    0    0 -0.10559610701E+00 -0.47770694055E-01 -0.47884122003E-01  0.88889001916E+00  0.88000000000E+00 0. -1.
        -11    1    4    4    0    0  0.50185714256E-01  0.29392315017E-02  0.21330985384E-01  0.54612425835E-01  0.51100000000E-03 0. -1.
         11    1    4    4    0    0  0.61232594039E-01  0.56812048831E-01  0.23173224032E-01  0.86685055795E-01  0.51100000000E-03 0.  1.
</event>
<event>
 8    1  0.2257781E+004  0.1043930E+01  0.7957747E-01            NaN
         13   -1    0    0    0    0  0.00000000000E+00  0.00000000000E+00  0.74505805969E-08  0.10566000000E+00  0.10566000000E+00 0. -1.
     999900   -1    0    0    0    0 -0.00000000000E+00 -0.00000000000E+00 -0.74505805969E-08  0.93827000000E+00  0.93827000000E+00 0.  1.
     999902    2    1    2    0    0 -0.55670509996E-03 -0.95737816991E-02 -0.10236812949E-01  0.10299028992E+01  0.10298073714E+01 0.  0.
     999903    2    3    3    0    0  0.99635179354E-01 -0.54035295866E-01 -0.71052879868E-01  0.14101942321E+00  0.44620441732E-01 0.  0.
         14    1    1    2    0    0  0.55670509996E-03  0.95737816991E-02  0.10236812949E-01  0.14027100768E-01  0.00000000000E+00 0. -1.
     999901    1    3    3    0    0 -0.10019188445E+00  0.44461514166E-01  0.60816066919E-01  0.88888347602E+00  0.88000000000E+00 0. -1.
        -11    1    4    4    0    0  0.11823474483E-02 -0.74954993640E-02  0.41619831017E-02  0.86696989881E-02  0.51100000000E-03 0. -1.
         11    1    4    4    0    0  0.98452831906E-01 -0.46539796501E-01 -0.75214862970E-01  0.13234972422E+00  0.51100000000E-03 0.  1.
</event>
<event>
 8    1  0.2257781E+004  0.1043930E+01  0.7957747E-01            NaN
         13   -1    0    0    0    0  0.00000000000E+00  0.00000000000E+00  0.74505805969E-08  0.10566000000E+00  0.10566000000E+00 0. -1.
     999900   -1    0    0    0    0 -0.00000000000E+00 -0.00000000000E+00 -0.74505805969E-08  0.93827000000E+00  0.93827000000E+00 0. -1.
     999902    2    1    2    0    0 -0.99496543111E-02  0.98499089207E-02  0.32023052410E-02  0.10295678593E+01  0.10294676808E+01 0.  0.
     999903    2    3    3    0    0 -0.12697067731E+00 -0.35463485720E-01 -0.87614597505E-03  0.14065624540E+00  0.49032642411E-01 0.  0.
         14    1    1    2    0    0  0.99496543111E-02 -0.98499089207E-02 -0.32023052410E-02  0.14362140701E-01  0.00000000000E+00 0. -1.
     999901    1    3    3    0    0  0.11702102300E+00  0.45313394641E-01  0.40784512161E-02  0.88891161390E+00  0.88000000000E+00 0.  1.
        -11    1    4    4    0    0 -0.30942851770E-01 -0.11069283027E-01  0.21247600427E-01  0.39137076376E-01  0.51100000000E-03 0. -1.
         11    1    4    4    0    0 -0.96027825543E-01 -0.24394202693E-01 -0.22123746402E-01  0.10151916902E+00  0.51100000000E-03 0.  1.
</event>
<event>
 8    1  0.2257781E+004  0.1043930E+01  0.7957747E-01            NaN
         13   -1    0    0    0    0  0.00000000000E+00  0.00000000000E+00  0.74505805969E-08  0.10566000000E+00  0.10566000000E+00 0. -1.
     999900   -1    0    0    0    0 -0.00000000000E+00 -0.00000000000E+00 -0.74505805969E-08  0.93827000000E+00  0.93827000000E+00 0. -1.
     999902    2    1    2    0    0  0.13305321299E-01  0.71236974195E-04 -0.65133692697E-03  0.10306085553E+01  0.10305224565E+01 0.  0.
     999903    2    3    3    0    0 -0.11532089392E+00  0.53610975905E-01 -0.33564159390E-01  0.13904001570E+00  0.45083565277E-01 0.  0.
         14    1    1    2    0    0 -0.13305321299E-01 -0.71236974195E-04  0.65133692697E-03  0.13321444717E-01  0.00000000000E+00 0.  1.
     999901    1    3    3    0    0  0.12862621522E+00 -0.53539738931E-01  0.32912822463E-01  0.89156853958E+00  0.88000000000E+00 0. -1.
        -11    1    4    4    0    0 -0.64867182614E-01  0.52946965685E-01 -0.13883532404E-01  0.84877241641E-01  0.51100000000E-03 0. -1.
         11    1    4    4    0    0 -0.50453711309E-01  0.66401022014E-03 -0.19680626985E-01  0.54162774061E-01  0.51100000000E-03 0.  1.
</event>
<event>
 8    1  0.2257781E+004  0.1043930E+01  0.7957747E-01            NaN
         13   -1    0    0    0    0  0.00000000000E+00  0.00000000000E+00  0.74505805969E-08  0.10566000000E+00  0.10566000000E+00 0. -1.
     999900   -1    0    0    0    0 -0.00000000000E+00 -0.00000000000E+00 -0.74505805969E-08  0.93827000000E+00  0.93827000000E+00 0.  1.
     999902    2    1    2    0    0  0.28098570966E-02  0.63177684762E-02 -0.11709583812E-01  0.10303313292E+01  0.10302415853E+01 0.  0.
     999903    2    3    3    0    0  0.41268714330E-01 -0.43371655170E-03  0.12491569980E+00  0.13893291411E+00  0.44666852049E-01 0.  0.
         14    1    1    2    0    0 -0.28098570966E-02 -0.63177684762E-02  0.11709583812E-01  0.13598670834E-01  0.00000000000E+00 0.  1.
     999901    1    3    3    0    0 -0.38458857233E-01  0.67514850279E-02 -0.13662528361E+00  0.89139841506E+00  0.88000000000E+00 0.  1.
        -11    1    4    4    0    0  0.45605755430E-01  0.53819136201E-02  0.71194811355E-01  0.84721970040E-01  0.51100000000E-03 0. -1.
         11    1    4    4    0    0 -0.43370411004E-02 -0.58156301718E-02  0.53720888448E-01  0.54210944065E-01  0.51100000000E-03 0.  1.
</event>
<event>
 8    1  0.2257781E+004  0.1043930E+01  0.7957747E-01            NaN
         13   -1    0    0    0    0  0.00000000000E+00  0.00000000000E+00  0.74505805969E-08  0.10566000000E+00  0.10566000000E+00 0.  1.
     999900   -1    0    0    0    0 -0.00000000000E+00 -0.00000000000E+00 -0.74505805969E-08  0.93827000000E+00  0.93827000000E+00 0.  1.
     999902    2    1    2    0    0 -0.86879358526E-02  0.14721581416E-01 -0.15290268850E-01  0.10209953644E+01  0.10207377413E+01 0.  0.
     999903    2    3    3    0    0  0.91018560899E-01 -0.73790218854E-01  0.30086147123E-01  0.12979687730E+00  0.47039114371E-01 0.  0.
         14    1    1    2    0    0  0.86879358526E-02 -0.14721581416E-01  0.15290268850E-01  0.22934635604E-01  0.00000000000E+00 0.  1.
     999901    1    3    3    0    0 -0.99706496751E-01  0.88511800270E-01 -0.45376415973E-01  0.89119848710E+00  0.88000000000E+00 0.  1.
        -11    1    4    4    0    0  0.38750532243E-01 -0.18162545361E-01 -0.94551405336E-02  0.43830840816E-01  0.51100000000E-03 0. -1.
         11    1    4    4    0    0  0.52268028656E-01 -0.55627673492E-01  0.39541287657E-01  0.85966036481E-01  0.51100000000E-03 0.  1.
</event>
<event>
 8    1  0.2257781E+004  0.1043930E+01  0.7957747E-01            NaN
         13   -1    0    0    0    0  0.00000000000E+00  0.00000000000E+00  0.74505805969E-08  0.10566000000E+00  0.10566000000E+00 0.  1.
     999900   -1    0    0    0    0 -0.00000000000E+00 -0.00000000000E+00 -0.74505805969E-08  0.93827000000E+00  0.93827000000E+00 0.  1.
     999902    2    1    2    0    0 -0.13050001259E-01 -0.10672616219E-02 -0.40834040181E-02  0.10302144698E+01  0.10301231664E+01 0.  0.
     999903    2    3    3    0    0  0.37350692080E-01 -0.46102222460E-01 -0.11880219335E+00  0.14019830241E+00  0.44956798610E-01 0.  0.
         14    1    1    2    0    0  0.13050001259E-01  0.10672616219E-02  0.40834040181E-02  0.13715530198E-01  0.00000000000E+00 0.  1.
     999901    1    3    3    0    0 -0.50400693339E-01  0.45034960839E-01  0.11471878933E+00  0.89001616739E+00  0.88000000000E+00 0. -1.
        -11    1    4    4    0    0  0.32709220874E-01 -0.21082781480E-01 -0.10332237212E+00  0.11040901460E+00  0.51100000000E-03 0.  1.
         11    1    4    4    0    0  0.46414712055E-02 -0.25019440981E-01 -0.15479821232E-01  0.29789287811E-01  0.51100000000E-03 0. -1.
</event>
<event>
 8    1  0.2257781E+004  0.1043930E+01  0.7957747E-01            NaN
         13   -1    0    0    0    0  0.00000000000E+00  0.00000000000E+00  0.74505805969E-08  0.10566000000E+00  0.10566000000E+00 0. -1.
     999900   -1    0    0    0    0 -0.00000000000E+00 -0.00000000000E+00 -0.74505805969E-08  0.93827000000E+00  0.93827000000E+00 0.  1.
     999902    2    1    2    0    0  0.10674045332E-01  0.68583605375E-02  0.15234442557E-01  0.10241042442E+01  0.10239123216E+01 0.  0.
     999903    2    3    3    0    0  0.59253287062E-01 -0.30650844540E-01  0.11052972650E+00  0.13683423212E+00  0.45347109526E-01 0.  0.
         14    1    1    2    0    0 -0.10674045332E-01 -0.68583605375E-02 -0.15234442557E-01  0.19825755800E-01  0.00000000000E+00 0.  1.
     999901    1    3    3    0    0 -0.48579241730E-01  0.37509205077E-01 -0.95295283939E-01  0.88727001208E+00  0.88000000000E+00 0.  1.
        -11    1    4    4    0    0  0.59408177795E-01 -0.10772929043E-01  0.88758515499E-01  0.10734860401E+00  0.51100000000E-03 0. -1.
         11    1    4    4    0    0 -0.15489073315E-03 -0.19877915497E-01  0.21771210996E-01  0.29485628107E-01  0.51100000000E-03 0.  1.
</event>
<event>
 8    1  0.2257781E+004  0.1043930E+01  0.7957747E-01            NaN
         13   -1    0    0    0    0  0.00000000000E+00  0.00000000000E+00  0.74505805969E-08  0.10566000000E+00  0.10566000000E+00 0. -1.
     999900   -1    0    0    0    0 -0.00000000000E+00 -0.00000000000E+00 -0.74505805969E-08  0.93827000000E+00  0.93827000000E+00 0. -1.
     999902    2    1    2    0    0 -0.58216139753E-02 -0.12195523585E-01  0.45045501300E-02  0.10296852481E+01  0.10295867118E+01 0.  0.
     999903    2    3    3    0    0 -0.12969036878E-02  0.11893871258E+00 -0.54283114086E-01  0.13801678373E+00  0.44202678712E-01 0.  0.
         14    1    1    2    0    0  0.58216139753E-02  0.12195523585E-01 -0.45045501300E-02  0.14244751899E-01  0.00000000000E+00 0.  1.
     999901    1    3    3    0    0 -0.45247102875E-02 -0.13113423617E+00  0.58787664216E-01  0.89166846438E+00  0.88000000000E+00 0. -1.
        -11    1    4    4    0    0 -0.14188563212E-01  0.10729900008E-01 -0.55533353753E-02  0.18642605370E-01  0.51100000000E-03 0. -1.
         11    1    4    4    0    0  0.12891659524E-01  0.10820881257E+00 -0.48729778710E-01  0.11937417836E+00  0.51100000000E-03 0.  1.
</event>
<event>
 8    1  0.2257781E+004  0.1043930E+01  0.7957747E-01            NaN
         13   -1    0    0    0    0  0.00000000000E+00  0.00000000000E+00  0.74505805969E-08  0.10566000000E+00  0.10566000000E+00 0.  1.
     999900   -1    0    0    0    0 -0.00000000000E+00 -0.00000000000E+00 -0.74505805969E-08  0.93827000000E+00  0.93827000000E+00 0.  1.
     999902    2    1    2    0    0  0.11480068958E-01 -0.44707863317E-02  0.24254615655E-02  0.10313736161E+01  0.10312971798E+01 0.  0.
     999903    2    3    3    0    0 -0.10054161884E-01  0.98826789296E-01  0.88459622531E-01  0.14090408313E+00  0.46486937643E-01 0.  0.
         14    1    1    2    0    0 -0.11480068958E-01  0.44707863317E-02 -0.24254615655E-02  0.12556383934E-01  0.00000000000E+00 0. -1.
     999901    1    3    3    0    0  0.21534230842E-01 -0.10329757563E+00 -0.86034160966E-01  0.89046953293E+00  0.88000000000E+00 0.  1.
        -11    1    4    4    0    0  0.81294825774E-03  0.20921900775E-01  0.48168501442E-01  0.52524779572E-01  0.51100000000E-03 0.  1.
         11    1    4    4    0    0 -0.10867110141E-01  0.77904888521E-01  0.40291121089E-01  0.88379303560E-01  0.51100000000E-03 0. -1.
</event>
<event>
 8    1  0.2257781E+004  0.1043930E+01  0.7957747E-01            NaN
         13   -1    0    0    0    0  0.00000000000E+00  0.00000000000E+00  0.74505805969E-08  0.10566000000E+00  0.10566000000E+00 0.  1.
     999900   -1    0    0    0    0 -0.00000000000E+00 -0.00000000000E+00 -0.74505805969E-08  0.93827000000E+00  0.93827000000E+00 0. -1.
     999902    2    1    2    0    0 -0.13501605069E-01 -0.94953601994E-03 -0.28499567727E-02  0.10300982535E+01  0.10300053857E+01 0.  0.
     999903    2    3    3    0    0  0.28770181672E-01 -0.29679953784E-01  0.12527472461E+00  0.13935234424E+00  0.44907640852E-01 0.  0.
         14    1    1    2    0    0  0.13501605069E-01  0.94953601994E-03  0.28499567727E-02  0.13831746516E-01  0.00000000000E+00 0. -1.
     999901    1    3    3    0    0 -0.42271786741E-01  0.28730417764E-01 -0.12812468139E+00  0.89074590925E+00  0.88000000000E+00 0. -1.
        -11    1    4    4    0    0  0.19879578501E-01  0.70928924717E-02  0.28691762728E-01  0.35622817609E-01  0.51100000000E-03 0. -1.
         11    1    4    4    0    0  0.88906031711E-02 -0.36772846256E-01  0.96582961887E-01  0.10372952663E+00  0.51100000000E-03 0.  1.
</event>
<event>
 8    1  0.2257781E+004  0.1043930E+01  0.7957747E-01            NaN
         13   -1    0    0    0    0  0.00000000000E+00  0.00000000000E+00  0.74505805969E-08  0.10566000000E+00  0.10566000000E+00 0. -1.
     999900   -1    0    0    0    0 -0.00000000000E+00 -0.00000000000E+00 -0.74505805969E-08  0.93827000000E+00  0.93827000000E+00 0. -1.
     999902    2    1    2    0    0 -0.85166045099E-02 -0.59646552056E-02  0.40414136166E-02  0.10327746117E+01  0.10327143632E+01 0.  0.
     999903    2    3    3    0    0  0.95948233843E-01 -0.89703230969E-01  0.29922901865E-01  0.14227199915E+00  0.45751595192E-01 0.  0.
         14    1    1    2    0    0  0.85166045099E-02  0.59646552056E-02 -0.40414136166E-02  0.11155388300E-01  0.00000000000E+00 0.  1.
     999901    1    3    3    0    0 -0.10446483835E+00  0.83738575763E-01 -0.25881488249E-01  0.89050261255E+00  0.88000000000E+00 0. -1.
        -11    1    4    4    0    0  0.83735332840E-01 -0.86845903136E-01  0.13197782477E-01  0.12136004054E+00  0.51100000000E-03 0. -1.
         11    1    4    4    0    0  0.12212901002E-01 -0.28573278330E-02  0.16725119389E-01  0.20911958608E-01  0.51100000000E-03 0.  1.
</event>
<event>
 8    1  0.2257781E+004  0.1043930E+01  0.7957747E-01            NaN
         13   -1    0    0    0    0  0.00000000000E+00  0.00000000000E+00  0.74505805969E-08  0.10566000000E+00  0.10566000000E+00 0.  1.
     999900   -1    0    0    0    0 -0.00000000000E+00 -0.00000000000E+00 -0.74505805969E-08  0.93827000000E+00  0.93827000000E+00 0. -1.
     999902    2    1    2    0    0  0.63955632234E-02 -0.94655445105E-02  0.79677072752E-02  0.10300021818E+01  0.10299080106E+01 0.  0.
     999903    2    3    3    0    0  0.28046562380E-01  0.12803799099E+00  0.11959223541E-01  0.13905217180E+00  0.44856957717E-01 0.  0.
         14    1    1    2    0    0 -0.63955632234E-02  0.94655445105E-02 -0.79677072752E-02  0.13927818244E-01  0.00000000000E+00 0. -1.
     999901    1    3    3    0    0 -0.21650999157E-01 -0.13750353550E+00 -0.39915162658E-02  0.89095000996E+00  0.88000000000E+00 0.  1.
        -11    1    4    4    0    0  0.78461219571E-03  0.34946274839E-01 -0.15495275404E-01  0.38239017015E-01  0.51100000000E-03 0.  1.
         11    1    4    4    0    0  0.27261950184E-01  0.93091716153E-01  0.27454498945E-01  0.10081315478E+00  0.51100000000E-03 0. -1.
</event>
<event>
 8    1  0.2257781E+004  0.1043930E+01  0.7957747E-01            NaN
         13   -1    0    0    0    0  0.00000000000E+00  0.00000000000E+00  0.74505805969E-08  0.10566000000E+00  0.10566000000E+00 0.  1.
     999900   -1    0    0    0    0 -0.00000000000E+00 -0.00000000000E+00 -0.74505805969E-08  0.93827000000E+00  0.93827000000E+00 0. -1.
     999902    2    1    2    0    0 -0.11469452136E-01 -0.70714412336E-02  0.63494514782E-02  0.10290347273E+01  0.10289269172E+01 0.  0.
     999903    2    3    3    0    0  0.84065522340E-01 -0.98305468391E-01 -0.22095212687E-01  0.13872035704E+00  0.44990686486E-01 0.  0.
         14    1    1    2    0    0  0.11469452136E-01  0.70714412336E-02 -0.63494514782E-02  0.14895272656E-01  0.00000000000E+00 0. -1.
     999901    1    3    3    0    0 -0.95534974476E-01  0.91234027157E-01  0.28444664165E-01  0.89031437031E+00  0.88000000000E+00 0. -1.
        -11    1    4    4    0    0  0.22384352031E-01 -0.24754020146E-01 -0.26511935978E-01  0.42625867728E-01  0.51100000000E-03 0. -1.
         11    1    4    4    0    0  0.61681170308E-01 -0.73551448244E-01  0.44167232920E-02  0.96094489307E-01  0.51100000000E-03 0.  1.
</event>
<event>
 8    1  0.2257781E+004  0.1043930E+01  0.7957747E-01            NaN
         13   -1    0    0    0    0  0.00000000000E+00  0.00000000000E+00  0.74505805969E-08  0.10566000000E+00  0.10566000000E+00 0. -1.
     999900   -1    0    0    0    0 -0.00000000000E+00 -0.00000000000E+00 -0.74505805969E-08  0.93827000000E+00  0.93827000000E+00 0.  1.
     999902    2    1    2    0    0 -0.36903295034E-02  0.12189588171E-02 -0.12579977558E-01  0.10307633669E+01  0.10306792703E+01 0.  0.
     999903    2    3    3    0    0  0.11886696589E+00 -0.30190665966E-01  0.50021648412E-01  0.13951378412E+00  0.43830340632E-01 0.  0.
         14    1    1    2    0    0  0.36903295034E-02 -0.12189588171E-02  0.12579977558E-01  0.13166633123E-01  0.00000000000E+00 0. -1.
     999901    1    3    3    0    0 -0.12255729539E+00  0.31409624783E-01 -0.62601625970E-01  0.89124958275E+00  0.88000000000E+00 0. -1.
        -11    1    4    4    0    0  0.10874132354E+00 -0.14474261471E-01  0.50584620096E-01  0.12080250247E+00  0.51100000000E-03 0.  1.
         11    1    4    4    0    0  0.10125642346E-01 -0.15716404495E-01 -0.56297168355E-03  0.18711281658E-01  0.51100000000E-03 0. -1.
</event>
<event>
 8    1  0.2257781E+004  0.1043930E+01  0.7957747E-01            NaN
         13   -1    0    0    0    0  0.00000000000E+00  0.00000000000E+00  0.74505805969E-08  0.10566000000E+00  0.10566000000E+00 0. -1.
     999900   -1    0    0    0    0 -0.00000000000E+00 -0.00000000000E+00 -0.74505805969E-08  0.93827000000E+00  0.93827000000E+00 0.  1.
     999902    2    1    2    0    0  0.51745132952E-02  0.93554642418E-02  0.86646135747E-02  0.10301686110E+01  0.10300766919E+01 0.  0.
     999903    2    3    3    0    0 -0.98791486698E-01  0.84397588761E-01 -0.27368159504E-01  0.14014692005E+00  0.44826690854E-01 0.  0.
         14    1    1    2    0    0 -0.51745132952E-02 -0.93554642418E-02 -0.86646135747E-02  0.13761389008E-01  0.00000000000E+00 0. -1.
     999901    1    3    3    0    0  0.10396599999E+00 -0.75042124519E-01  0.36032773078E-01  0.89002169094E+00  0.88000000000E+00 0.  1.
        -11    1    4    4    0    0 -0.95401047342E-01  0.60391157411E-01 -0.19025166419E-01  0.11450183320E+00  0.51100000000E-03 0.  1.
         11    1    4    4    0    0 -0.33904393565E-02  0.24006431350E-01 -0.83429930845E-02  0.25645086855E-01  0.51100000000E-03 0. -1.
</event>
<event>
 8    1  0.2257781E+004  0.1043930E+01  0.7957747E-01            NaN
         13   -1    0    0    0    0  0.00000000000E+00  0.00000000000E+00  0.74505805969E-08  0.10566000000E+00  0.10566000000E+00 0.  1.
     999900   -1    0    0    0    0 -0.00000000000E+00 -0.00000000000E+00 -0.74505805969E-08  0.93827000000E+00  0.93827000000E+00 0.  1.
     999902    2    1    2    0    0 -0.13087706886E-01  0.20486870791E-02  0.11334968772E-02  0.10306345118E+01  0.10305487504E+01 0.  0.
     999903    2    3    3    0    0  0.11592772833E+00 -0.15930486155E-01 -0.60890594567E-01  0.13888610499E+00  0.43458797372E-01 0.  0.
         14    1    1    2    0    0  0.13087706886E-01 -0.20486870791E-02 -0.11334968772E-02  0.13295488161E-01  0.00000000000E+00 0. -1.
     999901    1    3    3    0    0 -0.12901543521E+00  0.17979173234E-01  0.62024091444E-01  0.89174840685E+00  0.88000000000E+00 0.  1.
        -11    1    4    4    0    0  0.90005900207E-01 -0.64558069423E-02 -0.64678043934E-01  0.11102364615E+00  0.51100000000E-03 0. -1.
         11    1    4    4    0    0  0.25921828120E-01 -0.94746792127E-02  0.37874493672E-02  0.27862458846E-01  0.51100000000E-03 0.  1.
</event>
<event>
 8    1  0.2257781E+004  0.1043930E+01  0.7957747E-01            NaN
         13   -1    0    0    0    0  0.00000000000E+00  0.00000000000E+00  0.74505805969E-08  0.10566000000E+00  0.10566000000E+00 0. -1.
     999900   -1    0    0    0    0 -0.00000000000E+00 -0.00000000000E+00 -0.74505805969E-08  0.93827000000E+00  0.93827000000E+00 0.  1.
     999902    2    1    2    0    0 -0.61296530267E-02  0.10915284567E-01 -0.46893074714E-03  0.10314025909E+01  0.10313265092E+01 0.  0.
     999903    2    3    3    0    0 -0.13090101282E+00  0.26210023654E-01 -0.18325317951E-01  0.14229029660E+00  0.45701977312E-01 0.  0.
         14    1    1    2    0    0  0.61296530267E-02 -0.10915284567E-01  0.46893074714E-03  0.12527409128E-01  0.00000000000E+00 0. -1.
     999901    1    3    3    0    0  0.12477135979E+00 -0.15294739087E-01  0.17856387204E-01  0.88911229428E+00  0.88000000000E+00 0. -1.
        -11    1    4    4    0    0 -0.40445464371E-01  0.20230262358E-02 -0.26342802799E-01  0.48312861679E-01  0.51100000000E-03 0. -1.
         11    1    4    4    0    0 -0.90455548449E-01  0.24186997418E-01  0.80174848480E-02  0.93977434917E-01  0.51100000000E-03 0.  1.
</event>
<event>
 8    1  0.2257781E+004  0.1043930E+01  0.7957747E-01            NaN
         13   -1    0    0    0    0  0.00000000000E+00  0.00000000000E+00  0.74505805969E-08  0.10566000000E+00  0.10566000000E+00 0.  1.
     999900   -1    0    0    0    0 -0.00000000000E+00 -0.00000000000E+00 -0.74505805969E-08  0.93827000000E+00  0.93827000000E+00 0.  1.
     999902    2    1    2    0    0  0.57380259106E-02 -0.19204579449E-02  0.11858306354E-01  0.10306171292E+01  0.10305311419E+01 0.  0.
     999903    2    3    3    0    0  0.11343109464E+00 -0.72316845975E-01  0.93446275910E-02  0.14125794016E+00  0.42073081075E-01 0.  0.
         14    1    1    2    0    0 -0.57380259106E-02  0.19204579449E-02 -0.11858306354E-01  0.13312870827E-01  0.00000000000E+00 0. -1.
     999901    1    3    3    0    0 -0.10769306873E+00  0.70396388030E-01  0.25136787628E-02  0.88935918901E+00  0.88000000000E+00 0. -1.
        -11    1    4    4    0    0  0.93832218539E-01 -0.63397528153E-01 -0.81118363622E-02  0.11353323224E+00  0.51100000000E-03 0.  1.
         11    1    4    4    0    0  0.19598876099E-01 -0.89193178221E-02  0.17456463953E-01  0.27724707925E-01  0.51100000000E-03 0. -1.
</event>
<event>
 8    1  0.2257781E+004  0.1043930E+01  0.7957747E-01            NaN
         13   -1    0    0    0    0  0.00000000000E+00  0.00000000000E+00  0.74505805969E-08  0.10566000000E+00  0.10566000000E+00 0.  1.
     999900   -1    0    0    0    0 -0.00000000000E+00 -0.00000000000E+00 -0.74505805969E-08  0.93827000000E+00  0.93827000000E+00 0.  1.
     999902    2    1    2    0    0 -0.47371955826E-02  0.94775940814E-02 -0.76224446590E-02  0.10308775108E+01  0.10307948752E+01 0.  0.
     999903    2    3    3    0    0  0.64991702780E-01  0.11633403557E+00 -0.14782106674E-01  0.14164656268E+00  0.45691451917E-01 0.  0.
         14    1    1    2    0    0  0.47371955826E-02 -0.94775940814E-02  0.76224446590E-02  0.13052489193E-01  0.00000000000E+00 0.  1.
     999901    1    3    3    0    0 -0.69728898363E-01 -0.10685644149E+00  0.71596620150E-02  0.88923094813E+00  0.88000000000E+00 0.  1.
        -11    1    4    4    0    0  0.46334757969E-01  0.10375209311E+00 -0.25896668275E-01  0.11654314725E+00  0.51100000000E-03 0. -1.
         11    1    4    4    0    0  0.18656944811E-01  0.12581942455E-01  0.11114561601E-01  0.25103415429E-01  0.51100000000E-03 0.  1.
</event>
<event>
 8    1  0.2257781E+004  0.1043930E+01  0.7957747E-01            NaN
         13   -1    0    0    0    0  0.00000000000E+00  0.00000000000E+00  0.74505805969E-08  0.10566000000E+00  0.10566000000E+00 0.  1.
     999900   -1    0    0    0    0 -0.00000000000E+00 -0.00000000000E+00 -0.74505805969E-08  0.93827000000E+00  0.93827000000E+00 0.  1.
     999902    2    1    2    0    0  0.12863813949E-01  0.21469677994E-02 -0.47208138014E-02  0.10300601311E+01  0.10299667473E+01 0.  0.
     999903    2    3    3    0    0  0.11832355267E+00 -0.63191069230E-01 -0.45929589053E-02  0.14135836341E+00  0.44356705104E-01 0.  0.
         14    1    1    2    0    0 -0.12863813949E-01 -0.21469677994E-02  0.47208138014E-02  0.13869868889E-01  0.00000000000E+00 0. -1.
     999901    1    3    3    0    0 -0.10545973872E+00  0.65338037029E-01 -0.12785489601E-03  0.88870176770E+00  0.88000000000E+00 0. -1.
        -11    1    4    4    0    0  0.46254513066E-01 -0.23156759348E-01 -0.23432443151E-01  0.56789576469E-01  0.51100000000E-03 0.  1.
         11    1    4    4    0    0  0.72069039600E-01 -0.40034309882E-01  0.18839484245E-01  0.84568786939E-01  0.51100000000E-03 0. -1.
</event>
<event>
 8    1  0.2257781E+004  0.1043930E+01  0.7957747E-01            NaN
         13   -1    0    0    0    0  0.00000000000E+00  0.00000000000E+00  0.74505805969E-08  0.10566000000E+00  0.10566000000E+00 0.  1.
     999900   -1    0    0    0    0 -0.00000000000E+00 -0.00000000000E+00 -0.74505805969E-08  0.93827000000E+00  0.93827000000E+00 0.  1.
     999902    2    1    2    0    0 -0.45216180545E-02  0.31540105339E-02 -0.13182087292E-01  0.10296415348E+01  0.10295423886E+01 0.  0.
     999903    2    3    3    0    0  0.13078868464E+00  0.21505909539E-02 -0.21829565239E-01  0.13925697534E+00  0.42493178165E-01 0.  0.
         14    1    1    2    0    0  0.45216180545E-02 -0.31540105339E-02  0.13182087292E-01  0.14288465196E-01  0.00000000000E+00 0.  1.
     999901    1    3    3    0    0 -0.13531030269E+00  0.10034195800E-02  0.86474779471E-02  0.89038455947E+00  0.88000000000E+00 0.  1.
        -11    1    4    4    0    0  0.11928843516E+00  0.15008552985E-01 -0.17874386400E-01  0.12155139751E+00  0.51100000000E-03 0.  1.
         11    1    4    4    0    0  0.11500249478E-01 -0.12857962031E-01 -0.39551788390E-02  0.17705577830E-01  0.51100000000E-03 0. -1.
</event>
<event>
 8    1  0.2257781E+004  0.1043930E+01  0.7957747E-01            NaN
         13   -1    0    0    0    0  0.00000000000E+00  0.00000000000E+00  0.74505805969E-08  0.10566000000E+00  0.10566000000E+00 0.  1.
     999900   -1    0    0    0    0 -0.00000000000E+00 -0.00000000000E+00 -0.74505805969E-08  0.93827000000E+00  0.93827000000E+00 0. -1.
     999902    2    1    2    0    0  0.38942180492E-03  0.13930103666E-01 -0.56963041165E-02  0.10288751895E+01  0.10287650404E+01 0.  0.
     999903    2    3    3    0    0  0.45025973714E-01 -0.11538732122E+00  0.37844974398E-01  0.13724114965E+00  0.45401749554E-01 0.  0.
         14    1    1    2    0    0 -0.38942180492E-03 -0.13930103666E-01  0.56963041165E-02  0.15054810463E-01  0.00000000000E+00 0.  1.
     999901    1    3    3    0    0 -0.44636551909E-01  0.12931742489E+00 -0.43541278514E-01  0.89163403988E+00  0.88000000000E+00 0.  1.
        -11    1    4    4    0    0  0.47649406061E-01 -0.62087718642E-01  0.18042453710E-01  0.80319001246E-01  0.51100000000E-03 0. -1.
         11    1    4    4    0    0 -0.26234323474E-02 -0.53299602582E-01  0.19802520688E-01  0.56922148407E-01  0.51100000000E-03 0.  1.
</event>
<event>
 8    1  0.2257781E+004  0.1043930E+01  0.7957747E-01            NaN
         13   -1    0    0    0    0  0.00000000000E+00  0.00000000000E+00  0.74505805969E-08  0.10566000000E+00  0.10566000000E+00 0.  1.
     999900   -1    0    0    0    0 -0.00000000000E+00 -0.00000000000E+00 -0.74505805969E-08  0.93827000000E+00  0.93827000000E+00 0. -1.
     999902    2    1    2    0    0 -0.70424434192E-02  0.24930833382E-02  0.11659401267E-01  0.10300825052E+01  0.10299894244E+01 0.  0.
     999903    2    3    3    0    0  0.12783955557E+00 -0.31795381614E-01 -0.19248919123E-02  0.13904188577E+00  0.44441450576E-01 0.  0.
         14    1    1    2    0    0  0.70424434192E-02 -0.24930833382E-02 -0.11659401267E-01  0.13847494783E-01  0.00000000000E+00 0. -1.
     999901    1    3    3    0    0 -0.13488199899E+00  0.34288464952E-01  0.13584293180E-01  0.89104061945E+00  0.88000000000E+00 0. -1.
        -11    1    4    4    0    0  0.57236388799E-01 -0.63210106693E-02 -0.21503370015E-01  0.61470443480E-01  0.51100000000E-03 0. -1.
         11    1    4    4    0    0  0.70603166774E-01 -0.25474370944E-01  0.19578478103E-01  0.77571442292E-01  0.51100000000E-03 0.  1.
</event>
<event>
 8    1  0.2257781E+004  0.1043930E+01  0.7957747E-01            NaN
         13   -1    0    0    0    0  0.00000000000E+00  0.00000000000E+00  0.74505805969E-08  0.10566000000E+00  0.10566000000E+00 0. -1.
     999900   -1    0    0    0    0 -0.00000000000E+00 -0.00000000000E+00 -0.74505805969E-08  0.93827000000E+00  0.93827000000E+00 0. -1.
     999902    2    1    2    0    0  0.12001405290E-02  0.90132977079E-02  0.90694102399E-02  0.10310873338E+01  0.10310073501E+01 0.  0.
     999903    2    3    3    0    0 -0.92817387598E-01 -0.93809354031E-01 -0.75663614627E-02  0.13997087553E+00  0.46036222992E-01 0.  0.
         14    1    1    2    0    0 -0.12001405290E-02 -0.90132977079E-02 -0.90694102399E-02  0.12842666194E-01  0.00000000000E+00 0.  1.
     999901    1    3    3    0    0  0.94017528127E-01  0.10282265174E+00  0.16635771703E-01  0.89111645827E+00  0.88000000000E+00 0.  1.
        -11    1    4    4    0    0 -0.35391421992E-01 -0.61524307389E-01  0.10268902286E-01  0.71718230775E-01  0.51100000000E-03 0.  1.
         11    1    4    4    0    0 -0.57425965606E-01 -0.32285046642E-01 -0.17835263748E-01  0.68252644758E-01  0.51100000000E-03 0. -1.
</event>
<event>
 8    1  0.2257781E+004  0.1043930E+01  0.7957747E-01            NaN
         13   -1    0    0    0    0  0.00000000000E+00  0.00000000000E+00  0.74505805969E-08  0.10566000000E+00  0.10566000000E+00 0. -1.
     999900   -1    0    0    0    0 -0.00000000000E+00 -0.00000000000E+00 -0.74505805969E-08  0.93827000000E+00  0.93827000000E+00 0. -1.
     999902    2    1    2    0    0 -0.72935901792E-02 -0.84624908619E-02 -0.75922136685E-02  0.10304225236E+01  0.10303339873E+01 0.  0.
     999903    2    3    3    0    0 -0.13009816624E+00 -0.58141118469E-02  0.28442770463E-01  0.14116075234E+00  0.46454602068E-01 0.  0.
         14    1    1    2    0    0  0.72935901792E-02  0.84624908619E-02  0.75922136685E-02  0.13507476362E-01  0.00000000000E+00 0. -1.
     999901    1    3    3    0    0  0.12280457606E+00 -0.26483790151E-02 -0.36034984131E-01  0.88926177130E+00  0.88000000000E+00 0. -1.
        -11    1    4    4    0    0 -0.46739549528E-01  0.12688293399E-01 -0.65600453751E-02  0.48876104548E-01  0.51100000000E-03 0. -1.
         11    1    4    4    0    0 -0.83358616714E-01 -0.18502405246E-01  0.35002815838E-01  0.92284647791E-01  0.51100000000E-03 0.  1.
</event>
<event>
 8    1  0.2257781E+004  0.1043930E+01  0.7957747E-01            NaN
         13   -1    0    0    0    0  0.00000000000E+00  0.00000000000E+00  0.74505805969E-08  0.10566000000E+00  0.10566000000E+00 0.  1.
     999900   -1    0    0    0    0 -0.00000000000E+00 -0.00000000000E+00 -0.74505805969E-08  0.93827000000E+00  0.93827000000E+00 0. -1.
     999902    2    1    2    0    0  0.40790439042E-02  0.12605374025E-01  0.15230782093E-03  0.10306801981E+01  0.10305950288E+01 0.  0.
     999903    2    3    3    0    0  0.71864044179E-01  0.90856001831E-03  0.11238038393E+00  0.14088990661E+00  0.45335954441E-01 0.  0.
         14    1    1    2    0    0 -0.40790439042E-02 -0.12605374025E-01 -0.15230782093E-03  0.13249801929E-01  0.00000000000E+00 0.  1.
     999901    1    3    3    0    0 -0.67785000275E-01  0.11696814007E-01 -0.11222807610E+00  0.88979029147E+00  0.88000000000E+00 0. -1.
        -11    1    4    4    0    0  0.38328742092E-01  0.82323965012E-02  0.23739001911E-01  0.45833024723E-01  0.51100000000E-03 0.  1.
         11    1    4    4    0    0  0.33535302087E-01 -0.73238364828E-02  0.88641382014E-01  0.95056881883E-01  0.51100000000E-03 0. -1.
</event>
<event>
 8    1  0.2257781E+004  0.1043930E+01  0.7957747E-01            NaN
         13   -1    0    0    0    0  0.00000000000E+00  0.00000000000E+00  0.74505805969E-08  0.10566000000E+00  0.10566000000E+00 0. -1.
     999900   -1    0    0    0    0 -0.00000000000E+00 -0.00000000000E+00 -0.74505805969E-08  0.93827000000E+00  0.93827000000E+00 0. -1.
     999902    2    1    2    0    0 -0.57632770013E-02 -0.23927597887E-02 -0.12614336014E-01  0.10298565450E+01  0.10297603805E+01 0.  0.
     999903    2    3    3    0    0  0.40454897552E-01  0.12481176756E+00  0.72543023444E-03  0.13940999370E+00  0.47117343289E-01 0.  0.
         14    1    1    2    0    0  0.57632770013E-02  0.23927597887E-02  0.12614336014E-01  0.14073454951E-01  0.00000000000E+00 0. -1.
     999901    1    3    3    0    0 -0.46218174553E-01 -0.12720452735E+00 -0.13339766248E-01  0.89044655134E+00  0.88000000000E+00 0. -1.
        -11    1    4    4    0    0  0.14321482374E-01  0.35029118114E-02  0.39605850170E-02  0.15274901088E-01  0.51100000000E-03 0.  1.
         11    1    4    4    0    0  0.26133415178E-01  0.12130885575E+00 -0.32351547826E-02  0.12413509262E+00  0.51100000000E-03 0. -1.
</event>
<event>
 8    1  0.2257781E+004  0.1043930E+01  0.7957747E-01            NaN
         13   -1    0    0    0    0  0.00000000000E+00  0.00000000000E+00  0.74505805969E-08  0.10566000000E+00  0.10566000000E+00 0. -1.
     999900   -1    0    0    0    0 -0.00000000000E+00 -0.00000000000E+00 -0.74505805969E-08  0.93827000000E+00  0.93827000000E+00 0.  1.
     999902    2    1    2    0    0  0.11082143461E-01  0.78364054253E-02  0.31551958664E-03  0.10303534501E+01  0.10302639999E+01 0.  0.
     999903    2    3    3    0    0 -0.38654504299E-01  0.52983917353E-01 -0.11564370285E+00  0.14020819613E+00  0.44535447144E-01 0.  0.
         14    1    1    2    0    0 -0.11082143461E-01 -0.78364054253E-02 -0.31551958664E-03  0.13576549867E-01  0.00000000000E+00 0. -1.
     999901    1    3    3    0    0  0.49736647760E-01 -0.45147511928E-01  0.11595922243E+00  0.89014525401E+00  0.88000000000E+00 0.  1.
        -11    1    4    4    0    0 -0.48019089438E-01  0.48716554079E-01 -0.94200598794E-01  0.11641799485E+00  0.51100000000E-03 0.  1.
         11    1    4    4    0    0  0.93645851393E-02  0.42673632740E-02 -0.21443104052E-01  0.23790201272E-01  0.51100000000E-03 0. -1.
</event>
<event>
 8    1  0.2257781E+004  0.1043930E+01  0.7957747E-01            NaN
         13   -1    0    0    0    0  0.00000000000E+00  0.00000000000E+00  0.74505805969E-08  0.10566000000E+00  0.10566000000E+00 0. -1.
     999900   -1    0    0    0    0 -0.00000000000E+00 -0.00000000000E+00 -0.74505805969E-08  0.93827000000E+00  0.93827000000E+00 0.  1.
     999902    2    1    2    0    0 -0.12625364866E-02 -0.45551645444E-04 -0.13512069072E-01  0.10303589984E+01  0.10302696218E+01 0.  0.
     999903    2    3    3    0    0 -0.39438130538E-02 -0.69806632737E-01 -0.11460296818E+00  0.14182471795E+00  0.45737191339E-01 0.  0.
         14    1    1    2    0    0  0.12625364866E-02  0.45551645444E-04  0.13512069072E-01  0.13571001582E-01  0.00000000000E+00 0. -1.
     999901    1    3    3    0    0  0.26812765672E-02  0.69761081092E-01  0.10109089911E+00  0.88853428046E+00  0.88000000000E+00 0. -1.
        -11    1    4    4    0    0  0.17038444424E-01 -0.20174529444E-01 -0.20694980369E-01  0.33553890388E-01  0.51100000000E-03 0. -1.
         11    1    4    4    0    0 -0.20982257478E-01 -0.49632103293E-01 -0.93907987810E-01  0.10827082756E+00  0.51100000000E-03 0.  1.
</event>
<event>
 8    1  0.2257781E+004  0.1043930E+01  0.7957747E-01            NaN
         13   -1    0    0    0    0  0.00000000000E+00  0.00000000000E+00  0.74505805969E-08  0.10566000000E+00  0.10566000000E+00 0.  1.
     999900   -1    0    0    0    0 -0.00000000000E+00 -0.00000000000E+00 -0.74505805969E-08  0.93827000000E+00  0.93827000000E+00 0. -1.
     999902    2    1    2    0    0 -0.63453343656E-02 -0.91397199838E-02 -0.85222352365E-02  0.10299147853E+01  0.10298194205E+01 0.  0.
     999903    2    3    3    0    0 -0.69402585316E-01 -0.17445224977E-01  0.11121162814E+00  0.13953206066E+00  0.44498483070E-01 0.  0.
         14    1    1    2    0    0  0.63453343656E-02  0.91397199838E-02  0.85222352365E-02  0.14015214698E-01  0.00000000000E+00 0.  1.
     999901    1    3    3    0    0  0.63057250950E-01  0.83055049932E-02 -0.11973386337E+00  0.89038272465E+00  0.88000000000E+00 0.  1.
        -11    1    4    4    0    0 -0.56781579326E-01 -0.31648050903E-01  0.81337587770E-01  0.10412401828E+00  0.51100000000E-03 0. -1.
         11    1    4    4    0    0 -0.12621005989E-01  0.14202825926E-01  0.29874040365E-01  0.35408042380E-01  0.51100000000E-03 0.  1.
</event>
<event>
 8    1  0.2257781E+004  0.1043930E+01  0.7957747E-01            NaN
         13   -1    0    0    0    0  0.00000000000E+00  0.00000000000E+00  0.74505805969E-08  0.10566000000E+00  0.10566000000E+00 0.  1.
     999900   -1    0    0    0    0 -0.00000000000E+00 -0.00000000000E+00 -0.74505805969E-08  0.93827000000E+00  0.93827000000E+00 0. -1.
     999902    2    1    2    0    0 -0.10266154376E-01 -0.82479790797E-02 -0.87044262116E-03  0.10307322443E+01  0.10306477472E+01 0.  0.
     999903    2    3    3    0    0 -0.50300904805E-01 -0.10406415088E+00  0.69170996940E-01  0.14186255574E+00  0.44506509420E-01 0.  0.
         14    1    1    2    0    0  0.10266154376E-01  0.82479790797E-02  0.87044262116E-03  0.13197755678E-01  0.00000000000E+00 0.  1.
     999901    1    3    3    0    0  0.40034750429E-01  0.95816171804E-01 -0.70041439561E-01  0.88886968858E+00  0.88000000000E+00 0. -1.
        -11    1    4    4    0    0 -0.41956247522E-01 -0.66713883447E-01  0.23431079844E-01  0.82221320680E-01  0.51100000000E-03 0. -1.
         11    1    4    4    0    0 -0.83446572821E-02 -0.37350267437E-01  0.45739917097E-01  0.59641235062E-01  0.51100000000E-03 0.  1.
</event>
<event>
 8    1  0.2257781E+004  0.1043930E+01  0.7957747E-01            NaN
         13   -1    0    0    0    0  0.00000000000E+00  0.00000000000E+00  0.74505805969E-08  0.10566000000E+00  0.10566000000E+00 0.  1.
     999900   -1    0    0    0    0 -0.00000000000E+00 -0.00000000000E+00 -0.74505805969E-08  0.93827000000E+00  0.93827000000E+00 0. -1.
     999902    2    1    2    0    0 -0.64799998985E-02 -0.11284101449E-01  0.37910325044E-02  0.10303766509E+01  0.10302875082E+01 0.  0.
     999903    2    3    3    0    0 -0.10363776891E+00  0.80885743893E-01  0.17495116730E-01  0.14013920259E+00  0.45272798483E-01 0.  0.
         14    1    1    2    0    0  0.64799998985E-02  0.11284101449E-01 -0.37910325044E-02  0.13553349093E-01  0.00000000000E+00 0. -1.
     999901    1    3    3    0    0  0.97157769010E-01 -0.92169845342E-01 -0.13704084226E-01  0.89023744832E+00  0.88000000000E+00 0.  1.
        -11    1    4    4    0    0 -0.58375921846E-01  0.63754460013E-01 -0.53713482664E-02  0.86611153590E-01  0.51100000000E-03 0.  1.
         11    1    4    4    0    0 -0.45261847062E-01  0.17131283880E-01  0.22866464997E-01  0.53528048996E-01  0.51100000000E-03 0. -1.
</event>
<event>
 8    1  0.2257781E+004  0.1043930E+01  0.7957747E-01            NaN
         13   -1    0    0    0    0  0.00000000000E+00  0.00000000000E+00  0.74505805969E-08  0.10566000000E+00  0.10566000000E+00 0. -1.
     999900   -1    0    0    0    0 -0.00000000000E+00 -0.00000000000E+00 -0.74505805969E-08  0.93827000000E+00  0.93827000000E+00 0.  1.
     999902    2    1    2    0    0  0.86111555116E-03  0.40128445984E-02  0.20190738766E-01  0.10233263505E+01  0.10231189125E+01 0.  0.
     999903    2    3    3    0    0  0.39934103156E-01  0.10946302232E+00  0.52833842041E-01  0.13556962111E+00  0.44842183873E-01 0.  0.
         14    1    1    2    0    0 -0.86111555116E-03 -0.40128445984E-02 -0.20190738766E-01  0.20603649523E-01  0.00000000000E+00 0.  1.
     999901    1    3    3    0    0 -0.39072987605E-01 -0.10545017772E+00 -0.32643103275E-01  0.88775672936E+00  0.88000000000E+00 0. -1.
        -11    1    4    4    0    0  0.27430629609E-01  0.50650946116E-01  0.48469295991E-01  0.75282744093E-01  0.51100000000E-03 0.  1.
         11    1    4    4    0    0  0.12503473547E-01  0.58812076199E-01  0.43645460497E-02  0.60286877020E-01  0.51100000000E-03 0. -1.
</event>
<event>
 8    1  0.2257781E+004  0.1043930E+01  0.7957747E-01            NaN
         13   -1    0    0    0    0  0.00000000000E+00  0.00000000000E+00  0.74505805969E-08  0.10566000000E+00  0.10566000000E+00 0.  1.
     999900   -1    0    0    0    0 -0.00000000000E+00 -0.00000000000E+00 -0.74505805969E-08  0.93827000000E+00  0.93827000000E+00 0.  1.
     999902    2    1    2    0    0 -0.44925731027E-02  0.12508810273E-01  0.48581026804E-02  0.10297788619E+01  0.10296816254E+01 0.  0.
     999903    2    3    3    0    0 -0.10973862198E+00  0.68617656734E-01 -0.32611201872E-01  0.14094317280E+00  0.45282883102E-01 0.  0.
         14    1    1    2    0    0  0.44925731027E-02 -0.12508810273E-01 -0.48581026804E-02  0.14151138088E-01  0.00000000000E+00 0. -1.
     999901    1    3    3    0    0  0.10524604888E+00 -0.56108846461E-01  0.37469304553E-01  0.88883568911E+00  0.88000000000E+00 0.  1.
        -11    1    4    4    0    0 -0.96571477277E-02 -0.23009966254E-02 -0.13555303725E-01  0.16809594516E-01  0.51100000000E-03 0.  1.
         11    1    4    4    0    0 -0.10008147425E+00  0.70918653359E-01 -0.19055898147E-01  0.12413357828E+00  0.51100000000E-03 0. -1.
</event>
<event>
 8    1  0.2257781E+004  0.1043930E+01  0.7957747E-01            NaN
         13   -1    0    0    0    0  0.00000000000E+00  0.00000000000E+00  0.74505805969E-08  0.10566000000E+00  0.10566000000E+00 0.  1.
     999900   -1    0    0    0    0 -0.00000000000E+00 -0.00000000000E+00 -0.74505805969E-08  0.93827000000E+00  0.93827000000E+00 0. -1.
     999902    2    1    2    0    0 -0.81200157756E-02  0.98935723418E-02  0.52962043404E-02  0.10300783860E+01  0.10299852495E+01 0.  0.
     999903    2    3    3    0    0  0.57498475727E-02 -0.20005416468E-01  0.13140204370E+00  0.14047791087E+00  0.45102870410E-01 0.  0.
         14    1    1    2    0    0  0.81200157756E-02 -0.98935723418E-02 -0.52962043404E-02  0.13851613996E-01  0.00000000000E+00 0. -1.
     999901    1    3    3    0    0 -0.13869863348E-01  0.29898988810E-01 -0.12610583936E+00  0.88960047514E+00  0.88000000000E+00 0. -1.
        -11    1    4    4    0    0  0.10266372504E-01  0.55800285285E-02  0.95195061263E-01  0.95910874945E-01  0.51100000000E-03 0. -1.
         11    1    4    4    0    0 -0.45165249308E-02 -0.25585444996E-01  0.36206982433E-01  0.44567035924E-01  0.51100000000E-03 0.  1.
</event>
<event>
 8    1  0.2257781E+004  0.1043930E+01  0.7957747E-01            NaN
         13   -1    0    0    0    0  0.00000000000E+00  0.00000000000E+00  0.74505805969E-08  0.10566000000E+00  0.10566000000E+00 0. -1.
     999900   -1    0    0    0    0 -0.00000000000E+00 -0.00000000000E+00 -0.74505805969E-08  0.93827000000E+00  0.93827000000E+00 0.  1.
     999902    2    1    2    0    0  0.94707101744E-02 -0.39448825771E-02 -0.82468178079E-02  0.10307669284E+01  0.10306828776E+01 0.  0.
     999903    2    3    3    0    0 -0.92478898883E-01 -0.86969906624E-01  0.41377564822E-01  0.13961629201E+00  0.40798219653E-01 0.  0.
         14    1    1    2    0    0 -0.94707101744E-02  0.39448825771E-02  0.82468178079E-02  0.13163071591E-01  0.00000000000E+00 0. -1.
     999901    1    3    3    0    0  0.10194960906E+00  0.83025024047E-01 -0.49624382630E-01  0.89115063640E+00  0.88000000000E+00 0.  1.
        -11    1    4    4    0    0 -0.78763535258E-01 -0.48505581087E-01  0.28388430313E-01  0.96760787407E-01  0.51100000000E-03 0. -1.
         11    1    4    4    0    0 -0.13715363625E-01 -0.38464325538E-01  0.12989134509E-01  0.42855504602E-01  0.51100000000E-03 0.  1.
</event>
<event>
 8    1  0.2257781E+004  0.1043930E+01  0.7957747E-01            NaN
         13   -1    0    0    0    0  0.00000000000E+00  0.00000000000E+00  0.74505805969E-08  0.10566000000E+00  0.10566000000E+00 0. -1.
     999900   -1    0    0    0    0 -0.00000000000E+00 -0.00000000000E+00 -0.74505805969E-08  0.93827000000E+00  0.93827000000E+00 0.  1.
     999902    2    1    2    0    0 -0.12246590546E-01 -0.39261689400E-02 -0.21454669920E-02  0.10308917175E+01  0.10308092628E+01 0.  0.
     999903    2    3    3    0    0  0.41819148674E-02 -0.59166064645E-01  0.11938835639E+00  0.14067162554E+00  0.44908963166E-01 0.  0.
         14    1    1    2    0    0  0.12246590546E-01  0.39261689400E-02  0.21454669920E-02  0.13038282524E-01  0.00000000000E+00 0. -1.
     999901    1    3    3    0    0 -0.16428505414E-01  0.55239895705E-01 -0.12153382338E+00  0.89022009194E+00  0.88000000000E+00 0.  1.
        -11    1    4    4    0    0 -0.20358764291E-01 -0.29469693482E-01  0.60038500932E-01  0.69912980430E-01  0.51100000000E-03 0.  1.
         11    1    4    4    0    0  0.24540679158E-01 -0.29696371163E-01  0.59349855455E-01  0.70758645107E-01  0.51100000000E-03 0. -1.
</event>
<event>
 8    1  0.2257781E+004  0.1043930E+01  0.7957747E-01            NaN
         13   -1    0    0    0    0  0.00000000000E+00  0.00000000000E+00  0.74505805969E-08  0.10566000000E+00  0.10566000000E+00 0. -1.
     999900   -1    0    0    0    0 -0.00000000000E+00 -0.00000000000E+00 -0.74505805969E-08  0.93827000000E+00  0.93827000000E+00 0. -1.
     999902    2    1    2    0    0 -0.12407467911E-01  0.74413453455E-02  0.22495601448E-02  0.10292882992E+01  0.10291841543E+01 0.  0.
     999903    2    3    3    0    0 -0.11845643101E+00  0.61919502919E-01  0.32218289957E-02  0.14124821144E+00  0.45549162027E-01 0.  0.
         14    1    1    2    0    0  0.12407467911E-01 -0.74413453455E-02 -0.22495601448E-02  0.14641700767E-01  0.00000000000E+00 0. -1.
     999901    1    3    3    0    0  0.10604896310E+00 -0.54478157574E-01 -0.97226885091E-03  0.88804008780E+00  0.88000000000E+00 0. -1.
        -11    1    4    4    0    0 -0.14531345780E-01 -0.32134731845E-02 -0.99252084472E-02  0.17895734235E-01  0.51100000000E-03 0.  1.
         11    1    4    4    0    0 -0.10392508523E+00  0.65132976104E-01  0.13147037443E-01  0.12335247720E+00  0.51100000000E-03 0. -1.
</event>
<event>
 8    1  0.2257781E+004  0.1043930E+01  0.7957747E-01            NaN
         13   -1    0    0    0    0  0.00000000000E+00  0.00000000000E+00  0.74505805969E-08  0.10566000000E+00  0.10566000000E+00 0. -1.
     999900   -1    0    0    0    0 -0.00000000000E+00 -0.00000000000E+00 -0.74505805969E-08  0.93827000000E+00  0.93827000000E+00 0.  1.
     999902    2    1    2    0    0  0.26826200221E-02 -0.12125362517E-01 -0.34211830556E-02  0.10310487982E+01  0.10309683307E+01 0.  0.
     999903    2    3    3    0    0  0.11122890806E-01  0.13176680069E+00  0.21414483875E-02  0.13930492484E+00  0.43761487855E-01 0.  0.
         14    1    1    2    0    0 -0.26826200221E-02  0.12125362517E-01  0.34211830556E-02  0.12881201802E-01  0.00000000000E+00 0.  1.
     999901    1    3    3    0    0 -0.84402707835E-02 -0.14389216321E+00 -0.55626314431E-02  0.89174387336E+00  0.88000000000E+00 0.  1.
        -11    1    4    4    0    0 -0.92190317778E-03  0.12578527753E+00  0.93715711171E-03  0.12579318476E+00  0.51100000000E-03 0. -1.
         11    1    4    4    0    0  0.12044793983E-01  0.59815231637E-02  0.12042912758E-02  0.13511740078E-01  0.51100000000E-03 0.  1.
</event>
<event>
 8    1  0.2257781E+004  0.1043930E+01  0.7957747E-01            NaN
         13   -1    0    0    0    0  0.00000000000E+00  0.00000000000E+00  0.74505805969E-08  0.10566000000E+00  0.10566000000E+00 0.  1.
     999900   -1    0    0    0    0 -0.00000000000E+00 -0.00000000000E+00 -0.74505805969E-08  0.93827000000E+00  0.93827000000E+00 0.  1.
     999902    2    1    2    0    0 -0.10323145591E-01 -0.74395046776E-02  0.28804058689E-02  0.10308835329E+01  0.10308009741E+01 0.  0.
     999903    2    3    3    0    0  0.12011119839E+00  0.10886397710E-01  0.53766049043E-01  0.13962694504E+00  0.45383720846E-01 0.  0.
         14    1    1    2    0    0  0.10323145591E-01  0.74395046776E-02 -0.28804058689E-02  0.13046467059E-01  0.00000000000E+00 0. -1.
     999901    1    3    3    0    0 -0.13043434399E+00 -0.18325902387E-01 -0.50885643175E-01  0.89125658790E+00  0.88000000000E+00 0. -1.
        -11    1    4    4    0    0  0.11144123346E+00 -0.19862902917E-02  0.38690895190E-01  0.11798449202E+00  0.51100000000E-03 0. -1.
         11    1    4    4    0    0  0.86699649296E-02  0.12872688002E-01  0.15075153854E-01  0.21642453026E-01  0.51100000000E-03 0.  1.
</event>
<event>
 8    1  0.2257781E+004  0.1043930E+01  0.7957747E-01            NaN
         13   -1    0    0    0    0  0.00000000000E+00  0.00000000000E+00  0.74505805969E-08  0.10566000000E+00  0.10566000000E+00 0. -1.
     999900   -1    0    0    0    0 -0.00000000000E+00 -0.00000000000E+00 -0.74505805969E-08  0.93827000000E+00  0.93827000000E+00 0.  1.
     999902    2    1    2    0    0  0.12338750771E-01  0.11977925363E-02  0.64759730960E-02  0.10299436601E+01  0.10298486904E+01 0.  0.
     999903    2    3    3    0    0  0.95676827191E-01  0.62634931524E-01 -0.69097329150E-01  0.14065682160E+00  0.43962605240E-01 0.  0.
         14    1    1    2    0    0 -0.12338750771E-01 -0.11977925363E-02 -0.64759730960E-02  0.13986339946E-01  0.00000000000E+00 0. -1.
     999901    1    3    3    0    0 -0.83338076420E-01 -0.61437138988E-01  0.75573302246E-01  0.88928683845E+00  0.88000000000E+00 0. -1.
        -11    1    4    4    0    0  0.49214743387E-01  0.65037486623E-02 -0.28393567603E-01  0.57191306293E-01  0.51100000000E-03 0.  1.
         11    1    4    4    0    0  0.46462083804E-01  0.56131182862E-01 -0.40703761548E-01  0.83465515310E-01  0.51100000000E-03 0. -1.
</event>
<event>
 8    1  0.2257781E+004  0.1043930E+01  0.7957747E-01            NaN
         13   -1    0    0    0    0  0.00000000000E+00  0.00000000000E+00  0.74505805969E-08  0.10566000000E+00  0.10566000000E+00 0.  1.
     999900   -1    0    0    0    0 -0.00000000000E+00 -0.00000000000E+00 -0.74505805969E-08  0.93827000000E+00  0.93827000000E+00 0. -1.
     999902    2    1    2    0    0 -0.74829475085E-02  0.46151144535E-02  0.64471318961E-02  0.10330277390E+01  0.10329702078E+01 0.  0.
     999903    2    3    3    0    0 -0.32379220116E-01 -0.60754623300E-01 -0.11549510626E+00  0.14186953957E+00  0.45258242772E-01 0.  0.
         14    1    1    2    0    0  0.74829475085E-02 -0.46151144535E-02 -0.64471318961E-02  0.10902260982E-01  0.00000000000E+00 0. -1.
     999901    1    3    3    0    0  0.24896272607E-01  0.65369737753E-01  0.12194223816E+00  0.89115819945E+00  0.88000000000E+00 0.  1.
        -11    1    4    4    0    0  0.54655472476E-02 -0.28129620382E-01 -0.63955779075E-01  0.70083882224E-01  0.51100000000E-03 0.  1.
         11    1    4    4    0    0 -0.37844767363E-01 -0.32625002918E-01 -0.51539327187E-01  0.71785657342E-01  0.51100000000E-03 0. -1.
</event>
<event>
 8    1  0.2257781E+004  0.1043930E+01  0.7957747E-01            NaN
         13   -1    0    0    0    0  0.00000000000E+00  0.00000000000E+00  0.74505805969E-08  0.10566000000E+00  0.10566000000E+00 0.  1.
     999900   -1    0    0    0    0 -0.00000000000E+00 -0.00000000000E+00 -0.74505805969E-08  0.93827000000E+00  0.93827000000E+00 0.  1.
     999902    2    1    2    0    0 -0.15397896786E-01 -0.38445647340E-02 -0.29657173092E-02  0.10277846792E+01  0.10276578592E+01 0.  0.
     999903    2    3    3    0    0  0.49911949786E-01  0.94771024802E-01  0.71546709258E-01  0.13675016123E+00  0.45923034723E-01 0.  0.
         14    1    1    2    0    0  0.15397896786E-01  0.38445647340E-02  0.29657173092E-02  0.16145320764E-01  0.00000000000E+00 0.  1.
     999901    1    3    3    0    0 -0.65309846572E-01 -0.98615589536E-01 -0.74512426567E-01  0.89103451800E+00  0.88000000000E+00 0.  1.
        -11    1    4    4    0    0  0.11355577105E-02  0.46855739074E-01  0.39225286930E-01  0.61119833370E-01  0.51100000000E-03 0.  1.
         11    1    4    4    0    0  0.48776392076E-01  0.47915285729E-01  0.32321422328E-01  0.75630327863E-01  0.51100000000E-03 0. -1.
</event>
<event>
 8    1  0.2257781E+004  0.1043930E+01  0.7957747E-01            NaN
         13   -1    0    0    0    0  0.00000000000E+00  0.00000000000E+00  0.74505805969E-08  0.10566000000E+00  0.10566000000E+00 0.  1.
     999900   -1    0    0    0    0 -0.00000000000E+00 -0.00000000000E+00 -0.74505805969E-08  0.93827000000E+00  0.93827000000E+00 0. -1.
     999902    2    1    2    0    0 -0.36765872562E-02 -0.12726663988E-01  0.78599587835E-02  0.10285266165E+01  0.10284112683E+01 0.  0.
     999903    2    3    3    0    0 -0.53751305150E-01  0.11427505575E+00  0.31424209109E-01  0.13768870306E+00  0.44974513445E-01 0.  0.
         14    1    1    2    0    0  0.36765872562E-02  0.12726663988E-01 -0.78599587835E-02  0.15403383466E-01  0.00000000000E+00 0. -1.
     999901    1    3    3    0    0  0.50074717894E-01 -0.12700171974E+00 -0.23564250326E-01  0.89083791347E+00  0.88000000000E+00 0. -1.
        -11    1    4    4    0    0 -0.13679495970E-01  0.60638328895E-01  0.33669055005E-01  0.70696548198E-01  0.51100000000E-03 0.  1.
         11    1    4    4    0    0 -0.40071809181E-01  0.53636726858E-01 -0.22448458955E-02  0.66992154863E-01  0.51100000000E-03 0. -1.
</event>
<event>
 8    1  0.2257781E+004  0.1043930E+01  0.7957747E-01            NaN
         13   -1    0    0    0    0  0.00000000000E+00  0.00000000000E+00  0.74505805969E-08  0.10566000000E+00  0.10566000000E+00 0. -1.
     999900   -1    0    0    0    0 -0.00000000000E+00 -0.00000000000E+00 -0.74505805969E-08  0.93827000000E+00  0.93827000000E+00 0.  1.
     999902    2    1    2    0    0  0.10743449345E-01  0.81292268499E-03  0.92125624684E-02  0.10297541806E+01  0.10296566023E+01 0.  0.
     999903    2    3    3    0    0 -0.32738640161E-01  0.12784733135E+00  0.30888322202E-02  0.13954862395E+00  0.45249517884E-01 0.  0.
         14    1    1    2    0    0 -0.10743449345E-01 -0.81292268499E-03 -0.92125624684E-02  0.14175819354E-01  0.00000000000E+00 0.  1.
     999901    1    3    3    0    0  0.43482089507E-01 -0.12703440867E+00  0.61237302482E-02  0.89020555669E+00  0.88000000000E+00 0. -1.
        -11    1    4    4    0    0 -0.43299292296E-01  0.85614745006E-01  0.35916158147E-02  0.96009760446E-01  0.51100000000E-03 0. -1.
         11    1    4    4    0    0  0.10560652134E-01  0.42232586348E-01 -0.50278359453E-03  0.43538863507E-01  0.51100000000E-03 0.  1.
</event>
<event>
 8    1  0.2257781E+004  0.1043930E+01  0.7957747E-01            NaN
         13   -1    0    0    0    0  0.00000000000E+00  0.00000000000E+00  0.74505805969E-08  0.10566000000E+00  0.10566000000E+00 0.  1.
     999900   -1    0    0    0    0 -0.00000000000E+00 -0.00000000000E+00 -0.74505805969E-08  0.93827000000E+00  0.93827000000E+00 0. -1.
     999902    2    1    2    0    0 -0.20788771711E-02  0.34051857208E-02  0.13595726179E-01  0.10297609919E+01  0.10296635080E+01 0.  0.
     999903    2    3    3    0    0  0.83119019709E-01 -0.91516811942E-01 -0.43862335879E-01  0.13871088323E+00  0.45085544380E-01 0.  0.
         14    1    1    2    0    0  0.20788771711E-02 -0.34051857208E-02 -0.13595726179E-01  0.14169008096E-01  0.00000000000E+00 0.  1.
     999901    1    3    3    0    0 -0.85197896880E-01  0.94921997663E-01  0.57458062059E-01  0.89105010867E+00  0.88000000000E+00 0.  1.
        -11    1    4    4    0    0  0.64719408241E-01 -0.92123918973E-01 -0.32971505917E-01  0.11731495887E+00  0.51100000000E-03 0. -1.
         11    1    4    4    0    0  0.18399611468E-01  0.60710703135E-03 -0.10890829963E-01  0.21395924364E-01  0.51100000000E-03 0.  1.
</event>
<event>
 8    1  0.2257781E+004  0.1043930E+01  0.7957747E-01            NaN
         13   -1    0    0    0    0  0.00000000000E+00  0.00000000000E+00  0.74505805969E-08  0.10566000000E+00  0.10566000000E+00 0. -1.
     999900   -1    0    0    0    0 -0.00000000000E+00 -0.00000000000E+00 -0.74505805969E-08  0.93827000000E+00  0.93827000000E+00 0. -1.
     999902    2    1    2    0    0  0.13236093431E-01  0.26084588113E-02  0.37691989996E-02  0.10299226774E+01  0.10298274206E+01 0.  0.
     999903    2    3    3    0    0 -0.12261266735E+00  0.42878525702E-01 -0.17857400892E-01  0.13832620253E+00  0.44077402119E-01 0.  0.
         14    1    1    2    0    0 -0.13236093431E-01 -0.26084588113E-02 -0.37691989996E-02  0.14007322649E-01  0.00000000000E+00 0.  1.
     999901    1    3    3    0    0  0.13584876078E+00 -0.40270066891E-01  0.21626599892E-01  0.89159647482E+00  0.88000000000E+00 0. -1.
        -11    1    4    4    0    0 -0.38877356785E-01  0.22169884763E-02  0.11692645197E-01  0.40661320456E-01  0.51100000000E-03 0.  1.
         11    1    4    4    0    0 -0.83735310567E-01  0.40661537226E-01 -0.29550046089E-01  0.97664882072E-01  0.51100000000E-03 0. -1.
</event>
<event>
 8    1  0.2257781E+004  0.1043930E+01  0.7957747E-01            NaN
         13   -1    0    0    0    0  0.00000000000E+00  0.00000000000E+00  0.74505805969E-08  0.10566000000E+00  0.10566000000E+00 0.  1.
     999900   -1    0    0    0    0 -0.00000000000E+00 -0.00000000000E+00 -0.74505805969E-08  0.93827000000E+00  0.93827000000E+00 0.  1.
     999902    2    1    2    0    0  0.79206483655E-03  0.62868906546E-02  0.12060867795E-01  0.10303058709E+01  0.10302157885E+01 0.  0.
     999903    2    3    3    0    0  0.80127659505E-01  0.10677641387E+00  0.92148252393E-02  0.14103629380E+00  0.44549733874E-01 0.  0.
         14    1    1    2    0    0 -0.79206483655E-03 -0.62868906546E-02 -0.12060867795E-01  0.13624129065E-01  0.00000000000E+00 0. -1.
     999901    1    3    3    0    0 -0.79335594668E-01 -0.10048952322E+00  0.28460425554E-02  0.88926957713E+00  0.88000000000E+00 0.  1.
        -11    1    4    4    0    0  0.26182540245E-01  0.56207270586E-01 -0.13933422945E-01  0.63554575574E-01  0.51100000000E-03 0. -1.
         11    1    4    4    0    0  0.53945119260E-01  0.50569143285E-01  0.23148248184E-01  0.77481718228E-01  0.51100000000E-03 0.  1.
</event>
<event>
 8    1  0.2257781E+004  0.1043930E+01  0.7957747E-01            NaN
         13   -1    0    0    0    0  0.00000000000E+00  0.00000000000E+00  0.74505805969E-08  0.10566000000E+00  0.10566000000E+00 0. -1.
     999900   -1    0    0    0    0 -0.00000000000E+00 -0.00000000000E+00 -0.74505805969E-08  0.93827000000E+00  0.93827000000E+00 0.  1.
     999902    2    1    2    0    0 -0.86840654716E-02 -0.88386063997E-02  0.71524989414E-02  0.10296229319E+01  0.10295235256E+01 0.  0.
     999903    2    3    3    0    0  0.12647208907E+00 -0.26955099749E-01  0.24462900259E-01  0.13895181223E+00  0.44580331038E-01 0.  0.
         14    1    1    2    0    0  0.86840654716E-02  0.88386063997E-02 -0.71524989414E-02  0.14307068089E-01  0.00000000000E+00 0.  1.
     999901    1    3    3    0    0 -0.13515615454E+00  0.18116493349E-01 -0.17310401318E-01  0.89067111968E+00  0.88000000000E+00 0.  1.
        -11    1    4    4    0    0  0.76731748548E-03  0.52314660831E-02  0.57841181354E-02  0.78532895723E-02  0.51100000000E-03 0. -1.
         11    1    4    4    0    0  0.12570477159E+00 -0.32186565832E-01  0.18678782124E-01  0.13109852266E+00  0.51100000000E-03 0.  1.
</event>
<event>
 8    1  0.2257781E+004  0.1043930E+01  0.7957747E-01            NaN
         13   -1    0    0    0    0  0.00000000000E+00  0.00000000000E+00  0.74505805969E-08  0.10566000000E+00  0.10566000000E+00 0.  1.
     999900   -1    0    0    0    0 -0.00000000000E+00 -0.00000000000E+00 -0.74505805969E-08  0.93827000000E+00  0.93827000000E+00 0. -1.
     999902    2    1    2    0    0  0.12794604169E-01 -0.22500876770E-02 -0.46115066403E-02  0.10301448346E+01  0.10300525955E+01 0.  0.
     999903    2    3    3    0    0  0.40468807615E-01 -0.67700781025E-01  0.10640990815E+00  0.14032720763E+00  0.46341520348E-01 0.  0.
         14    1    1    2    0    0 -0.12794604169E-01  0.22500876770E-02  0.46115066403E-02  0.13785165355E-01  0.00000000000E+00 0.  1.
     999901    1    3    3    0    0 -0.27674203446E-01  0.65450693348E-01 -0.11102141479E+00  0.88981762701E+00  0.88000000000E+00 0. -1.
        -11    1    4    4    0    0  0.33192717727E-01 -0.33033339630E-01  0.28708548985E-01  0.54930865122E-01  0.51100000000E-03 0. -1.
         11    1    4    4    0    0  0.72760898874E-02 -0.34667441395E-01  0.77701359168E-01  0.85396342512E-01  0.51100000000E-03 0.  1.
</event>
<event>
 8    1  0.2257781E+004  0.1043930E+01  0.7957747E-01            NaN
         13   -1    0    0    0    0  0.00000000000E+00  0.00000000000E+00  0.74505805969E-08  0.10566000000E+00  0.10566000000E+00 0. -1.
     999900   -1    0    0    0    0 -0.00000000000E+00 -0.00000000000E+00 -0.74505805969E-08  0.93827000000E+00  0.93827000000E+00 0. -1.
     999902    2    1    2    0    0 -0.29089951698E-02  0.53698131359E-02  0.12361436699E-01  0.10301422423E+01  0.10300499682E+01 0.  0.
     999903    2    3    3    0    0  0.83109590897E-02 -0.39775526428E-01  0.12744307147E+00  0.14143094397E+00  0.45932677952E-01 0.  0.
         14    1    1    2    0    0  0.29089951698E-02 -0.53698131359E-02 -0.12361436699E-01  0.13787757732E-01  0.00000000000E+00 0.  1.
     999901    1    3    3    0    0 -0.11219954259E-01  0.45145339564E-01 -0.11508163477E+00  0.88871129830E+00  0.88000000000E+00 0. -1.
        -11    1    4    4    0    0  0.22301594696E-01 -0.39592436744E-01  0.80467365721E-01  0.92413095611E-01  0.51100000000E-03 0.  1.
         11    1    4    4    0    0 -0.13990635606E-01 -0.18308968475E-03  0.46975705747E-01  0.49017848361E-01  0.51100000000E-03 0. -1.
</event>
<event>
 8    1  0.2257781E+004  0.1043930E+01  0.7957747E-01            NaN
         13   -1    0    0    0    0  0.00000000000E+00  0.00000000000E+00  0.74505805969E-08  0.10566000000E+00  0.10566000000E+00 0.  1.
     999900   -1    0    0    0    0 -0.00000000000E+00 -0.00000000000E+00 -0.74505805969E-08  0.93827000000E+00  0.93827000000E+00 0. -1.
     999902    2    1    2    0    0 -0.28368614334E-02  0.14083502974E-01  0.10433700170E-02  0.10295257833E+01  0.10294250128E+01 0.  0.
     999903    2    3    3    0    0 -0.10724592244E+00  0.79630850643E-01 -0.19191735344E-02  0.14092773945E+00  0.44879664278E-01 0.  0.
         14    1    1    2    0    0  0.28368614334E-02 -0.14083502974E-01 -0.10433700170E-02  0.14404216737E-01  0.00000000000E+00 0. -1.
     999901    1    3    3    0    0  0.10440906100E+00 -0.65547347669E-01  0.29625435514E-02  0.88859804381E+00  0.88000000000E+00 0. -1.
        -11    1    4    4    0    0 -0.10760737406E-01  0.28009105259E-01  0.79821396019E-02  0.31052844001E-01  0.51100000000E-03 0. -1.
         11    1    4    4    0    0 -0.96485185031E-01  0.51621745384E-01 -0.99013131363E-02  0.10987489545E+00  0.51100000000E-03 0.  1.
</event>
<event>
 8    1  0.2257781E+004  0.1043930E+01  0.7957747E-01            NaN
         13   -1    0    0    0    0  0.00000000000E+00  0.00000000000E+00  0.74505805969E-08  0.10566000000E+00  0.10566000000E+00 0.  1.
     999900   -1    0    0    0    0 -0.00000000000E+00 -0.00000000000E+00 -0.74505805969E-08  0.93827000000E+00  0.93827000000E+00 0. -1.
     999902    2    1    2    0    0 -0.50164199558E-02  0.95212578708E-02 -0.93161203888E-02  0.10296959240E+01  0.10295975364E+01 0.  0.
     999903    2    3    3    0    0  0.59997617914E-01 -0.41050952385E-01  0.10850507588E+00  0.13803107224E+00  0.44657928346E-01 0.  0.
         14    1    1    2    0    0  0.50164199558E-02 -0.95212578708E-02  0.93161203888E-02  0.14234076005E-01  0.00000000000E+00 0. -1.
     999901    1    3    3    0    0 -0.65014037869E-01  0.50572210255E-01 -0.11782119627E+00  0.89166485176E+00  0.88000000000E+00 0. -1.
        -11    1    4    4    0    0  0.45753231422E-01 -0.46809873482E-01  0.66545160661E-01  0.93343676643E-01  0.51100000000E-03 0.  1.
         11    1    4    4    0    0  0.14244386491E-01  0.57589210973E-02  0.41959915220E-01  0.44687395594E-01  0.51100000000E-03 0. -1.
</event>
<event>
 8    1  0.2257781E+004  0.1043930E+01  0.7957747E-01            NaN
         13   -1    0    0    0    0  0.00000000000E+00  0.00000000000E+00  0.74505805969E-08  0.10566000000E+00  0.10566000000E+00 0. -1.
     999900   -1    0    0    0    0 -0.00000000000E+00 -0.00000000000E+00 -0.74505805969E-08  0.93827000000E+00  0.93827000000E+00 0. -1.
     999902    2    1    2    0    0  0.35228581963E-02 -0.10235084656E-01  0.15493727635E-01  0.10250296539E+01  0.10248553889E+01 0.  0.
     999903    2    3    3    0    0 -0.16516115814E-01 -0.49272470292E-01  0.11936160653E+00  0.13783519141E+00  0.45285632006E-01 0.  0.
         14    1    1    2    0    0 -0.35228581963E-02  0.10235084656E-01 -0.15493727635E-01  0.18900346130E-01  0.00000000000E+00 0.  1.
     999901    1    3    3    0    0  0.20038974010E-01  0.39037385636E-01 -0.10386787890E+00  0.88719446246E+00  0.88000000000E+00 0. -1.
        -11    1    4    4    0    0 -0.21760535145E-01 -0.14063253021E-01  0.21410816636E-01  0.33615177604E-01  0.51100000000E-03 0.  1.
         11    1    4    4    0    0  0.52444193309E-02 -0.35209217270E-01  0.97950789897E-01  0.10422001380E+00  0.51100000000E-03 0. -1.
</event>
<event>
 8    1  0.2257781E+004  0.1043930E+01  0.7957747E-01            NaN
         13   -1    0    0    0    0  0.00000000000E+00  0.00000000000E+00  0.74505805969E-08  0.10566000000E+00  0.10566000000E+00 0.  1.
     999900   -1    0    0    0    0 -0.00000000000E+00 -0.00000000000E+00 -0.74505805969E-08  0.93827000000E+00  0.93827000000E+00 0.  1.
     999902    2    1    2    0    0  0.30768553867E-02 -0.41686921095E-03 -0.96531740215E-02  0.10337897541E+01  0.10337400210E+01 0.  0.
     999903    2    3    3    0    0 -0.93251688798E-01 -0.95081165232E-01 -0.26746376678E-01  0.14332207079E+00  0.45711506931E-01 0.  0.
         14    1    1    2    0    0 -0.30768553867E-02  0.41686921095E-03  0.96531740215E-02  0.10140245939E-01  0.00000000000E+00 0.  1.
     999901    1    3    3    0    0  0.96328544185E-01  0.94664296021E-01  0.17093202657E-01  0.89046768327E+00  0.88000000000E+00 0.  1.
        -11    1    4    4    0    0 -0.72312048692E-01 -0.93125802509E-01 -0.14022309126E-01  0.11873640450E+00  0.51100000000E-03 0. -1.
         11    1    4    4    0    0 -0.20939640106E-01 -0.19553627228E-02 -0.12724067553E-01  0.24585666296E-01  0.51100000000E-03 0.  1.
</event>
<event>
 8    1  0.2257781E+004  0.1043930E+01  0.7957747E-01            NaN
         13   -1    0    0    0    0  0.00000000000E+00  0.00000000000E+00  0.74505805969E-08  0.10566000000E+00  0.10566000000E+00 0.  1.
     999900   -1    0    0    0    0 -0.00000000000E+00 -0.00000000000E+00 -0.74505805969E-08  0.93827000000E+00  0.93827000000E+00 0. -1.
     999902    2    1    2    0    0  0.40114211244E-02  0.11441128246E-03 -0.13644470140E-01  0.10297076178E+01  0.10296093929E+01 0.  0.
     999903    2    3    3    0    0 -0.79506185244E-02  0.10283515483E+00  0.80528253000E-01  0.13866152287E+00  0.45868692910E-01 0.  0.
         14    1    1    2    0    0 -0.40114211244E-02 -0.11441128246E-03  0.13644470140E-01  0.14222382177E-01  0.00000000000E+00 0.  1.
     999901    1    3    3    0    0  0.11962039649E-01 -0.10272074355E+00 -0.94172723141E-01  0.89104609495E+00  0.88000000000E+00 0. -1.
        -11    1    4    4    0    0 -0.56836508483E-02  0.59273067392E-01  0.73305823680E-01  0.94443662103E-01  0.51100000000E-03 0. -1.
         11    1    4    4    0    0 -0.22669676762E-02  0.43562087439E-01  0.72224293202E-02  0.44217860767E-01  0.51100000000E-03 0.  1.
</event>
<event>
 8    1  0.2257781E+004  0.1043930E+01  0.7957747E-01            NaN
         13   -1    0    0    0    0  0.00000000000E+00  0.00000000000E+00  0.74505805969E-08  0.10566000000E+00  0.10566000000E+00 0. -1.
     999900   -1    0    0    0    0 -0.00000000000E+00 -0.00000000000E+00 -0.74505805969E-08  0.93827000000E+00  0.93827000000E+00 0. -1.
     999902    2    1    2    0    0  0.84767819224E-02  0.36158387361E-02 -0.98466378135E-02  0.10304434735E+01  0.10303552133E+01 0.  0.
     999903    2    3    3    0    0  0.89213933044E-01 -0.66573473533E-01 -0.73693095655E-01  0.14166825031E+00  0.47413790942E-01 0.  0.
         14    1    1    2    0    0 -0.84767819224E-02 -0.36158387361E-02  0.98466378135E-02  0.13486526527E-01  0.00000000000E+00 0. -1.
     999901    1    3    3    0    0 -0.80737151122E-01  0.70189312269E-01  0.63846457841E-01  0.88877522316E+00  0.88000000000E+00 0.  1.
        -11    1    4    4    0    0  0.77956288459E-01 -0.59715128702E-01 -0.41003711234E-01  0.10641731514E+00  0.51100000000E-03 0.  1.
         11    1    4    4    0    0  0.11257644586E-01 -0.68583448307E-02 -0.32689384421E-01  0.35250935169E-01  0.51100000000E-03 0. -1.
</event>
<event>
 8    1  0.2257781E+004  0.1043930E+01  0.7957747E-01            NaN
         13   -1    0    0    0    0  0.00000000000E+00  0.00000000000E+00  0.74505805969E-08  0.10566000000E+00  0.10566000000E+00 0. -1.
     999900   -1    0    0    0    0 -0.00000000000E+00 -0.00000000000E+00 -0.74505805969E-08  0.93827000000E+00  0.93827000000E+00 0. -1.
     999902    2    1    2    0    0 -0.12849963315E-02  0.10998458943E-01 -0.49679822608E-02  0.10317933546E+01  0.10317219724E+01 0.  0.
     999903    2    3    3    0    0  0.12649969873E+00  0.43006513582E-01  0.14297321507E-01  0.14177953682E+00  0.45224878854E-01 0.  0.
         14    1    1    2    0    0  0.12849963315E-02 -0.10998458943E-01  0.49679822608E-02  0.12136645436E-01  0.00000000000E+00 0.  1.
     999901    1    3    3    0    0 -0.12778469506E+00 -0.32008054639E-01 -0.19265303767E-01  0.89001381775E+00  0.88000000000E+00 0.  1.
        -11    1    4    4    0    0  0.62414532840E-02  0.13553492596E-01  0.98488394469E-02  0.17886130384E-01  0.51100000000E-03 0.  1.
         11    1    4    4    0    0  0.12025824545E+00  0.29453020986E-01  0.44484820597E-02  0.12389340643E+00  0.51100000000E-03 0. -1.
</event>
<event>
 8    1  0.2257781E+004  0.1043930E+01  0.7957747E-01            NaN
         13   -1    0    0    0    0  0.00000000000E+00  0.00000000000E+00  0.74505805969E-08  0.10566000000E+00  0.10566000000E+00 0. -1.
     999900   -1    0    0    0    0 -0.00000000000E+00 -0.00000000000E+00 -0.74505805969E-08  0.93827000000E+00  0.93827000000E+00 0.  1.
     999902    2    1    2    0    0  0.10487003250E-01 -0.69842809501E-02 -0.55076466702E-02  0.10301789422E+01  0.10300871621E+01 0.  0.
     999903    2    3    3    0    0 -0.57999482418E-01 -0.61288842679E-01  0.10084059440E+00  0.13947734658E+00  0.46527868336E-01 0.  0.
         14    1    1    2    0    0 -0.10487003250E-01  0.69842809501E-02  0.55076466702E-02  0.13751057756E-01  0.00000000000E+00 0.  1.
     999901    1    3    3    0    0  0.68486485668E-01  0.54304561729E-01 -0.10634824107E+00  0.89070159567E+00  0.88000000000E+00 0.  1.
        -11    1    4    4    0    0 -0.31753898543E-01 -0.33925861843E-02  0.42751883613E-01  0.53364823500E-01  0.51100000000E-03 0.  1.
         11    1    4    4    0    0 -0.26245583874E-01 -0.57896256495E-01  0.58088710786E-01  0.86112523077E-01  0.51100000000E-03 0. -1.
</event>
<event>
 7    1  0.2257781E+004  0.1043930E+01  0.7957747E-01            NaN
         13   -1    0    0    0    0  0.00000000000E+00  0.00000000000E+00  0.74505805969E-08  0.10566000000E+00  0.10566000000E+00 0.  1.
     999900   -1    0    0    0    0 -0.00000000000E+00 -0.00000000000E+00 -0.74505805969E-08  0.93827000000E+00  0.93827000000E+00 0.  1.
     999903    2    1    2    0    0  0.66319375254E-01  0.90288010712E-01  0.26440126884E-01  0.12372132840E+00  0.45361904483E-01 0.  0.
         14    1    1    2    0    0  0.28775458888E-01 -0.10866774668E-01 -0.57302454213E-02  0.31288169305E-01  0.00000000000E+00 0. -1.
     999901    1    1    2    0    0 -0.95094834141E-01 -0.79421236044E-01 -0.20709881462E-01  0.88892050230E+00  0.88000000000E+00 0.  1.
        -11    1    3    3    0    0  0.51829682844E-01  0.66591416931E-01 -0.13919702552E-02  0.84397461661E-01  0.51100000000E-03 0. -1.
         11    1    3    3    0    0  0.14489692410E-01  0.23696593781E-01  0.27832097139E-01  0.39323866737E-01  0.51100000000E-03 0.  1.
</event>
<event>
 8    1  0.2257781E+004  0.1043930E+01  0.7957747E-01            NaN
         13   -1    0    0    0    0  0.00000000000E+00  0.00000000000E+00  0.74505805969E-08  0.10566000000E+00  0.10566000000E+00 0.  1.
     999900   -1    0    0    0    0 -0.00000000000E+00 -0.00000000000E+00 -0.74505805969E-08  0.93827000000E+00  0.93827000000E+00 0.  1.
     999902    2    1    2    0    0 -0.45617642237E-02 -0.10522396085E-02 -0.12872431994E-01  0.10302326862E+01  0.10301416268E+01 0.  0.
     999903    2    3    3    0    0  0.25435584097E-01  0.10175887166E+00  0.79064622587E-01  0.13898502837E+00  0.45428918846E-01 0.  0.
         14    1    1    2    0    0  0.45617642237E-02  0.10522396085E-02  0.12872431994E-01  0.13697313841E-01  0.00000000000E+00 0.  1.
     999901    1    3    3    0    0 -0.29997348321E-01 -0.10281111127E+00 -0.91937054581E-01  0.89124765779E+00  0.88000000000E+00 0. -1.
        -11    1    4    4    0    0  0.36381775679E-01  0.70117509101E-01  0.43678879328E-01  0.90267404440E-01  0.51100000000E-03 0. -1.
         11    1    4    4    0    0 -0.10946191582E-01  0.31641362556E-01  0.35385743259E-01  0.48717623932E-01  0.51100000000E-03 0.  1.
</event>
<event>
 8    1  0.2257781E+004  0.1043930E+01  0.7957747E-01            NaN
         13   -1    0    0    0    0  0.00000000000E+00  0.00000000000E+00  0.74505805969E-08  0.10566000000E+00  0.10566000000E+00 0.  1.
     999900   -1    0    0    0    0 -0.00000000000E+00 -0.00000000000E+00 -0.74505805969E-08  0.93827000000E+00  0.93827000000E+00 0. -1.
     999902    2    1    2    0    0 -0.76951466381E-02  0.75560823415E-02 -0.96817123345E-02  0.10294370632E+01  0.10293350387E+01 0.  0.
     999903    2    3    3    0    0  0.73164581059E-01 -0.10004824768E+00 -0.42881764918E-01  0.13858397160E+00  0.44765652414E-01 0.  0.
         14    1    1    2    0    0  0.76951466381E-02 -0.75560823415E-02  0.96817123345E-02  0.14492936758E-01  0.00000000000E+00 0.  1.
     999901    1    3    3    0    0 -0.80859727697E-01  0.10760433002E+00  0.33200052583E-01  0.89085309165E+00  0.88000000000E+00 0.  1.
        -11    1    4    4    0    0  0.40502647629E-01 -0.78517382627E-01 -0.45490869383E-01  0.99373659275E-01  0.51100000000E-03 0. -1.
         11    1    4    4    0    0  0.32661933430E-01 -0.21530865052E-01  0.26091044652E-02  0.39210312322E-01  0.51100000000E-03 0.  1.
</event>
<event>
 8    1  0.2257781E+004  0.1043930E+01  0.7957747E-01            NaN
         13   -1    0    0    0    0  0.00000000000E+00  0.00000000000E+00  0.74505805969E-08  0.10566000000E+00  0.10566000000E+00 0. -1.
     999900   -1    0    0    0    0 -0.00000000000E+00 -0.00000000000E+00 -0.74505805969E-08  0.93827000000E+00  0.93827000000E+00 0. -1.
     999902    2    1    2    0    0 -0.12237946349E-01  0.61606611754E-03  0.74006652966E-02  0.10296150877E+01  0.10295155715E+01 0.  0.
     999903    2    3    3    0    0  0.10473177250E+00 -0.76732311816E-01 -0.15937989178E-01  0.13820643868E+00  0.44613992710E-01 0.  0.
         14    1    1    2    0    0  0.12237946349E-01 -0.61606611754E-03 -0.74006652966E-02  0.14314912334E-01  0.00000000000E+00 0.  1.
     999901    1    3    3    0    0 -0.11696971885E+00  0.77348377933E-01  0.23338654475E-01  0.89140864899E+00  0.88000000000E+00 0.  1.
        -11    1    4    4    0    0  0.20068220343E-01 -0.39591962266E-01 -0.10370553912E-01  0.45585814167E-01  0.51100000000E-03 0. -1.
         11    1    4    4    0    0  0.84663552157E-01 -0.37140349550E-01 -0.55674352661E-02  0.92620624512E-01  0.51100000000E-03 0.  1.
</event>
<event>
 8    1  0.2257781E+004  0.1043930E+01  0.7957747E-01            NaN
         13   -1    0    0    0    0  0.00000000000E+00  0.00000000000E+00  0.74505805969E-08  0.10566000000E+00  0.10566000000E+00 0. -1.
     999900   -1    0    0    0    0 -0.00000000000E+00 -0.00000000000E+00 -0.74505805969E-08  0.93827000000E+00  0.93827000000E+00 0. -1.
     999902    2    1    2    0    0 -0.33114887136E-02  0.11228101702E-02  0.11711716739E-01  0.10317074402E+01  0.10316350377E+01 0.  0.
     999903    2    3    3    0    0 -0.34379059030E-01  0.42735579322E-01 -0.12068504825E+00  0.14028962574E+00  0.45913492350E-01 0.  0.
         14    1    1    2    0    0  0.33114887136E-02 -0.11228101702E-02 -0.11711716739E-01  0.12222559845E-01  0.00000000000E+00 0.  1.
     999901    1    3    3    0    0  0.31067570316E-01 -0.41612769152E-01  0.13239676499E+00  0.89141781442E+00  0.88000000000E+00 0.  1.
        -11    1    4    4    0    0 -0.23865104611E-01  0.46204195369E-01 -0.63683314822E-01  0.82220414713E-01  0.51100000000E-03 0.  1.
         11    1    4    4    0    0 -0.10513954419E-01 -0.34686160465E-02 -0.57001733424E-01  0.58069211025E-01  0.51100000000E-03 0. -1.
</event>
<event>
 8    1  0.2257781E+004  0.1043930E+01  0.7957747E-01            NaN
         13   -1    0    0    0    0  0.00000000000E+00  0.00000000000E+00  0.74505805969E-08  0.10566000000E+00  0.10566000000E+00 0. -1.
     999900   -1    0    0    0    0 -0.00000000000E+00 -0.00000000000E+00 -0.74505805969E-08  0.93827000000E+00  0.93827000000E+00 0.  1.
     999902    2    1    2    0    0 -0.46244801887E-03 -0.60299320248E-02  0.15376379196E-01  0.10274070773E+01  0.10272742066E+01 0.  0.
     999903    2    3    3    0    0  0.58832123602E-01  0.37491412297E-01  0.11158022756E+00  0.13911369438E+00  0.45118156204E-01 0.  0.
         14    1    1    2    0    0  0.46244801887E-03  0.60299320248E-02 -0.15376379196E-01  0.16522922731E-01  0.00000000000E+00 0.  1.
     999901    1    3    3    0    0 -0.59294571621E-01 -0.43521344322E-01 -0.96203848365E-01  0.88829338288E+00  0.88000000000E+00 0.  1.
        -11    1    4    4    0    0  0.31973826585E-01  0.24938121038E-01  0.98850179100E-01  0.10684500221E+00  0.51100000000E-03 0. -1.
         11    1    4    4    0    0  0.26858297017E-01  0.12553291259E-01  0.12730048462E-01  0.32268692179E-01  0.51100000000E-03 0.  1.
</event>
<event>
 8    1  0.2257781E+004  0.1043930E+01  0.7957747E-01            NaN
         13   -1    0    0    0    0  0.00000000000E+00  0.00000000000E+00  0.74505805969E-08  0.10566000000E+00  0.10566000000E+00 0. -1.
     999900   -1    0    0    0    0 -0.00000000000E+00 -0.00000000000E+00 -0.74505805969E-08  0.93827000000E+00  0.93827000000E+00 0.  1.
     999902    2    1    2    0    0 -0.95555191166E-03 -0.15689469292E-01  0.41504327548E-02  0.10276727364E+01  0.10275441376E+01 0.  0.
     999903    2    3    3    0    0 -0.78067023036E-01 -0.36570520900E-01  0.99313256234E-01  0.13894434134E+00  0.44839090567E-01 0.  0.
         14    1    1    2    0    0  0.95555191166E-03  0.15689469292E-01 -0.41504327548E-02  0.16257263551E-01  0.00000000000E+00 0. -1.
     999901    1    3    3    0    0  0.77111471124E-01  0.20881051608E-01 -0.95162823480E-01  0.88872839511E+00  0.88000000000E+00 0.  1.
        -11    1    4    4    0    0 -0.38726532387E-01 -0.12003348923E-01  0.77975288667E-01  0.87887606975E-01  0.51100000000E-03 0.  1.
         11    1    4    4    0    0 -0.39340490649E-01 -0.24567171977E-01  0.21337967567E-01  0.51056734368E-01  0.51100000000E-03 0. -1.
</event>
<event>
 8    1  0.2257781E+004  0.1043930E+01  0.7957747E-01            NaN
         13   -1    0    0    0    0  0.00000000000E+00  0.00000000000E+00  0.74505805969E-08  0.10566000000E+00  0.10566000000E+00 0.  1.
     999900   -1    0    0    0    0 -0.00000000000E+00 -0.00000000000E+00 -0.74505805969E-08  0.93827000000E+00  0.93827000000E+00 0.  1.
     999902    2    1    2    0    0  0.63237391548E-02 -0.13468910880E-01 -0.70748423465E-03  0.10290336323E+01  0.10289258062E+01 0.  0.
     999903    2    3    3    0    0 -0.34370062241E-01 -0.50222862331E-01  0.11710730253E+00  0.13949039983E+00  0.45164302931E-01 0.  0.
         14    1    1    2    0    0 -0.63237391548E-02  0.13468910880E-01  0.70748423465E-03  0.14896367716E-01  0.00000000000E+00 0.  1.
     999901    1    3    3    0    0  0.40693801396E-01  0.36753951452E-01 -0.11781478677E+00  0.88954323245E+00  0.88000000000E+00 0.  1.
        -11    1    4    4    0    0 -0.88607821512E-02 -0.23835067756E-01  0.90894677230E-01  0.94386055035E-01  0.51100000000E-03 0. -1.
         11    1    4    4    0    0 -0.25509280090E-01 -0.26387794575E-01  0.26212625305E-01  0.45104344798E-01  0.51100000000E-03 0.  1.
</event>
<event>
 8    1  0.2257781E+004  0.1043930E+01  0.7957747E-01            NaN
         13   -1    0    0    0    0  0.00000000000E+00  0.00000000000E+00  0.74505805969E-08  0.10566000000E+00  0.10566000000E+00 0.  1.
     999900   -1    0    0    0    0 -0.00000000000E+00 -0.00000000000E+00 -0.74505805969E-08  0.93827000000E+00  0.93827000000E+00 0.  1.
     999902    2    1    2    0    0 -0.11632150651E-01 -0.30586973156E-02  0.76374427810E-02  0.10296824356E+01  0.10295838602E+01 0.  0.
     999903    2    3    3    0    0  0.10208996578E+00  0.32318472676E-01 -0.74218784171E-01  0.13789506983E+00  0.45163896760E-01 0.  0.
         14    1    1    2    0    0  0.11632150651E-01  0.30586973156E-02 -0.76374427810E-02  0.14247564363E-01  0.00000000000E+00 0. -1.
     999901    1    3    3    0    0 -0.11372211643E+00 -0.35377169991E-01  0.81856226952E-01  0.89178736581E+00  0.88000000000E+00 0.  1.
        -11    1    4    4    0    0  0.44125231666E-01  0.35868189201E-01 -0.26540480318E-01  0.62755249045E-01  0.51100000000E-03 0.  1.
         11    1    4    4    0    0  0.57964734114E-01 -0.35497165259E-02 -0.47678303853E-01  0.75139820785E-01  0.51100000000E-03 0. -1.
</event>
<event>
 8    1  0.2257781E+004  0.1043930E+01  0.7957747E-01            NaN
         13   -1    0    0    0    0  0.00000000000E+00  0.00000000000E+00  0.74505805969E-08  0.10566000000E+00  0.10566000000E+00 0. -1.
     999900   -1    0    0    0    0 -0.00000000000E+00 -0.00000000000E+00 -0.74505805969E-08  0.93827000000E+00  0.93827000000E+00 0. -1.
     999902    2    1    2    0    0  0.24489043159E-02  0.12707574582E-01 -0.43922843267E-02  0.10302635540E+01  0.10301729073E+01 0.  0.
     999903    2    3    3    0    0  0.51087803779E-01 -0.28826538715E-01 -0.11492042305E+00  0.14104631703E+00  0.56977424337E-01 0.  0.
         14    1    1    2    0    0 -0.24489043159E-02 -0.12707574582E-01  0.43922843267E-02  0.13666445979E-01  0.00000000000E+00 0.  1.
     999901    1    3    3    0    0 -0.48638899464E-01  0.41534113297E-01  0.11052813873E+00  0.88921723699E+00  0.88000000000E+00 0.  1.
        -11    1    4    4    0    0  0.58837524651E-01 -0.31490881946E-01 -0.11485381611E+00  0.13283519921E+00  0.51100000000E-03 0.  1.
         11    1    4    4    0    0 -0.77497208720E-02  0.26643432305E-02 -0.66606945511E-04  0.82111178245E-02  0.51100000000E-03 0. -1.
</event>
<event>
 8    1  0.2257781E+004  0.1043930E+01  0.7957747E-01            NaN
         13   -1    0    0    0    0  0.00000000000E+00  0.00000000000E+00  0.74505805969E-08  0.10566000000E+00  0.10566000000E+00 0. -1.
     999900   -1    0    0    0    0 -0.00000000000E+00 -0.00000000000E+00 -0.74505805969E-08  0.93827000000E+00  0.93827000000E+00 0. -1.
     999902    2    1    2    0    0 -0.13595373992E-01 -0.37549564895E-02 -0.39342354792E-02  0.10292871826E+01  0.10291830217E+01 0.  0.
     999903    2    3    3    0    0 -0.90495265335E-01 -0.60708956180E-01 -0.77309406576E-01  0.14106352435E+00  0.45246029081E-01 0.  0.
         14    1    1    2    0    0  0.13595373992E-01  0.37549564895E-02  0.39342354792E-02  0.14642817387E-01  0.00000000000E+00 0. -1.
     999901    1    3    3    0    0  0.76899891343E-01  0.56953999690E-01  0.73375171097E-01  0.88822365827E+00  0.88000000000E+00 0. -1.
        -11    1    4    4    0    0 -0.70951008547E-02 -0.25451503136E-01 -0.25587957540E-01  0.36784836007E-01  0.51100000000E-03 0.  1.
         11    1    4    4    0    0 -0.83400164481E-01 -0.35257453044E-01 -0.51721449036E-01  0.10427868834E+00  0.51100000000E-03 0. -1.
</event>
<event>
 8    1  0.2257781E+004  0.1043930E+01  0.7957747E-01            NaN
         13   -1    0    0    0    0  0.00000000000E+00  0.00000000000E+00  0.74505805969E-08  0.10566000000E+00  0.10566000000E+00 0. -1.
     999900   -1    0    0    0    0 -0.00000000000E+00 -0.00000000000E+00 -0.74505805969E-08  0.93827000000E+00  0.93827000000E+00 0.  1.
     999902    2    1    2    0    0 -0.92139247377E-02 -0.90726921598E-02 -0.61748465470E-04  0.10309988761E+01  0.10309177797E+01 0.  0.
     999903    2    3    3    0    0  0.10106329641E+00  0.52452876202E-01  0.66769075209E-01  0.13947612258E+00  0.45059796538E-01 0.  0.
         14    1    1    2    0    0  0.92139247377E-02  0.90726921598E-02  0.61748465470E-04  0.12931123887E-01  0.00000000000E+00 0. -1.
     999901    1    3    3    0    0 -0.11027722115E+00 -0.61525568362E-01 -0.66830823674E-01  0.89152275353E+00  0.88000000000E+00 0.  1.
        -11    1    4    4    0    0  0.70665313629E-01  0.57183411483E-01  0.42817864892E-01  0.10048462457E+00  0.51100000000E-03 0. -1.
         11    1    4    4    0    0  0.30397982780E-01 -0.47305352808E-02  0.23951210317E-01  0.38991498020E-01  0.51100000000E-03 0.  1.
</event>
<event>
 8    1  0.2257781E+004  0.1043930E+01  0.7957747E-01            NaN
         13   -1    0    0    0    0  0.00000000000E+00  0.00000000000E+00  0.74505805969E-08  0.10566000000E+00  0.10566000000E+00 0.  1.
     999900   -1    0    0    0    0 -0.00000000000E+00 -0.00000000000E+00 -0.74505805969E-08  0.93827000000E+00  0.93827000000E+00 0.  1.
     999902    2    1    2    0    0  0.15518838394E-01  0.11098673873E-01  0.52401565415E-02  0.10241442944E+01  0.10239531540E+01 0.  0.
     999903    2    3    3    0    0 -0.11564008419E+00 -0.31889989783E-01 -0.35354215809E-01  0.13246128385E+00  0.43663149489E-01 0.  0.
         14    1    1    2    0    0 -0.15518838394E-01 -0.11098673873E-01 -0.52401565415E-02  0.19785705633E-01  0.00000000000E+00 0.  1.
     999901    1    3    3    0    0  0.13115892259E+00  0.42988663656E-01  0.40594372350E-01  0.89168301052E+00  0.88000000000E+00 0. -1.
        -11    1    4    4    0    0 -0.28390324340E-01 -0.28294550573E-01 -0.14959830303E-01  0.42786092974E-01  0.51100000000E-03 0. -1.
         11    1    4    4    0    0 -0.87249759854E-01 -0.35954392097E-02 -0.20394385505E-01  0.89675190877E-01  0.51100000000E-03 0.  1.
</event>
<event>
 8    1  0.2257781E+004  0.1043930E+01  0.7957747E-01            NaN
         13   -1    0    0    0    0  0.00000000000E+00  0.00000000000E+00  0.74505805969E-08  0.10566000000E+00  0.10566000000E+00 0. -1.
     999900   -1    0    0    0    0 -0.00000000000E+00 -0.00000000000E+00 -0.74505805969E-08  0.93827000000E+00  0.93827000000E+00 0. -1.
     999902    2    1    2    0    0  0.71184274911E-02 -0.97761110113E-02  0.45927808589E-02  0.10309940813E+01  0.10309129244E+01 0.  0.
     999903    2    3    3    0    0  0.19740036699E-01 -0.25661548648E-01  0.12679527573E+00  0.14231804253E+00  0.55939245209E-01 0.  0.
         14    1    1    2    0    0 -0.71184274911E-02  0.97761110113E-02 -0.45927808589E-02  0.12935918694E-01  0.00000000000E+00 0.  1.
     999901    1    3    3    0    0 -0.12621609208E-01  0.15885437637E-01 -0.12220249487E+00  0.88867603878E+00  0.88000000000E+00 0. -1.
        -11    1    4    4    0    0  0.88942275512E-04 -0.92257150264E-02  0.11269102815E+00  0.11306922957E+00  0.51100000000E-03 0. -1.
         11    1    4    4    0    0  0.19651094424E-01 -0.16435833622E-01  0.14104247576E-01  0.29248812960E-01  0.51100000000E-03 0.  1.
</event>
<event>
 8    1  0.2257781E+004  0.1043930E+01  0.7957747E-01            NaN
         13   -1    0    0    0    0  0.00000000000E+00  0.00000000000E+00  0.74505805969E-08  0.10566000000E+00  0.10566000000E+00 0. -1.
     999900   -1    0    0    0    0 -0.00000000000E+00 -0.00000000000E+00 -0.74505805969E-08  0.93827000000E+00  0.93827000000E+00 0.  1.
     999902    2    1    2    0    0  0.15372999803E-02 -0.58997491023E-02  0.12108644374E-01  0.10303730977E+01  0.10302839079E+01 0.  0.
     999903    2    3    3    0    0  0.85812981625E-01  0.99911984318E-01  0.16126052307E-01  0.14002785401E+00  0.44737880024E-01 0.  0.
         14    1    1    2    0    0 -0.15372999803E-02  0.58997491023E-02 -0.12108644374E-01  0.13556902275E-01  0.00000000000E+00 0.  1.
     999901    1    3    3    0    0 -0.84275681644E-01 -0.10581173342E+00 -0.40174079323E-02  0.89034524372E+00  0.88000000000E+00 0. -1.
        -11    1    4    4    0    0  0.44573383297E-01  0.73069158804E-01 -0.65550781780E-02  0.85843570743E-01  0.51100000000E-03 0.  1.
         11    1    4    4    0    0  0.41239598327E-01  0.26842825514E-01  0.22681130485E-01  0.54184283264E-01  0.51100000000E-03 0. -1.
</event>
<event>
 8    1  0.2257781E+004  0.1043930E+01  0.7957747E-01            NaN
         13   -1    0    0    0    0  0.00000000000E+00  0.00000000000E+00  0.74505805969E-08  0.10566000000E+00  0.10566000000E+00 0.  1.
     999900   -1    0    0    0    0 -0.00000000000E+00 -0.00000000000E+00 -0.74505805969E-08  0.93827000000E+00  0.93827000000E+00 0. -1.
     999902    2    1    2    0    0 -0.56531728196E-02  0.99854261832E-02 -0.84191424510E-02  0.10296980269E+01  0.10295996686E+01 0.  0.
     999903    2    3    3    0    0  0.49306474195E-01 -0.38143964038E-01 -0.11743944033E+00  0.13996636714E+00  0.43731812176E-01 0.  0.
         14    1    1    2    0    0  0.56531728196E-02 -0.99854261832E-02  0.84191424510E-02  0.14231973110E-01  0.00000000000E+00 0.  1.
     999901    1    3    3    0    0 -0.54959647015E-01  0.48129390222E-01  0.10902029788E+00  0.88973165975E+00  0.88000000000E+00 0.  1.
        -11    1    4    4    0    0  0.35267207151E-02 -0.28791479980E-01 -0.52176078748E-01  0.59699174140E-01  0.51100000000E-03 0. -1.
         11    1    4    4    0    0  0.45779753480E-01 -0.93524840587E-02 -0.65263361583E-01  0.80267193005E-01  0.51100000000E-03 0.  1.
</event>
<event>
 8    1  0.2257781E+004  0.1043930E+01  0.7957747E-01            NaN
         13   -1    0    0    0    0  0.00000000000E+00  0.00000000000E+00  0.74505805969E-08  0.10566000000E+00  0.10566000000E+00 0. -1.
     999900   -1    0    0    0    0 -0.00000000000E+00 -0.00000000000E+00 -0.74505805969E-08  0.93827000000E+00  0.93827000000E+00 0.  1.
     999902    2    1    2    0    0  0.51925870565E-03  0.10645733511E-01 -0.91727520163E-02  0.10298679713E+01  0.10297719639E+01 0.  0.
     999903    2    3    3    0    0 -0.44772264106E-01 -0.10232890877E+00  0.67295490632E-01  0.13820548809E+00  0.45785507254E-01 0.  0.
         14    1    1    2    0    0 -0.51925870565E-03 -0.10645733511E-01  0.91727520163E-02  0.14062028699E-01  0.00000000000E+00 0. -1.
     999901    1    3    3    0    0  0.45291522812E-01  0.11297464228E+00 -0.76468242649E-01  0.89166248321E+00  0.88000000000E+00 0.  1.
        -11    1    4    4    0    0 -0.35983811891E-01 -0.37293144109E-01  0.14056480203E-01  0.53697849794E-01  0.51100000000E-03 0. -1.
         11    1    4    4    0    0 -0.87884522149E-02 -0.65035764661E-01  0.53239010429E-01  0.84507638293E-01  0.51100000000E-03 0.  1.
</event>
<event>
 8    1  0.2257781E+004  0.1043930E+01  0.7957747E-01            NaN
         13   -1    0    0    0    0  0.00000000000E+00  0.00000000000E+00  0.74505805969E-08  0.10566000000E+00  0.10566000000E+00 0.  1.
     999900   -1    0    0    0    0 -0.00000000000E+00 -0.00000000000E+00 -0.74505805969E-08  0.93827000000E+00  0.93827000000E+00 0. -1.
     999902    2    1    2    0    0  0.80485413406E-02 -0.64274889513E-02  0.98722209659E-02  0.10296628216E+01  0.10295639727E+01 0.  0.
     999903    2    3    3    0    0 -0.15325606724E-01  0.79434383238E-01  0.10479781745E+00  0.14009580293E+00  0.45820912180E-01 0.  0.
         14    1    1    2    0    0 -0.80485413406E-02  0.64274889513E-02 -0.98722209659E-02  0.14267178373E-01  0.00000000000E+00 0. -1.
     999901    1    3    3    0    0  0.23374148065E-01 -0.85861872189E-01 -0.94925596485E-01  0.88956701870E+00  0.88000000000E+00 0. -1.
        -11    1    4    4    0    0 -0.30489544249E-01  0.45104033695E-01  0.51773310088E-01  0.75131371095E-01  0.51100000000E-03 0.  1.
         11    1    4    4    0    0  0.15163937525E-01  0.34330349543E-01  0.53024507362E-01  0.64964431830E-01  0.51100000000E-03 0. -1.
</event>
<event>
 8    1  0.2257781E+004  0.1043930E+01  0.7957747E-01            NaN
         13   -1    0    0    0    0  0.00000000000E+00  0.00000000000E+00  0.74505805969E-08  0.10566000000E+00  0.10566000000E+00 0.  1.
     999900   -1    0    0    0    0 -0.00000000000E+00 -0.00000000000E+00 -0.74505805969E-08  0.93827000000E+00  0.93827000000E+00 0. -1.
     999902    2    1    2    0    0  0.43159692546E-02 -0.12028153290E-02  0.13068806938E-01  0.10301144989E+01  0.10300218506E+01 0.  0.
     999903    2    3    3    0    0  0.13136205505E+00 -0.43484604255E-02  0.20098581166E-01  0.14095758323E+00  0.46799451789E-01 0.  0.
         14    1    1    2    0    0 -0.43159692546E-02  0.12028153290E-02 -0.13068806938E-01  0.13815501080E-01  0.00000000000E+00 0. -1.
     999901    1    3    3    0    0 -0.12704608580E+00  0.31456450965E-02 -0.70297742282E-02  0.88915691569E+00  0.88000000000E+00 0. -1.
        -11    1    4    4    0    0  0.77904449580E-01 -0.16004159110E-01 -0.71096491229E-02  0.79850138415E-01  0.51100000000E-03 0. -1.
         11    1    4    4    0    0  0.53457605474E-01  0.11655698685E-01  0.27208230289E-01  0.61107444811E-01  0.51100000000E-03 0.  1.
</event>
<event>
 8    1  0.2257781E+004  0.1043930E+01  0.7957747E-01            NaN
         13   -1    0    0    0    0  0.00000000000E+00  0.00000000000E+00  0.74505805969E-08  0.10566000000E+00  0.10566000000E+00 0. -1.
     999900   -1    0    0    0    0 -0.00000000000E+00 -0.00000000000E+00 -0.74505805969E-08  0.93827000000E+00  0.93827000000E+00 0.  1.
     999902    2    1    2    0    0  0.70024053783E-02  0.97887830291E-02 -0.80773989147E-02  0.10294352310E+01  0.10293331805E+01 0.  0.
     999903    2    3    3    0    0  0.58726431763E-01 -0.70448127257E-01  0.93408216275E-01  0.13847357823E+00  0.45145371603E-01 0.  0.
         14    1    1    2    0    0 -0.70024053783E-02 -0.97887830291E-02  0.80773989147E-02  0.14494768970E-01  0.00000000000E+00 0. -1.
     999901    1    3    3    0    0 -0.51724026385E-01  0.80236910286E-01 -0.10148561519E+00  0.89096165280E+00  0.88000000000E+00 0.  1.
        -11    1    4    4    0    0  0.55997933081E-01 -0.35796813831E-01  0.70222973712E-01  0.96688714687E-01  0.51100000000E-03 0.  1.
         11    1    4    4    0    0  0.27284986818E-02 -0.34651313426E-01  0.23185242563E-01  0.41784863539E-01  0.51100000000E-03 0. -1.
</event>
<event>
 8    1  0.2257781E+004  0.1043930E+01  0.7957747E-01            NaN
         13   -1    0    0    0    0  0.00000000000E+00  0.00000000000E+00  0.74505805969E-08  0.10566000000E+00  0.10566000000E+00 0. -1.
     999900   -1    0    0    0    0 -0.00000000000E+00 -0.00000000000E+00 -0.74505805969E-08  0.93827000000E+00  0.93827000000E+00 0. -1.
     999902    2    1    2    0    0  0.73962578992E-02 -0.57507471729E-02  0.10424591661E-01  0.10299140150E+01  0.10298186396E+01 0.  0.
     999903    2    3    3    0    0  0.23777828228E-01 -0.68007073683E-01  0.11350188486E+00  0.14156209465E+00  0.44348636818E-01 0.  0.
         14    1    1    2    0    0 -0.73962578992E-02  0.57507471729E-02 -0.10424591661E-01  0.14015984991E-01  0.00000000000E+00 0.  1.
     999901    1    3    3    0    0 -0.16381570329E-01  0.62256326510E-01 -0.10307729320E+00  0.88835192036E+00  0.88000000000E+00 0. -1.
        -11    1    4    4    0    0 -0.51964449017E-02 -0.49747406337E-01  0.73400652884E-01  0.88824120832E-01  0.51100000000E-03 0.  1.
         11    1    4    4    0    0  0.28974273129E-01 -0.18259667346E-01  0.40101231978E-01  0.52737973815E-01  0.51100000000E-03 0. -1.
</event>
<event>
 8    1  0.2257781E+004  0.1043930E+01  0.7957747E-01            NaN
         13   -1    0    0    0    0  0.00000000000E+00  0.00000000000E+00  0.74505805969E-08  0.10566000000E+00  0.10566000000E+00 0.  1.
     999900   -1    0    0    0    0 -0.00000000000E+00 -0.00000000000E+00 -0.74505805969E-08  0.93827000000E+00  0.93827000000E+00 0.  1.
     999902    2    1    2    0    0 -0.69263391550E-02  0.67892282059E-02  0.10515774911E-01  0.10296244306E+01  0.10295250452E+01 0.  0.
     999903    2    3    3    0    0  0.32593198246E-01  0.88628403603E-01 -0.91118598901E-01  0.13912513785E+00  0.46215737770E-01 0.  0.
         14    1    1    2    0    0  0.69263391550E-02 -0.67892282059E-02 -0.10515774911E-01  0.14305569394E-01  0.00000000000E+00 0. -1.
     999901    1    3    3    0    0 -0.39519537401E-01 -0.81839175397E-01  0.10163437381E+00  0.89049929276E+00  0.88000000000E+00 0. -1.
        -11    1    4    4    0    0  0.40574645005E-02  0.19105183212E-01 -0.49502363672E-01  0.53218569822E-01  0.51100000000E-03 0. -1.
         11    1    4    4    0    0  0.28535733746E-01  0.69523220391E-01 -0.41616235229E-01  0.85906568024E-01  0.51100000000E-03 0.  1.
</event>
<event>
 8    1  0.2257781E+004  0.1043930E+01  0.7957747E-01            NaN
         13   -1    0    0    0    0  0.00000000000E+00  0.00000000000E+00  0.74505805969E-08  0.10566000000E+00  0.10566000000E+00 0. -1.
     999900   -1    0    0    0    0 -0.00000000000E+00 -0.00000000000E+00 -0.74505805969E-08  0.93827000000E+00  0.93827000000E+00 0. -1.
     999902    2    1    2    0    0 -0.13753969265E-01 -0.18008181041E-02 -0.40193548120E-02  0.10294880531E+01  0.10293867503E+01 0.  0.
     999903    2    3    3    0    0  0.10991457644E+00  0.66957468577E-01  0.20080979119E-01  0.13785896136E+00  0.45136800878E-01 0.  0.
         14    1    1    2    0    0  0.13753969265E-01  0.18008181041E-02  0.40193548120E-02  0.14441946873E-01  0.00000000000E+00 0.  1.
     999901    1    3    3    0    0 -0.12366854570E+00 -0.68758286682E-01 -0.24100333931E-01  0.89162909176E+00  0.88000000000E+00 0. -1.
        -11    1    4    4    0    0  0.52647252029E-01  0.24176056161E-01  0.30737972494E-01  0.65584288604E-01  0.51100000000E-03 0.  1.
         11    1    4    4    0    0  0.57267324411E-01  0.42781412417E-01 -0.10656993376E-01  0.72274672759E-01  0.51100000000E-03 0. -1.
</event>
<event>
 8    1  0.2257781E+004  0.1043930E+01  0.7957747E-01            NaN
         13   -1    0    0    0    0  0.00000000000E+00  0.00000000000E+00  0.74505805969E-08  0.10566000000E+00  0.10566000000E+00 0. -1.
     999900   -1    0    0    0    0 -0.00000000000E+00 -0.00000000000E+00 -0.74505805969E-08  0.93827000000E+00  0.93827000000E+00 0.  1.
     999902    2    1    2    0    0 -0.52504554945E-02 -0.85547747090E-02  0.91714644870E-02  0.10303334117E+01  0.10302436954E+01 0.  0.
     999903    2    3    3    0    0  0.27017185946E-01 -0.51233946525E-01  0.12174956160E+00  0.14154966951E+00  0.43110411440E-01 0.  0.
         14    1    1    2    0    0  0.52504554945E-02  0.85547747090E-02 -0.91714644870E-02  0.13596588324E-01  0.00000000000E+00 0.  1.
     999901    1    3    3    0    0 -0.32267641441E-01  0.42679171816E-01 -0.11257809712E+00  0.88878374217E+00  0.88000000000E+00 0.  1.
        -11    1    4    4    0    0  0.37461431216E-01 -0.28184010127E-01  0.80196558395E-01  0.92894813391E-01  0.51100000000E-03 0.  1.
         11    1    4    4    0    0 -0.10444245270E-01 -0.23049936398E-01  0.41553003208E-01  0.48654856117E-01  0.51100000000E-03 0. -1.
</event>
<event>
 8    1  0.2257781E+004  0.1043930E+01  0.7957747E-01            NaN
         13   -1    0    0    0    0  0.00000000000E+00  0.00000000000E+00  0.74505805969E-08  0.10566000000E+00  0.10566000000E+00 0. -1.
     999900   -1    0    0    0    0 -0.00000000000E+00 -0.00000000000E+00 -0.74505805969E-08  0.93827000000E+00  0.93827000000E+00 0.  1.
     999902    2    1    2    0    0 -0.13551320175E-01 -0.23837407171E-02  0.85534031326E-02  0.10277287283E+01  0.10276010208E+01 0.  0.
     999903    2    3    3    0    0 -0.13081506877E-01 -0.54941102729E-01  0.11901262173E+00  0.13926728517E+00  0.45185417971E-01 0.  0.
         14    1    1    2    0    0  0.13551320175E-01  0.23837407171E-02 -0.85534031326E-02  0.16201271661E-01  0.00000000000E+00 0. -1.
     999901    1    3    3    0    0 -0.46981329776E-03  0.52557362012E-01 -0.11045921859E+00  0.88846144317E+00  0.88000000000E+00 0.  1.
        -11    1    4    4    0    0 -0.35893425635E-02 -0.54446214748E-01  0.67087900647E-01  0.86477287276E-01  0.51100000000E-03 0.  1.
         11    1    4    4    0    0 -0.94921643133E-02 -0.49488798068E-03  0.51924721079E-01  0.52789997894E-01  0.51100000000E-03 0. -1.
</event>
<event>
 8    1  0.2257781E+004  0.1043930E+01  0.7957747E-01            NaN
         13   -1    0    0    0    0  0.00000000000E+00  0.00000000000E+00  0.74505805969E-08  0.10566000000E+00  0.10566000000E+00 0.  1.
     999900   -1    0    0    0    0 -0.00000000000E+00 -0.00000000000E+00 -0.74505805969E-08  0.93827000000E+00  0.93827000000E+00 0.  1.
     999902    2    1    2    0    0  0.88429916737E-02  0.45489469016E-03  0.12274468271E-01  0.10287950074E+01  0.10286836730E+01 0.  0.
     999903    2    3    3    0    0 -0.39729174875E-01  0.78776390850E-01  0.97621360096E-01  0.13987566115E+00  0.47446217374E-01 0.  0.
         14    1    1    2    0    0 -0.88429916737E-02 -0.45489469016E-03 -0.12274468271E-01  0.15134992641E-01  0.00000000000E+00 0. -1.
     999901    1    3    3    0    0  0.48572166548E-01 -0.78321496160E-01 -0.85346891825E-01  0.88891934621E+00  0.88000000000E+00 0.  1.
        -11    1    4    4    0    0 -0.50369229187E-01  0.66040811782E-01  0.75727361867E-01  0.11239814289E+00  0.51100000000E-03 0. -1.
         11    1    4    4    0    0  0.10640054312E-01  0.12735579068E-01  0.21893998228E-01  0.27477518254E-01  0.51100000000E-03 0.  1.
</event>
<event>
 8    1  0.2294987E+004  0.1043930E+01  0.7957747E-01            NaN
         13   -1    0    0    0    0  0.00000000000E+00  0.00000000000E+00  0.74505805969E-08  0.10566000000E+00  0.10566000000E+00 0.  1.
     999900   -1    0    0    0    0 -0.00000000000E+00 -0.00000000000E+00 -0.74505805969E-08  0.93827000000E+00  0.93827000000E+00 0.  1.
     999902    2    1    2    0    0  0.25988157279E-02 -0.90417700141E-02  0.10735933425E-01  0.10296552771E+01  0.10295563228E+01 0.  0.
     999903    2    3    3    0    0  0.10457259815E+00  0.34042470234E-01 -0.71205542804E-01  0.13894246725E+00  0.46265125269E-01 0.  0.
         14    1    1    2    0    0 -0.25988157279E-02  0.90417700141E-02 -0.10735933425E-01  0.14274722928E-01  0.00000000000E+00 0. -1.
     999901    1    3    3    0    0 -0.10197378242E+00 -0.43084240248E-01  0.81941476229E-01  0.89071280982E+00  0.88000000000E+00 0.  1.
        -11    1    4    4    0    0  0.33005866640E-01  0.18938098440E-01 -0.17840801701E-02  0.38098331568E-01  0.51100000000E-03 0.  1.
         11    1    4    4    0    0  0.71566731506E-01  0.15104371794E-01 -0.69421462634E-01  0.10084413568E+00  0.51100000000E-03 0. -1.
</event>
<event>
 8    1  0.2257781E+004  0.1043930E+01  0.7957747E-01            NaN
         13   -1    0    0    0    0  0.00000000000E+00  0.00000000000E+00  0.74505805969E-08  0.10566000000E+00  0.10566000000E+00 0. -1.
     999900   -1    0    0    0    0 -0.00000000000E+00 -0.00000000000E+00 -0.74505805969E-08  0.93827000000E+00  0.93827000000E+00 0. -1.
     999902    2    1    2    0    0  0.77282100047E-02  0.30133185944E-02 -0.10771173624E-01  0.10303350193E+01  0.10302453244E+01 0.  0.
     999903    2    3    3    0    0 -0.10915444603E+00 -0.22051564139E-01 -0.71999792389E-01  0.14014473213E+00  0.45338849457E-01 0.  0.
         14    1    1    2    0    0 -0.77282100047E-02 -0.30133185944E-02  0.10771173624E-01  0.13594980694E-01  0.00000000000E+00 0. -1.
     999901    1    3    3    0    0  0.11688265604E+00  0.25064882733E-01  0.61228618765E-01  0.89019028718E+00  0.88000000000E+00 0. -1.
        -11    1    4    4    0    0 -0.45456664551E-01 -0.30280296920E-01 -0.22584069881E-01  0.59105888599E-01  0.51100000000E-03 0.  1.
         11    1    4    4    0    0 -0.63697781481E-01  0.82287327816E-02 -0.49415722508E-01  0.81038843531E-01  0.51100000000E-03 0. -1.
</event>
<event>
 8    1  0.2257781E+004  0.1043930E+01  0.7957747E-01            NaN
         13   -1    0    0    0    0  0.00000000000E+00  0.00000000000E+00  0.74505805969E-08  0.10566000000E+00  0.10566000000E+00 0. -1.
     999900   -1    0    0    0    0 -0.00000000000E+00 -0.00000000000E+00 -0.74505805969E-08  0.93827000000E+00  0.93827000000E+00 0.  1.
     999902    2    1    2    0    0  0.11156383310E-01  0.41234132503E-02  0.40716924909E-02  0.10313583611E+01  0.10312817379E+01 0.  0.
     999903    2    3    3    0    0 -0.22619583402E-01  0.70385168580E-01  0.11212386191E+00  0.14163553488E+00  0.44979404425E-01 0.  0.
         14    1    1    2    0    0 -0.11156383310E-01 -0.41234132503E-02 -0.40716924909E-02  0.12571638920E-01  0.00000000000E+00 0. -1.
     999901    1    3    3    0    0  0.33775966712E-01 -0.66261755330E-01 -0.10805216942E+00  0.88972282620E+00  0.88000000000E+00 0.  1.
        -11    1    4    4    0    0 -0.36209701891E-01  0.54390106622E-01  0.80590312665E-01  0.10375204010E+00  0.51100000000E-03 0. -1.
         11    1    4    4    0    0  0.13590118489E-01  0.15995061959E-01  0.31533549241E-01  0.37883494775E-01  0.51100000000E-03 0.  1.
</event>
<event>
 8    1  0.2257781E+004  0.1043930E+01  0.7957747E-01            NaN
         13   -1    0    0    0    0  0.00000000000E+00  0.00000000000E+00  0.74505805969E-08  0.10566000000E+00  0.10566000000E+00 0. -1.
     999900   -1    0    0    0    0 -0.00000000000E+00 -0.00000000000E+00 -0.74505805969E-08  0.93827000000E+00  0.93827000000E+00 0. -1.
     999902    2    1    2    0    0  0.23775524086E-02  0.88843451311E-02 -0.86429573766E-02  0.10313091816E+01  0.10312319541E+01 0.  0.
     999903    2    3    3    0    0 -0.84674820990E-01  0.51789896074E-01  0.89123055971E-01  0.14059194515E+00  0.44397717171E-01 0.  0.
         14    1    1    2    0    0 -0.23775524086E-02 -0.88843451311E-02  0.86429573766E-02  0.12620818360E-01  0.00000000000E+00 0. -1.
     999901    1    3    3    0    0  0.87052373399E-01 -0.42905550943E-01 -0.97766013348E-01  0.89071723649E+00  0.88000000000E+00 0.  1.
        -11    1    4    4    0    0 -0.41134704033E-01  0.49507044248E-01  0.44850416919E-01  0.78452739435E-01  0.51100000000E-03 0. -1.
         11    1    4    4    0    0 -0.43540116958E-01  0.22828518262E-02  0.44272639052E-01  0.62139205714E-01  0.51100000000E-03 0.  1.
</event>
<event>
 8    1  0.2257781E+004  0.1043930E+01  0.7957747E-01            NaN
         13   -1    0    0    0    0  0.00000000000E+00  0.00000000000E+00  0.74505805969E-08  0.10566000000E+00  0.10566000000E+00 0. -1.
     999900   -1    0    0    0    0 -0.00000000000E+00 -0.00000000000E+00 -0.74505805969E-08  0.93827000000E+00  0.93827000000E+00 0.  1.
     999902    2    1    2    0    0 -0.83227137818E-02  0.12007673901E-01 -0.28199362279E-02  0.10290503549E+01  0.10289427725E+01 0.  0.
     999903    2    3    3    0    0  0.32195234637E-01 -0.59213576125E-01  0.11132017170E+00  0.13790382666E+00  0.45634461204E-01 0.  0.
         14    1    1    2    0    0  0.83227137818E-02 -0.12007673901E-01  0.28199362279E-02  0.14879645074E-01  0.00000000000E+00 0.  1.
     999901    1    3    3    0    0 -0.40517948418E-01  0.71221250025E-01 -0.11414010793E+00  0.89114652826E+00  0.88000000000E+00 0.  1.
        -11    1    4    4    0    0  0.42377218218E-01 -0.52962113824E-01  0.83202379692E-01  0.10734855021E+00  0.51100000000E-03 0.  1.
         11    1    4    4    0    0 -0.10181983582E-01 -0.62514623007E-02  0.28117792011E-01  0.30555276453E-01  0.51100000000E-03 0. -1.
</event>
<event>
 8    1  0.2257781E+004  0.1043930E+01  0.7957747E-01            NaN
         13   -1    0    0    0    0  0.00000000000E+00  0.00000000000E+00  0.74505805969E-08  0.10566000000E+00  0.10566000000E+00 0. -1.
     999900   -1    0    0    0    0 -0.00000000000E+00 -0.00000000000E+00 -0.74505805969E-08  0.93827000000E+00  0.93827000000E+00 0.  1.
     999902    2    1    2    0    0  0.25612213340E-02 -0.82120257456E-02 -0.28520677295E-02  0.10348673562E+01  0.10348276733E+01 0.  0.
     999903    2    3    3    0    0 -0.49969137119E-01  0.90011923106E-01  0.88938702091E-01  0.14310902120E+00  0.44396376588E-01 0.  0.
         14    1    1    2    0    0 -0.25612213340E-02  0.82120257456E-02  0.28520677295E-02  0.90626437589E-02  0.00000000000E+00 0. -1.
     999901    1    3    3    0    0  0.52530358453E-01 -0.98223948852E-01 -0.91790769821E-01  0.89175833504E+00  0.88000000000E+00 0.  1.
        -11    1    4    4    0    0 -0.30473315708E-02  0.50961338193E-01  0.39401341012E-01  0.64490859931E-01  0.51100000000E-03 0. -1.
         11    1    4    4    0    0 -0.46921805548E-01  0.39050584913E-01  0.49537361080E-01  0.78618161271E-01  0.51100000000E-03 0.  1.
</event>
<event>
 8    1  0.2257781E+004  0.1043930E+01  0.7957747E-01            NaN
         13   -1    0    0    0    0  0.00000000000E+00  0.00000000000E+00  0.74505805969E-08  0.10566000000E+00  0.10566000000E+00 0.  1.
     999900   -1    0    0    0    0 -0.00000000000E+00 -0.00000000000E+00 -0.74505805969E-08  0.93827000000E+00  0.93827000000E+00 0. -1.
     999902    2    1    2    0    0  0.97201039842E-02 -0.75330091538E-02 -0.18264573325E-01  0.10219113423E+01  0.10216741018E+01 0.  0.
     999903    2    3    3    0    0 -0.10960616094E+00  0.42782177436E-01  0.35577572466E-01  0.13080565150E+00  0.44727280052E-01 0.  0.
         14    1    1    2    0    0 -0.97201039842E-02  0.75330091538E-02  0.18264573325E-01  0.22018657704E-01  0.00000000000E+00 0.  1.
     999901    1    3    3    0    0  0.11932626492E+00 -0.50315186590E-01 -0.53842145790E-01  0.89110569079E+00  0.88000000000E+00 0. -1.
        -11    1    4    4    0    0  0.10197971501E-03  0.45859607327E-02 -0.58677522864E-02  0.74654586998E-02  0.51100000000E-03 0. -1.
         11    1    4    4    0    0 -0.10970814065E+00  0.38196216703E-01  0.41445324752E-01  0.12334019280E+00  0.51100000000E-03 0.  1.
</event>
<event>
 8    1  0.2257781E+004  0.1043930E+01  0.7957747E-01            NaN
         13   -1    0    0    0    0  0.00000000000E+00  0.00000000000E+00  0.74505805969E-08  0.10566000000E+00  0.10566000000E+00 0. -1.
     999900   -1    0    0    0    0 -0.00000000000E+00 -0.00000000000E+00 -0.74505805969E-08  0.93827000000E+00  0.93827000000E+00 0.  1.
     999902    2    1    2    0    0  0.13292745357E-01 -0.20289241810E-02  0.14958003694E-02  0.10304003647E+01  0.10303115357E+01 0.  0.
     999903    2    3    3    0    0 -0.99752581615E-01 -0.66641702980E-01 -0.52570360116E-01  0.13917805414E+00  0.47065846188E-01 0.  0.
         14    1    1    2    0    0 -0.13292745357E-01  0.20289241810E-02 -0.14958003694E-02  0.13529635295E-01  0.00000000000E+00 0. -1.
     999901    1    3    3    0    0  0.11304532697E+00  0.64612778799E-01  0.54066160485E-01  0.89122231056E+00  0.88000000000E+00 0.  1.
        -11    1    4    4    0    0 -0.30911240857E-01 -0.48126212672E-01 -0.18128774144E-01  0.60004589245E-01  0.51100000000E-03 0. -1.
         11    1    4    4    0    0 -0.68841340758E-01 -0.18515490307E-01 -0.34441585972E-01  0.79173464898E-01  0.51100000000E-03 0.  1.
</event>
<event>
 8    1  0.2257781E+004  0.1043930E+01  0.7957747E-01            NaN
         13   -1    0    0    0    0  0.00000000000E+00  0.00000000000E+00  0.74505805969E-08  0.10566000000E+00  0.10566000000E+00 0. -1.
     999900   -1    0    0    0    0 -0.00000000000E+00 -0.00000000000E+00 -0.74505805969E-08  0.93827000000E+00  0.93827000000E+00 0. -1.
     999902    2    1    2    0    0  0.26220399023E-02 -0.14146108199E-01 -0.11990433274E-02  0.10294930621E+01  0.10293918301E+01 0.  0.
     999903    2    3    3    0    0 -0.74646307092E-01  0.79063424058E-01 -0.72734432144E-01  0.13832768678E+00  0.44957258867E-01 0.  0.
         14    1    1    2    0    0 -0.26220399023E-02  0.14146108199E-01  0.11990433274E-02  0.14436937879E-01  0.00000000000E+00 0.  1.
     999901    1    3    3    0    0  0.77268346995E-01 -0.93209532256E-01  0.71535388816E-01  0.89116537534E+00  0.88000000000E+00 0.  1.
        -11    1    4    4    0    0 -0.61101441621E-01  0.55617589684E-01 -0.30336659748E-01  0.88018614486E-01  0.51100000000E-03 0. -1.
         11    1    4    4    0    0 -0.13544865472E-01  0.23445834374E-01 -0.42397772395E-01  0.50309072295E-01  0.51100000000E-03 0.  1.
</event>
<event>
 8    1  0.2257781E+004  0.1043930E+01  0.7957747E-01            NaN
         13   -1    0    0    0    0  0.00000000000E+00  0.00000000000E+00  0.74505805969E-08  0.10566000000E+00  0.10566000000E+00 0. -1.
     999900   -1    0    0    0    0 -0.00000000000E+00 -0.00000000000E+00 -0.74505805969E-08  0.93827000000E+00  0.93827000000E+00 0. -1.
     999902    2    1    2    0    0  0.70668923797E-03  0.13354262787E-01  0.49909503932E-02  0.10296560612E+01  0.10295571179E+01 0.  0.
     999903    2    3    3    0    0 -0.59365350928E-01 -0.37475151542E-01  0.11298394113E+00  0.13956911854E+00  0.42255603441E-01 0.  0.
         14    1    1    2    0    0 -0.70668923797E-03 -0.13354262787E-01 -0.49909503932E-02  0.14273938843E-01  0.00000000000E+00 0.  1.
     999901    1    3    3    0    0  0.60072040166E-01  0.50829414329E-01 -0.10799299074E+00  0.89008694262E+00  0.88000000000E+00 0. -1.
        -11    1    4    4    0    0 -0.11098297190E-01 -0.10119178191E-01  0.63407164784E-01  0.65163637366E-01  0.51100000000E-03 0. -1.
         11    1    4    4    0    0 -0.48267053739E-01 -0.27355973350E-01  0.49576776347E-01  0.74405481173E-01  0.51100000000E-03 0.  1.
</event>
<event>
 8    1  0.2257781E+004  0.1043930E+01  0.7957747E-01            NaN
         13   -1    0    0    0    0  0.00000000000E+00  0.00000000000E+00  0.74505805969E-08  0.10566000000E+00  0.10566000000E+00 0.  1.
     999900   -1    0    0    0    0 -0.00000000000E+00 -0.00000000000E+00 -0.74505805969E-08  0.93827000000E+00  0.93827000000E+00 0.  1.
     999902    2    1    2    0    0  0.82158215206E-02  0.44139334713E-02 -0.87685604408E-02  0.10311288210E+01  0.10310493564E+01 0.  0.
     999903    2    3    3    0    0 -0.26044854518E-01 -0.96170750254E-01 -0.89355714374E-01  0.14108086615E+00  0.44634285610E-01 0.  0.
         14    1    1    2    0    0 -0.82158215206E-02 -0.44139334713E-02  0.87685604408E-02  0.12801179014E-01  0.00000000000E+00 0.  1.
     999901    1    3    3    0    0  0.34260676039E-01  0.10058468373E+00  0.80587153934E-01  0.89004795483E+00  0.88000000000E+00 0. -1.
        -11    1    4    4    0    0 -0.28381723802E-01 -0.36043378431E-01 -0.22391478054E-01  0.51051804915E-01  0.51100000000E-03 0.  1.
         11    1    4    4    0    0  0.23368692833E-02 -0.60127371823E-01 -0.66964236321E-01  0.90029061238E-01  0.51100000000E-03 0. -1.
</event>
<event>
 8    1  0.2257781E+004  0.1043930E+01  0.7957747E-01            NaN
         13   -1    0    0    0    0  0.00000000000E+00  0.00000000000E+00  0.74505805969E-08  0.10566000000E+00  0.10566000000E+00 0. -1.
     999900   -1    0    0    0    0 -0.00000000000E+00 -0.00000000000E+00 -0.74505805969E-08  0.93827000000E+00  0.93827000000E+00 0. -1.
     999902    2    1    2    0    0  0.20505617625E-02  0.13902424405E-02  0.53799682864E-02  0.10380070247E+01  0.10379901260E+01 0.  0.
     999903    2    3    3    0    0  0.11287963062E+00  0.69311168102E-01  0.46255562765E-01  0.14751999568E+00  0.45571076416E-01 0.  0.
         14    1    1    2    0    0 -0.20505617625E-02 -0.13902424405E-02 -0.53799682864E-02  0.59229752952E-02  0.00000000000E+00 0.  1.
     999901    1    3    3    0    0 -0.11082906885E+00 -0.67920925662E-01 -0.40875594478E-01  0.89048702903E+00  0.88000000000E+00 0. -1.
        -11    1    4    4    0    0  0.37782325676E-01  0.47939626113E-01  0.11781291474E-01  0.62167289108E-01  0.51100000000E-03 0.  1.
         11    1    4    4    0    0  0.75097304940E-01  0.21371541990E-01  0.34474271291E-01  0.85352706567E-01  0.51100000000E-03 0. -1.
</event>
<event>
 8    1  0.2257781E+004  0.1043930E+01  0.7957747E-01            NaN
         13   -1    0    0    0    0  0.00000000000E+00  0.00000000000E+00  0.74505805969E-08  0.10566000000E+00  0.10566000000E+00 0.  1.
     999900   -1    0    0    0    0 -0.00000000000E+00 -0.00000000000E+00 -0.74505805969E-08  0.93827000000E+00  0.93827000000E+00 0.  1.
     999902    2    1    2    0    0  0.41895294284E-02  0.93617133248E-02  0.94791629855E-02  0.10299640284E+01  0.10298693370E+01 0.  0.
     999903    2    3    3    0    0  0.72370459930E-01  0.27135835615E-01  0.10912978733E+00  0.14154137801E+00  0.46376870978E-01 0.  0.
         14    1    1    2    0    0 -0.41895294284E-02 -0.93617133248E-02 -0.94791629855E-02  0.13965971649E-01  0.00000000000E+00 0. -1.
     999901    1    3    3    0    0 -0.68180930501E-01 -0.17774122290E-01 -0.99650624342E-01  0.88842265034E+00  0.88000000000E+00 0.  1.
        -11    1    4    4    0    0  0.46286161009E-01  0.90775239266E-02  0.29034252734E-01  0.55390063138E-01  0.51100000000E-03 0. -1.
         11    1    4    4    0    0  0.26084298920E-01  0.18058311689E-01  0.80095534594E-01  0.86151314872E-01  0.51100000000E-03 0.  1.
</event>
<event>
 8    1  0.2257781E+004  0.1043930E+01  0.7957747E-01            NaN
         13   -1    0    0    0    0  0.00000000000E+00  0.00000000000E+00  0.74505805969E-08  0.10566000000E+00  0.10566000000E+00 0.  1.
     999900   -1    0    0    0    0 -0.00000000000E+00 -0.00000000000E+00 -0.74505805969E-08  0.93827000000E+00  0.93827000000E+00 0.  1.
     999902    2    1    2    0    0 -0.12709327079E-01 -0.13269815952E-02  0.40246384732E-02  0.10305327768E+01  0.10304456892E+01 0.  0.
     999903    2    3    3    0    0 -0.93398819189E-01 -0.93660480498E-01 -0.23666835825E-01  0.14159909709E+00  0.44660498711E-01 0.  0.
         14    1    1    2    0    0  0.12709327079E-01  0.13269815952E-02 -0.40246384732E-02  0.13397223213E-01  0.00000000000E+00 0. -1.
     999901    1    3    3    0    0  0.80689492109E-01  0.92333498902E-01  0.27691474298E-01  0.88893367970E+00  0.88000000000E+00 0.  1.
        -11    1    4    4    0    0 -0.44855012726E-01 -0.69816039101E-01 -0.10959986213E-02  0.82992251545E-01  0.51100000000E-03 0.  1.
         11    1    4    4    0    0 -0.48543806463E-01 -0.23844441396E-01 -0.22570837204E-01  0.58606845543E-01  0.51100000000E-03 0. -1.
</event>
<event>
 8    1  0.2257781E+004  0.1043930E+01  0.7957747E-01            NaN
         13   -1    0    0    0    0  0.00000000000E+00  0.00000000000E+00  0.74505805969E-08  0.10566000000E+00  0.10566000000E+00 0. -1.
     999900   -1    0    0    0    0 -0.00000000000E+00 -0.00000000000E+00 -0.74505805969E-08  0.93827000000E+00  0.93827000000E+00 0. -1.
     999902    2    1    2    0    0 -0.85327074048E-02  0.45253828756E-02 -0.10093995107E-01  0.10299594981E+01  0.10298647449E+01 0.  0.
     999903    2    3    3    0    0 -0.11282067977E+00  0.68887989000E-01  0.20293183670E-01  0.14094773954E+00  0.44501586097E-01 0.  0.
         14    1    1    2    0    0  0.85327074048E-02 -0.45253828756E-02  0.10093995107E-01  0.13970501889E-01  0.00000000000E+00 0. -1.
     999901    1    3    3    0    0  0.10428797236E+00 -0.64362606124E-01 -0.30387178777E-01  0.88901175857E+00  0.88000000000E+00 0.  1.
        -11    1    4    4    0    0 -0.46376713262E-01  0.33906742989E-01 -0.12843080046E-01  0.58869963302E-01  0.51100000000E-03 0.  1.
         11    1    4    4    0    0 -0.66443966507E-01  0.34981246011E-01  0.33136263716E-01  0.82077776235E-01  0.51100000000E-03 0. -1.
</event>
<event>
 8    1  0.2257781E+004  0.1043930E+01  0.7957747E-01            NaN
         13   -1    0    0    0    0  0.00000000000E+00  0.00000000000E+00  0.74505805969E-08  0.10566000000E+00  0.10566000000E+00 0. -1.
     999900   -1    0    0    0    0 -0.00000000000E+00 -0.00000000000E+00 -0.74505805969E-08  0.93827000000E+00  0.93827000000E+00 0.  1.
     999902    2    1    2    0    0 -0.22087829096E-02 -0.27018716704E-02 -0.13308654999E-01  0.10301713980E+01  0.10300795164E+01 0.  0.
     999903    2    3    3    0    0 -0.66429048815E-01  0.11384787972E+00  0.13583218722E-01  0.13976067251E+00  0.44434035465E-01 0.  0.
         14    1    1    2    0    0  0.22087829096E-02  0.27018716704E-02  0.13308654999E-01  0.13758602049E-01  0.00000000000E+00 0. -1.
     999901    1    3    3    0    0  0.64220265905E-01 -0.11654975139E+00 -0.26891873721E-01  0.89041072544E+00  0.88000000000E+00 0.  1.
        -11    1    4    4    0    0 -0.48755894156E-01  0.61811292336E-01  0.26927984589E-01  0.83205471877E-01  0.51100000000E-03 0.  1.
         11    1    4    4    0    0 -0.17673154659E-01  0.52036587383E-01 -0.13344765867E-01  0.56555200637E-01  0.51100000000E-03 0. -1.
</event>
<event>
 8    1  0.2257781E+004  0.1043930E+01  0.7957747E-01            NaN
         13   -1    0    0    0    0  0.00000000000E+00  0.00000000000E+00  0.74505805969E-08  0.10566000000E+00  0.10566000000E+00 0. -1.
     999900   -1    0    0    0    0 -0.00000000000E+00 -0.00000000000E+00 -0.74505805969E-08  0.93827000000E+00  0.93827000000E+00 0. -1.
     999902    2    1    2    0    0  0.18660482402E-02 -0.12207132223E-01  0.10653340797E-02  0.10315351967E+01  0.10314607267E+01 0.  0.
     999903    2    3    3    0    0  0.78244903692E-01 -0.10672403880E+00  0.29839324151E-01  0.14271850144E+00  0.44338470633E-01 0.  0.
         14    1    1    2    0    0 -0.18660482402E-02  0.12207132223E-01 -0.10653340797E-02  0.12394803340E-01  0.00000000000E+00 0. -1.
     999901    1    3    3    0    0 -0.76378855452E-01  0.94516906573E-01 -0.28773990071E-01  0.88881669521E+00  0.88000000000E+00 0.  1.
        -11    1    4    4    0    0  0.28689359332E-01 -0.43766272253E-01 -0.99315944084E-02  0.53267847847E-01  0.51100000000E-03 0.  1.
         11    1    4    4    0    0  0.49555544360E-01 -0.62957766543E-01  0.39770918559E-01  0.89450653597E-01  0.51100000000E-03 0. -1.
</event>
<event>
 8    1  0.2257781E+004  0.1043930E+01  0.7957747E-01            NaN
         13   -1    0    0    0    0  0.00000000000E+00  0.00000000000E+00  0.74505805969E-08  0.10566000000E+00  0.10566000000E+00 0.  1.
     999900   -1    0    0    0    0 -0.00000000000E+00 -0.00000000000E+00 -0.74505805969E-08  0.93827000000E+00  0.93827000000E+00 0.  1.
     999902    2    1    2    0    0 -0.17384501203E-02  0.70054249303E-02 -0.86322030705E-02  0.10326777506E+01  0.10326164455E+01 0.  0.
     999903    2    3    3    0    0  0.20616794538E-02 -0.10457589649E+00 -0.85883372745E-01  0.14226628642E+00  0.43856286767E-01 0.  0.
         14    1    1    2    0    0  0.17384501203E-02 -0.70054249303E-02  0.86322030705E-02  0.11252249425E-01  0.00000000000E+00 0.  1.
     999901    1    3    3    0    0 -0.38001295741E-02  0.11158132142E+00  0.77251169674E-01  0.89041146415E+00  0.88000000000E+00 0.  1.
        -11    1    4    4    0    0  0.21649820614E-01 -0.72727362133E-01 -0.54152601926E-01  0.93224188663E-01  0.51100000000E-03 0. -1.
         11    1    4    4    0    0 -0.19588141160E-01 -0.31848534361E-01 -0.31730770819E-01  0.49042097761E-01  0.51100000000E-03 0.  1.
</event>
<event>
 8    1  0.2257781E+004  0.1043930E+01  0.7957747E-01            NaN
         13   -1    0    0    0    0  0.00000000000E+00  0.00000000000E+00  0.74505805969E-08  0.10566000000E+00  0.10566000000E+00 0.  1.
     999900   -1    0    0    0    0 -0.00000000000E+00 -0.00000000000E+00 -0.74505805969E-08  0.93827000000E+00  0.93827000000E+00 0. -1.
     999902    2    1    2    0    0  0.11538119672E-01  0.56080991943E-03 -0.84066808241E-02  0.10296431181E+01  0.10295439940E+01 0.  0.
     999903    2    3    3    0    0  0.10455110243E+00  0.70584977854E-01  0.42230941010E-01  0.14053178205E+00  0.45305157224E-01 0.  0.
         14    1    1    2    0    0 -0.11538119672E-01 -0.56080991943E-03  0.84066808241E-02  0.14286881949E-01  0.00000000000E+00 0.  1.
     999901    1    3    3    0    0 -0.93012982755E-01 -0.70024167935E-01 -0.50637621835E-01  0.88911133600E+00  0.88000000000E+00 0. -1.
        -11    1    4    4    0    0  0.49894209247E-01  0.60385053997E-01  0.27375096266E-01  0.82978574820E-01  0.51100000000E-03 0. -1.
         11    1    4    4    0    0  0.54656893180E-01  0.10199923858E-01  0.14855844744E-01  0.57553207233E-01  0.51100000000E-03 0.  1.
</event>
<event>
 8    1  0.2257781E+004  0.1043930E+01  0.7957747E-01            NaN
         13   -1    0    0    0    0  0.00000000000E+00  0.00000000000E+00  0.74505805969E-08  0.10566000000E+00  0.10566000000E+00 0.  1.
     999900   -1    0    0    0    0 -0.00000000000E+00 -0.00000000000E+00 -0.74505805969E-08  0.93827000000E+00  0.93827000000E+00 0.  1.
     999902    2    1    2    0    0  0.28174979618E-02  0.98230093166E-02 -0.60879192226E-02  0.10320349352E+01  0.10319663826E+01 0.  0.
     999903    2    3    3    0    0 -0.49295400501E-01 -0.27558823196E-01  0.12158835156E+00  0.14051130357E+00  0.42073435175E-01 0.  0.
         14    1    1    2    0    0 -0.28174979618E-02 -0.98230093166E-02  0.60879192226E-02  0.11895064828E-01  0.00000000000E+00 0.  1.
     999901    1    3    3    0    0  0.52112898463E-01  0.37381832513E-01 -0.12767627079E+00  0.89152363161E+00  0.88000000000E+00 0.  1.
        -11    1    4    4    0    0 -0.30657949318E-01 -0.20479109312E-02  0.27427623801E-01  0.41190283611E-01  0.51100000000E-03 0.  1.
         11    1    4    4    0    0 -0.18637451183E-01 -0.25510912265E-01  0.94160727763E-01  0.99321019956E-01  0.51100000000E-03 0. -1.
</event>
<event>
 8    1  0.2257781E+004  0.1043930E+01  0.7957747E-01            NaN
         13   -1    0    0    0    0  0.00000000000E+00  0.00000000000E+00  0.74505805969E-08  0.10566000000E+00  0.10566000000E+00 0.  1.
     999900   -1    0    0    0    0 -0.00000000000E+00 -0.00000000000E+00 -0.74505805969E-08  0.93827000000E+00  0.93827000000E+00 0. -1.
     999902    2    1    2    0    0 -0.49325227421E-02 -0.10548828036E-02  0.12901615033E-01  0.10300774108E+01  0.10299842610E+01 0.  0.
     999903    2    3    3    0    0  0.75267441612E-01  0.96969756126E-01 -0.44981787700E-01  0.13912771945E+00  0.47590332268E-01 0.  0.
         14    1    1    2    0    0  0.49325227421E-02  0.10548828036E-02 -0.12901615033E-01  0.13852589245E-01  0.00000000000E+00 0. -1.
     999901    1    3    3    0    0 -0.80199964354E-01 -0.98024638929E-01  0.57883402733E-01  0.89094969130E+00  0.88000000000E+00 0.  1.
        -11    1    4    4    0    0  0.33593617919E-01  0.75453219199E-01 -0.40558625857E-01  0.92016208924E-01  0.51100000000E-03 0. -1.
         11    1    4    4    0    0  0.41673823693E-01  0.21516536926E-01 -0.44231618428E-02  0.47111510528E-01  0.51100000000E-03 0.  1.
</event>
<event>
 8    1  0.2257781E+004  0.1043930E+01  0.7957747E-01            NaN
         13   -1    0    0    0    0  0.00000000000E+00  0.00000000000E+00  0.74505805969E-08  0.10566000000E+00  0.10566000000E+00 0.  1.
     999900   -1    0    0    0    0 -0.00000000000E+00 -0.00000000000E+00 -0.74505805969E-08  0.93827000000E+00  0.93827000000E+00 0.  1.
     999902    2    1    2    0    0  0.46185140387E-03 -0.84976294766E-02 -0.92448802347E-02  0.10313645384E+01  0.10312879910E+01 0.  0.
     999903    2    3    3    0    0 -0.90701217955E-01 -0.92376079720E-02 -0.99189002611E-01  0.14209450188E+00  0.45170176962E-01 0.  0.
         14    1    1    2    0    0 -0.46185140387E-03  0.84976294766E-02  0.92448802347E-02  0.12565461551E-01  0.00000000000E+00 0.  1.
     999901    1    3    3    0    0  0.91163069359E-01  0.73997849540E-03  0.89944122377E-01  0.88927003657E+00  0.88000000000E+00 0. -1.
        -11    1    4    4    0    0 -0.63055941043E-01 -0.52829473578E-02 -0.94563691971E-01  0.11378274998E+00  0.51100000000E-03 0.  1.
         11    1    4    4    0    0 -0.27645276913E-01 -0.39546606141E-02 -0.46253106407E-02  0.28311751900E-01  0.51100000000E-03 0. -1.
</event>
<event>
 8    1  0.2257781E+004  0.1043930E+01  0.7957747E-01            NaN
         13   -1    0    0    0    0  0.00000000000E+00  0.00000000000E+00  0.74505805969E-08  0.10566000000E+00  0.10566000000E+00 0.  1.
     999900   -1    0    0    0    0 -0.00000000000E+00 -0.00000000000E+00 -0.74505805969E-08  0.93827000000E+00  0.93827000000E+00 0.  1.
     999902    2    1    2    0    0  0.18440061268E-02 -0.59187371494E-02 -0.12315038752E-01  0.10301426149E+01  0.10300503459E+01 0.  0.
     999903    2    3    3    0    0  0.86527382026E-02  0.90556169516E-01 -0.97358314366E-01  0.14076860744E+00  0.45407815933E-01 0.  0.
         14    1    1    2    0    0 -0.18440061268E-02  0.59187371494E-02  0.12315038752E-01  0.13787385086E-01  0.00000000000E+00 0.  1.
     999901    1    3    3    0    0 -0.68087320758E-02 -0.96474906665E-01  0.85043275614E-01  0.88937400748E+00  0.88000000000E+00 0. -1.
        -11    1    4    4    0    0  0.16308525444E-01  0.61148313548E-01 -0.37309436264E-01  0.73466587012E-01  0.51100000000E-03 0.  1.
         11    1    4    4    0    0 -0.76557872410E-02  0.29407855968E-01 -0.60048878102E-01  0.67302020425E-01  0.51100000000E-03 0. -1.
</event>
<event>
 8    1  0.2257781E+004  0.1043930E+01  0.7957747E-01            NaN
         13   -1    0    0    0    0  0.00000000000E+00  0.00000000000E+00  0.74505805969E-08  0.10566000000E+00  0.10566000000E+00 0.  1.
     999900   -1    0    0    0    0 -0.00000000000E+00 -0.00000000000E+00 -0.74505805969E-08  0.93827000000E+00  0.93827000000E+00 0. -1.
     999902    2    1    2    0    0  0.14491317977E-02  0.60562173749E-02  0.11655103390E-01  0.10307156447E+01  0.10306309334E+01 0.  0.
     999903    2    3    3    0    0  0.11417222649E+00  0.22464205183E-01  0.65887191750E-01  0.14171798576E+00  0.46935355906E-01 0.  0.
         14    1    1    2    0    0 -0.14491317977E-02 -0.60562173749E-02 -0.11655103390E-01  0.13214355334E-01  0.00000000000E+00 0.  1.
     999901    1    3    3    0    0 -0.11272309469E+00 -0.16407987808E-01 -0.54232088360E-01  0.88899765891E+00  0.88000000000E+00 0. -1.
        -11    1    4    4    0    0  0.81655420914E-01  0.88756604180E-02  0.67676162319E-01  0.10642701339E+00  0.51100000000E-03 0.  1.
         11    1    4    4    0    0  0.32516805574E-01  0.13588544765E-01 -0.17889705689E-02  0.35290972362E-01  0.51100000000E-03 0. -1.
</event>
<event>
 8    1  0.2257781E+004  0.1043930E+01  0.7957747E-01            NaN
         13   -1    0    0    0    0  0.00000000000E+00  0.00000000000E+00  0.74505805969E-08  0.10566000000E+00  0.10566000000E+00 0.  1.
     999900   -1    0    0    0    0 -0.00000000000E+00 -0.00000000000E+00 -0.74505805969E-08  0.93827000000E+00  0.93827000000E+00 0. -1.
     999902    2    1    2    0    0 -0.26763260358E-02 -0.95709021867E-02  0.11029824304E-01  0.10290833871E+01  0.10289762853E+01 0.  0.
     999903    2    3    3    0    0 -0.50173228292E-01 -0.11417756623E+00  0.33646581310E-01  0.14132777459E+00  0.57337404633E-01 0.  0.
         14    1    1    2    0    0  0.26763260358E-02  0.95709021867E-02 -0.11029824304E-01  0.14846612876E-01  0.00000000000E+00 0. -1.
     999901    1    3    3    0    0  0.47496902256E-01  0.10460666404E+00 -0.22616757005E-01  0.88775561253E+00  0.88000000000E+00 0.  1.
        -11    1    4    4    0    0 -0.48961862325E-01 -0.99806446649E-01  0.74505548128E-02  0.11141975876E+00  0.51100000000E-03 0.  1.
         11    1    4    4    0    0 -0.12113659664E-02 -0.14371119579E-01  0.26196026497E-01  0.29908015827E-01  0.51100000000E-03 0. -1.
</event>
<event>
 8    1  0.2257781E+004  0.1043930E+01  0.7957747E-01            NaN
         13   -1    0    0    0    0  0.00000000000E+00  0.00000000000E+00  0.74505805969E-08  0.10566000000E+00  0.10566000000E+00 0. -1.
     999900   -1    0    0    0    0 -0.00000000000E+00 -0.00000000000E+00 -0.74505805969E-08  0.93827000000E+00  0.93827000000E+00 0. -1.
     999902    2    1    2    0    0  0.96332536206E-02  0.60302524487E-02  0.74985837086E-02  0.10303141167E+01  0.10302241440E+01 0.  0.
     999903    2    3    3    0    0 -0.10246120336E+00  0.48651389483E-01 -0.66088142094E-01  0.13913695430E+00  0.46110667246E-01 0.  0.
         14    1    1    2    0    0 -0.96332536206E-02 -0.60302524487E-02 -0.74985837086E-02  0.13615883282E-01  0.00000000000E+00 0. -1.
     999901    1    3    3    0    0  0.11209445698E+00 -0.42621137034E-01  0.73586725803E-01  0.89117716242E+00  0.88000000000E+00 0.  1.
        -11    1    4    4    0    0 -0.54223827079E-01  0.46668386299E-01 -0.25145748113E-01  0.75833577470E-01  0.51100000000E-03 0.  1.
         11    1    4    4    0    0 -0.48237376277E-01  0.19830031840E-02 -0.40942393981E-01  0.63303376826E-01  0.51100000000E-03 0. -1.
</event>
<event>
 8    1  0.2257781E+004  0.1043930E+01  0.7957747E-01            NaN
         13   -1    0    0    0    0  0.00000000000E+00  0.00000000000E+00  0.74505805969E-08  0.10566000000E+00  0.10566000000E+00 0. -1.
     999900   -1    0    0    0    0 -0.00000000000E+00 -0.00000000000E+00 -0.74505805969E-08  0.93827000000E+00  0.93827000000E+00 0.  1.
     999902    2    1    2    0    0 -0.40405751698E-02  0.67163242890E-02 -0.12350740574E-01  0.10293020797E+01  0.10291981321E+01 0.  0.
     999903    2    3    3    0    0 -0.80936532381E-01 -0.10265675274E+00  0.11732587221E-01  0.13887776237E+00  0.45389956172E-01 0.  0.
         14    1    1    2    0    0  0.40405751698E-02 -0.67163242890E-02  0.12350740574E-01  0.14627920303E-01  0.00000000000E+00 0. -1.
     999901    1    3    3    0    0  0.76895957212E-01  0.10937307702E+00 -0.24083327795E-01  0.89042431733E+00  0.88000000000E+00 0. -1.
        -11    1    4    4    0    0 -0.41971869875E-01 -0.31804775872E-01  0.22565379645E-01  0.57294320038E-01  0.51100000000E-03 0. -1.
         11    1    4    4    0    0 -0.38964662507E-01 -0.70851976864E-01 -0.10832792424E-01  0.81583442330E-01  0.51100000000E-03 0.  1.
</event>
<event>
 8    1  0.2257781E+004  0.1043930E+01  0.7957747E-01            NaN
         13   -1    0    0    0    0  0.00000000000E+00  0.00000000000E+00  0.74505805969E-08  0.10566000000E+00  0.10566000000E+00 0.  1.
     999900   -1    0    0    0    0 -0.00000000000E+00 -0.00000000000E+00 -0.74505805969E-08  0.93827000000E+00  0.93827000000E+00 0. -1.
     999902    2    1    2    0    0 -0.14864067837E-01 -0.14628621577E-02  0.50172953083E-03  0.10289856964E+01  0.10288771701E+01 0.  0.
     999903    2    3    3    0    0 -0.12221448423E+00 -0.52216051242E-01 -0.14315897632E-01  0.14088685042E+00  0.44511386566E-01 0.  0.
         14    1    1    2    0    0  0.14864067837E-01  0.14628621577E-02 -0.50172953083E-03  0.14944303626E-01  0.00000000000E+00 0. -1.
     999901    1    3    3    0    0  0.10735041639E+00  0.50753189084E-01  0.14817627162E-01  0.88809884595E+00  0.88000000000E+00 0. -1.
        -11    1    4    4    0    0 -0.64444075755E-01 -0.30989202599E-01  0.14438131034E-01  0.72952658117E-01  0.51100000000E-03 0.  1.
         11    1    4    4    0    0 -0.57770408477E-01 -0.21226848643E-01 -0.28754028665E-01  0.67934192307E-01  0.51100000000E-03 0. -1.
</event>
<event>
 8    1  0.2257781E+004  0.1043930E+01  0.7957747E-01            NaN
         13   -1    0    0    0    0  0.00000000000E+00  0.00000000000E+00  0.74505805969E-08  0.10566000000E+00  0.10566000000E+00 0. -1.
     999900   -1    0    0    0    0 -0.00000000000E+00 -0.00000000000E+00 -0.74505805969E-08  0.93827000000E+00  0.93827000000E+00 0. -1.
     999902    2    1    2    0    0 -0.95473317284E-02  0.19104435035E-02 -0.10324513374E-01  0.10297385620E+01  0.10296407670E+01 0.  0.
     999903    2    3    3    0    0  0.48376351347E-01  0.12055950912E+00  0.22668230397E-01  0.13927729105E+00  0.44826872791E-01 0.  0.
         14    1    1    2    0    0  0.95473317284E-02 -0.19104435035E-02  0.10324513374E-01  0.14191438050E-01  0.00000000000E+00 0. -1.
     999901    1    3    3    0    0 -0.57923683075E-01 -0.11864906561E+00 -0.32992743771E-01  0.89046127090E+00  0.88000000000E+00 0. -1.
        -11    1    4    4    0    0  0.47872090006E-01  0.62146507476E-01  0.67985305338E-02  0.78742660175E-01  0.51100000000E-03 0.  1.
         11    1    4    4    0    0  0.50426134104E-03  0.58413001643E-01  0.15869699863E-01  0.60534630875E-01  0.51100000000E-03 0. -1.
</event>
<event>
 8    1  0.2257781E+004  0.1043930E+01  0.7957747E-01            NaN
         13   -1    0    0    0    0  0.00000000000E+00  0.00000000000E+00  0.74505805969E-08  0.10566000000E+00  0.10566000000E+00 0.  1.
     999900   -1    0    0    0    0 -0.00000000000E+00 -0.00000000000E+00 -0.74505805969E-08  0.93827000000E+00  0.93827000000E+00 0. -1.
     999902    2    1    2    0    0 -0.35577392297E-02 -0.23144290718E-01  0.42641064876E-02  0.10201287751E+01  0.10198510771E+01 0.  0.
     999903    2    3    3    0    0 -0.78341765217E-01 -0.84288865281E-01  0.50778374497E-01  0.13362164788E+00  0.45102732475E-01 0.  0.
         14    1    1    2    0    0  0.35577392297E-02  0.23144290718E-01 -0.42641064876E-02  0.23801224872E-01  0.00000000000E+00 0. -1.
     999901    1    3    3    0    0  0.74784025987E-01  0.61144574563E-01 -0.46514268010E-01  0.88650712725E+00  0.88000000000E+00 0. -1.
        -11    1    4    4    0    0 -0.39551003831E-01 -0.72573075945E-01  0.28836985638E-01  0.87538369403E-01  0.51100000000E-03 0.  1.
         11    1    4    4    0    0 -0.38790761386E-01 -0.11715789337E-01  0.21941388859E-01  0.46083278472E-01  0.51100000000E-03 0. -1.
</event>
<event>
 8    1  0.2257781E+004  0.1043930E+01  0.7957747E-01            NaN
         13   -1    0    0    0    0  0.00000000000E+00  0.00000000000E+00  0.74505805969E-08  0.10566000000E+00  0.10566000000E+00 0. -1.
     999900   -1    0    0    0    0 -0.00000000000E+00 -0.00000000000E+00 -0.74505805969E-08  0.93827000000E+00  0.93827000000E+00 0. -1.
     999902    2    1    2    0    0  0.12999223738E-01  0.49473230415E-02 -0.14120814990E-03  0.10300204435E+01  0.10299265208E+01 0.  0.
     999903    2    3    3    0    0 -0.11956542940E+00  0.44187606509E-01  0.31346973974E-01  0.13867051627E+00  0.44703946457E-01 0.  0.
         14    1    1    2    0    0 -0.12999223738E-01 -0.49473230415E-02  0.14120814990E-03  0.13909556528E-01  0.00000000000E+00 0.  1.
     999901    1    3    3    0    0  0.13256465314E+00 -0.39240283468E-01 -0.31488182124E-01  0.89134992720E+00  0.88000000000E+00 0. -1.
        -11    1    4    4    0    0 -0.63020645174E-01  0.46207752405E-01  0.23096087866E-01  0.81488947080E-01  0.51100000000E-03 0.  1.
         11    1    4    4    0    0 -0.56544784226E-01 -0.20201458952E-02  0.82508861087E-02  0.57181569191E-01  0.51100000000E-03 0. -1.
</event>
<event>
 8    1  0.2257781E+004  0.1043930E+01  0.7957747E-01            NaN
         13   -1    0    0    0    0  0.00000000000E+00  0.00000000000E+00  0.74505805969E-08  0.10566000000E+00  0.10566000000E+00 0.  1.
     999900   -1    0    0    0    0 -0.00000000000E+00 -0.00000000000E+00 -0.74505805969E-08  0.93827000000E+00  0.93827000000E+00 0.  1.
     999902    2    1    2    0    0 -0.66937523969E-02  0.12329183148E-01  0.12608883680E-02  0.10298443719E+01  0.10297480398E+01 0.  0.
     999903    2    3    3    0    0  0.11181724615E+00 -0.68152689117E-01 -0.49899385323E-02  0.13823837074E+00  0.44012067540E-01 0.  0.
         14    1    1    2    0    0  0.66937523969E-02 -0.12329183148E-01 -0.12608883680E-02  0.14085628055E-01  0.00000000000E+00 0. -1.
     999901    1    3    3    0    0 -0.11851099855E+00  0.80481872265E-01  0.62508269003E-02  0.89160600120E+00  0.88000000000E+00 0. -1.
        -11    1    4    4    0    0  0.81973490082E-01 -0.27436675448E-01  0.57069264495E-02  0.86632871166E-01  0.51100000000E-03 0. -1.
         11    1    4    4    0    0  0.29843756067E-01 -0.40716013669E-01 -0.10696864982E-01  0.51605499578E-01  0.51100000000E-03 0.  1.
</event>
<event>
 8    1  0.2257781E+004  0.1043930E+01  0.7957747E-01            NaN
         13   -1    0    0    0    0  0.00000000000E+00  0.00000000000E+00  0.74505805969E-08  0.10566000000E+00  0.10566000000E+00 0.  1.
     999900   -1    0    0    0    0 -0.00000000000E+00 -0.00000000000E+00 -0.74505805969E-08  0.93827000000E+00  0.93827000000E+00 0.  1.
     999902    2    1    2    0    0  0.92983444428E-02 -0.76077694805E-02 -0.14138499368E-03  0.10319151194E+01  0.10318451707E+01 0.  0.
     999903    2    3    3    0    0 -0.97685843370E-01  0.79128099327E-01  0.42765465160E-01  0.14016979413E+00  0.44887705185E-01 0.  0.
         14    1    1    2    0    0 -0.92983444428E-02  0.76077694805E-02  0.14138499368E-03  0.12014880589E-01  0.00000000000E+00 0.  1.
     999901    1    3    3    0    0  0.10698418781E+00 -0.86735868807E-01 -0.42906850154E-01  0.89174532529E+00  0.88000000000E+00 0.  1.
        -11    1    4    4    0    0 -0.24141787082E-01  0.46191807783E-01  0.24241499666E-01  0.57484088380E-01  0.51100000000E-03 0. -1.
         11    1    4    4    0    0 -0.73544056288E-01  0.32936291543E-01  0.18523965494E-01  0.82685705745E-01  0.51100000000E-03 0.  1.
</event>
<event>
 8    1  0.2257781E+004  0.1043930E+01  0.7957747E-01            NaN
         13   -1    0    0    0    0  0.00000000000E+00  0.00000000000E+00  0.74505805969E-08  0.10566000000E+00  0.10566000000E+00 0.  1.
     999900   -1    0    0    0    0 -0.00000000000E+00 -0.00000000000E+00 -0.74505805969E-08  0.93827000000E+00  0.93827000000E+00 0.  1.
     999902    2    1    2    0    0 -0.68438544325E-02 -0.11846383946E-01 -0.30851548648E-02  0.10299052598E+01  0.10298097644E+01 0.  0.
     999903    2    3    3    0    0  0.75335380591E-01 -0.99201927667E-01 -0.47947888127E-01  0.14063753720E+00  0.44311114546E-01 0.  0.
         14    1    1    2    0    0  0.68438544325E-02  0.11846383946E-01  0.30851548648E-02  0.14024740162E-01  0.00000000000E+00 0.  1.
     999901    1    3    3    0    0 -0.82179235024E-01  0.87355543722E-01  0.44862733262E-01  0.88926772264E+00  0.88000000000E+00 0.  1.
        -11    1    4    4    0    0  0.16986937187E-01 -0.47658776205E-01 -0.35460300777E-01  0.61786803094E-01  0.51100000000E-03 0. -1.
         11    1    4    4    0    0  0.58348443405E-01 -0.51543151462E-01 -0.12487587350E-01  0.78850734107E-01  0.51100000000E-03 0.  1.
</event>
<event>
 8    1  0.2257781E+004  0.1043930E+01  0.7957747E-01            NaN
         13   -1    0    0    0    0  0.00000000000E+00  0.00000000000E+00  0.74505805969E-08  0.10566000000E+00  0.10566000000E+00 0. -1.
     999900   -1    0    0    0    0 -0.00000000000E+00 -0.00000000000E+00 -0.74505805969E-08  0.93827000000E+00  0.93827000000E+00 0. -1.
     999902    2    1    2    0    0 -0.94175760451E-02 -0.96559057914E-02 -0.64228230996E-03  0.10304266752E+01  0.10303381936E+01 0.  0.
     999903    2    3    3    0    0  0.76003853828E-01 -0.10396875621E+00  0.33634540409E-01  0.14061397857E+00  0.45331232022E-01 0.  0.
         14    1    1    2    0    0  0.94175760451E-02  0.96559057914E-02  0.64228230996E-03  0.13503324842E-01  0.00000000000E+00 0.  1.
     999901    1    3    3    0    0 -0.85421429873E-01  0.94312850416E-01 -0.34276822719E-01  0.88981269659E+00  0.88000000000E+00 0.  1.
        -11    1    4    4    0    0  0.51267791014E-01 -0.88402797105E-01  0.93674382608E-02  0.10262285784E+00  0.51100000000E-03 0. -1.
         11    1    4    4    0    0  0.24736062814E-01 -0.15565959102E-01  0.24267102148E-01  0.37991120726E-01  0.51100000000E-03 0.  1.
</event>
<event>
 8    1  0.2257781E+004  0.1043930E+01  0.7957747E-01            NaN
         13   -1    0    0    0    0  0.00000000000E+00  0.00000000000E+00  0.74505805969E-08  0.10566000000E+00  0.10566000000E+00 0.  1.
     999900   -1    0    0    0    0 -0.00000000000E+00 -0.00000000000E+00 -0.74505805969E-08  0.93827000000E+00  0.93827000000E+00 0.  1.
     999902    2    1    2    0    0 -0.10076500399E-01  0.76387451017E-02  0.68221854574E-02  0.10295623801E+01  0.10294621246E+01 0.  0.
     999903    2    3    3    0    0 -0.21113675957E-01 -0.49174243211E-01  0.12164239929E+00  0.14021811808E+00  0.44725315260E-01 0.  0.
         14    1    1    2    0    0  0.10076500399E-01 -0.76387451017E-02 -0.68221854574E-02  0.14367619895E-01  0.00000000000E+00 0. -1.
     999901    1    3    3    0    0  0.11037175558E-01  0.56812988313E-01 -0.11482021384E+00  0.88934426202E+00  0.88000000000E+00 0.  1.
        -11    1    4    4    0    0 -0.15574729355E-01 -0.50312698169E-01  0.66726895658E-01  0.85009878936E-01  0.51100000000E-03 0.  1.
         11    1    4    4    0    0 -0.55389466019E-02  0.11384549584E-02  0.54915503637E-01  0.55208239148E-01  0.51100000000E-03 0. -1.
</event>
<event>
 8    1  0.2257781E+004  0.1043930E+01  0.7957747E-01            NaN
         13   -1    0    0    0    0  0.00000000000E+00  0.00000000000E+00  0.74505805969E-08  0.10566000000E+00  0.10566000000E+00 0.  1.
     999900   -1    0    0    0    0 -0.00000000000E+00 -0.00000000000E+00 -0.74505805969E-08  0.93827000000E+00  0.93827000000E+00 0.  1.
     999902    2    1    2    0    0 -0.12169886841E-01 -0.48696036429E-02  0.72870330060E-02  0.10289326657E+01  0.10288233622E+01 0.  0.
     999903    2    3    3    0    0 -0.80106386161E-01 -0.85364629966E-01  0.65487816735E-01  0.14074228724E+00  0.42609671721E-01 0.  0.
         14    1    1    2    0    0  0.12169886841E-01  0.48696036429E-02 -0.72870330060E-02  0.14997334277E-01  0.00000000000E+00 0. -1.
     999901    1    3    3    0    0  0.67936499319E-01  0.80495026323E-01 -0.58200783729E-01  0.88819037848E+00  0.88000000000E+00 0. -1.
        -11    1    4    4    0    0 -0.57019803833E-01 -0.37458957055E-01  0.20934047773E-01  0.71364745988E-01  0.51100000000E-03 0. -1.
         11    1    4    4    0    0 -0.23086582328E-01 -0.47905672910E-01  0.44553768962E-01  0.69377541253E-01  0.51100000000E-03 0.  1.
</event>
<event>
 8    1  0.2257781E+004  0.1043930E+01  0.7957747E-01            NaN
         13   -1    0    0    0    0  0.00000000000E+00  0.00000000000E+00  0.74505805969E-08  0.10566000000E+00  0.10566000000E+00 0.  1.
     999900   -1    0    0    0    0 -0.00000000000E+00 -0.00000000000E+00 -0.74505805969E-08  0.93827000000E+00  0.93827000000E+00 0. -1.
     999902    2    1    2    0    0  0.44841593708E-02 -0.93265987596E-02  0.72962754053E-02  0.10312679005E+01  0.10311901637E+01 0.  0.
     999903    2    3    3    0    0 -0.19040550631E-02 -0.10985935332E+00 -0.76991690184E-01  0.14151956236E+00  0.45026250532E-01 0.  0.
         14    1    1    2    0    0 -0.44841593708E-02  0.93265987596E-02 -0.72962754053E-02  0.12662099529E-01  0.00000000000E+00 0.  1.
     999901    1    3    3    0    0  0.63882144338E-02  0.10053275456E+00  0.84287965589E-01  0.88974833811E+00  0.88000000000E+00 0.  1.
        -11    1    4    4    0    0 -0.23331452363E-01 -0.56091252727E-01 -0.36399266365E-01  0.70821981156E-01  0.51100000000E-03 0.  1.
         11    1    4    4    0    0  0.21427397300E-01 -0.53768100591E-01 -0.40592423818E-01  0.70697581208E-01  0.51100000000E-03 0. -1.
</event>
<event>
 8    1  0.2257781E+004  0.1043930E+01  0.7957747E-01            NaN
         13   -1    0    0    0    0  0.00000000000E+00  0.00000000000E+00  0.74505805969E-08  0.10566000000E+00  0.10566000000E+00 0.  1.
     999900   -1    0    0    0    0 -0.00000000000E+00 -0.00000000000E+00 -0.74505805969E-08  0.93827000000E+00  0.93827000000E+00 0.  1.
     999902    2    1    2    0    0  0.85288621047E-02 -0.81115582502E-02 -0.77256000569E-02  0.10298508039E+01  0.10297545604E+01 0.  0.
     999903    2    3    3    0    0 -0.13162890037E-01  0.12834296806E+00  0.26784442607E-01  0.13840180767E+00  0.42337629577E-01 0.  0.
         14    1    1    2    0    0 -0.85288621047E-02  0.81115582502E-02  0.77256000569E-02  0.14079196081E-01  0.00000000000E+00 0.  1.
     999901    1    3    3    0    0  0.21691752141E-01 -0.13645452631E+00 -0.34510042664E-01  0.89144899624E+00  0.88000000000E+00 0.  1.
        -11    1    4    4    0    0  0.15574970996E-01  0.43998936008E-01  0.89132534289E-02  0.47520451377E-01  0.51100000000E-03 0. -1.
         11    1    4    4    0    0 -0.28737861032E-01  0.84344032048E-01  0.17871189178E-01  0.90881356298E-01  0.51100000000E-03 0.  1.
</event>
<event>
 8    1  0.2257781E+004  0.1043930E+01  0.7957747E-01            NaN
         13   -1    0    0    0    0  0.00000000000E+00  0.00000000000E+00  0.74505805969E-08  0.10566000000E+00  0.10566000000E+00 0.  1.
     999900   -1    0    0    0    0 -0.00000000000E+00 -0.00000000000E+00 -0.74505805969E-08  0.93827000000E+00  0.93827000000E+00 0. -1.
     999902    2    1    2    0    0 -0.18139575331E-01  0.83201573883E-03 -0.69447611273E-02  0.10244886484E+01  0.10243041661E+01 0.  0.
     999903    2    3    3    0    0  0.52630660949E-01 -0.10167007273E+00  0.53614065682E-01  0.13365618608E+00  0.43390297055E-01 0.  0.
         14    1    1    2    0    0  0.18139575331E-01 -0.83201573883E-03  0.69447611273E-02  0.19441351560E-01  0.00000000000E+00 0.  1.
     999901    1    3    3    0    0 -0.70770236280E-01  0.10250208847E+00 -0.60558826809E-01  0.89083246236E+00  0.88000000000E+00 0. -1.
        -11    1    4    4    0    0 -0.18119322547E-02 -0.65263445765E-02  0.16632464237E-01  0.17965975053E-01  0.51100000000E-03 0.  1.
         11    1    4    4    0    0  0.54442593204E-01 -0.95143728154E-01  0.36981601445E-01  0.11569021103E+00  0.51100000000E-03 0. -1.
</event>
<event>
 8    1  0.2257781E+004  0.1043930E+01  0.7957747E-01            NaN
         13   -1    0    0    0    0  0.00000000000E+00  0.00000000000E+00  0.74505805969E-08  0.10566000000E+00  0.10566000000E+00 0.  1.
     999900   -1    0    0    0    0 -0.00000000000E+00 -0.00000000000E+00 -0.74505805969E-08  0.93827000000E+00  0.93827000000E+00 0. -1.
     999902    2    1    2    0    0 -0.12119844960E-01 -0.46445190895E-02  0.38978579088E-02  0.10303780446E+01  0.10302889203E+01 0.  0.
     999903    2    3    3    0    0 -0.79660273100E-01  0.96582176914E-01  0.46570777672E-01  0.14097963470E+00  0.45083744953E-01 0.  0.
         14    1    1    2    0    0  0.12119844960E-01  0.46445190895E-02 -0.38978579088E-02  0.13551955420E-01  0.00000000000E+00 0.  1.
     999901    1    3    3    0    0  0.67540428140E-01 -0.10122669600E+00 -0.42672919763E-01  0.88939840988E+00  0.88000000000E+00 0. -1.
        -11    1    4    4    0    0 -0.81141670782E-01  0.75768273891E-01  0.32047510745E-01  0.11555131385E+00  0.51100000000E-03 0.  1.
         11    1    4    4    0    0  0.14813976816E-02  0.20813903023E-01  0.14523266927E-01  0.25428320853E-01  0.51100000000E-03 0. -1.
</event>
<event>
 8    1  0.2257781E+004  0.1043930E+01  0.7957747E-01            NaN
         13   -1    0    0    0    0  0.00000000000E+00  0.00000000000E+00  0.74505805969E-08  0.10566000000E+00  0.10566000000E+00 0.  1.
     999900   -1    0    0    0    0 -0.00000000000E+00 -0.00000000000E+00 -0.74505805969E-08  0.93827000000E+00  0.93827000000E+00 0.  1.
     999902    2    1    2    0    0  0.67873194167E-02  0.44817291702E-02  0.43532043149E-02  0.10347048177E+01  0.10346636921E+01 0.  0.
     999903    2    3    3    0    0  0.13343673618E+00  0.10104337036E-01  0.29694990483E-01  0.14525898199E+00  0.48072020949E-01 0.  0.
         14    1    1    2    0    0 -0.67873194167E-02 -0.44817291702E-02 -0.43532043149E-02  0.92251823303E-02  0.00000000000E+00 0. -1.
     999901    1    3    3    0    0 -0.12664941677E+00 -0.56226078660E-02 -0.25341786168E-01  0.88944583568E+00  0.88000000000E+00 0. -1.
        -11    1    4    4    0    0  0.12527647631E+00 -0.37484584422E-02  0.21355350029E-01  0.12713991723E+00  0.51100000000E-03 0.  1.
         11    1    4    4    0    0  0.81602598720E-02  0.13852795478E-01  0.83396404542E-02  0.18119064757E-01  0.51100000000E-03 0. -1.
</event>
<event>
 8    1  0.2257781E+004  0.1043930E+01  0.7957747E-01            NaN
         13   -1    0    0    0    0  0.00000000000E+00  0.00000000000E+00  0.74505805969E-08  0.10566000000E+00  0.10566000000E+00 0. -1.
     999900   -1    0    0    0    0 -0.00000000000E+00 -0.00000000000E+00 -0.74505805969E-08  0.93827000000E+00  0.93827000000E+00 0.  1.
     999902    2    1    2    0    0  0.91378878100E-02 -0.34921122697E-02 -0.98677582968E-02  0.10300350910E+01  0.10299413674E+01 0.  0.
     999903    2    3    3    0    0 -0.89840060661E-01  0.11257545351E-01  0.94177646528E-01  0.13827299665E+00  0.45299267890E-01 0.  0.
         14    1    1    2    0    0 -0.91378878100E-02  0.34921122697E-02  0.98677582968E-02  0.13894908979E-01  0.00000000000E+00 0. -1.
     999901    1    3    3    0    0  0.98977948471E-01 -0.14749657620E-01 -0.10404540483E+00  0.89176209437E+00  0.88000000000E+00 0.  1.
        -11    1    4    4    0    0 -0.37900255580E-01 -0.85537313618E-02  0.64383026211E-01  0.75199939350E-01  0.51100000000E-03 0. -1.
         11    1    4    4    0    0 -0.51939805081E-01  0.19811276712E-01  0.29794620318E-01  0.63073057305E-01  0.51100000000E-03 0.  1.
</event>
<event>
 8    1  0.2257781E+004  0.1043930E+01  0.7957747E-01            NaN
         13   -1    0    0    0    0  0.00000000000E+00  0.00000000000E+00  0.74505805969E-08  0.10566000000E+00  0.10566000000E+00 0. -1.
     999900   -1    0    0    0    0 -0.00000000000E+00 -0.00000000000E+00 -0.74505805969E-08  0.93827000000E+00  0.93827000000E+00 0.  1.
     999902    2    1    2    0    0 -0.12507493113E-01  0.28616854634E-02 -0.34912235162E-02  0.10306328097E+01  0.10305470262E+01 0.  0.
     999903    2    3    3    0    0  0.16753539404E-01  0.33284298527E-01 -0.12820483883E+00  0.14083776070E+00  0.44836018229E-01 0.  0.
         14    1    1    2    0    0  0.12507493113E-01 -0.28616854634E-02  0.34912235162E-02  0.13297190279E-01  0.00000000000E+00 0. -1.
     999901    1    3    3    0    0 -0.29261032518E-01 -0.30422613064E-01  0.12471361531E+00  0.88979504902E+00  0.88000000000E+00 0. -1.
        -11    1    4    4    0    0  0.22434015515E-01  0.14678133019E-01 -0.28029980712E-01  0.38790122206E-01  0.51100000000E-03 0. -1.
         11    1    4    4    0    0 -0.56804761106E-02  0.18606165508E-01 -0.10017485812E+00  0.10204763850E+00  0.51100000000E-03 0.  1.
</event>
<event>
 8    1  0.2257781E+004  0.1043930E+01  0.7957747E-01            NaN
         13   -1    0    0    0    0  0.00000000000E+00  0.00000000000E+00  0.74505805969E-08  0.10566000000E+00  0.10566000000E+00 0. -1.
     999900   -1    0    0    0    0 -0.00000000000E+00 -0.00000000000E+00 -0.74505805969E-08  0.93827000000E+00  0.93827000000E+00 0. -1.
     999902    2    1    2    0    0  0.96215400947E-02 -0.13159051164E-03 -0.82672896166E-02  0.10312438096E+01  0.10311657749E+01 0.  0.
     999903    2    3    3    0    0  0.10268928009E+00  0.80760434431E-01 -0.32158098093E-01  0.14232542488E+00  0.46422486780E-01 0.  0.
         14    1    1    2    0    0 -0.96215400947E-02  0.13159051164E-03  0.82672896166E-02  0.12686190424E-01  0.00000000000E+00 0. -1.
     999901    1    3    3    0    0 -0.93067739994E-01 -0.80892024943E-01  0.23890808477E-01  0.88891838470E+00  0.88000000000E+00 0.  1.
        -11    1    4    4    0    0  0.86342394533E-01  0.41525443072E-01 -0.17735858028E-01  0.97438151138E-01  0.51100000000E-03 0.  1.
         11    1    4    4    0    0  0.16346885555E-01  0.39234991359E-01 -0.14422240065E-01  0.44887273739E-01  0.51100000000E-03 0. -1.
</event>
<event>
 8    1  0.2257781E+004  0.1043930E+01  0.7957747E-01            NaN
         13   -1    0    0    0    0  0.00000000000E+00  0.00000000000E+00  0.74505805969E-08  0.10566000000E+00  0.10566000000E+00 0. -1.
     999900   -1    0    0    0    0 -0.00000000000E+00 -0.00000000000E+00 -0.74505805969E-08  0.93827000000E+00  0.93827000000E+00 0.  1.
     999902    2    1    2    0    0 -0.57287217630E-02 -0.55173983556E-02 -0.94332126941E-02  0.10315912221E+01  0.10315174279E+01 0.  0.
     999903    2    3    3    0    0  0.88923514970E-01  0.61189773471E-02 -0.10057372910E+00  0.14175919029E+00  0.45119393250E-01 0.  0.
         14    1    1    2    0    0  0.57287217630E-02  0.55173983556E-02  0.94332126941E-02  0.12338777872E-01  0.00000000000E+00 0. -1.
     999901    1    3    3    0    0 -0.94652236733E-01 -0.11636375703E-01  0.91140516407E-01  0.88983203184E+00  0.88000000000E+00 0.  1.
        -11    1    4    4    0    0  0.45235665583E-01  0.24845919119E-01 -0.43631447794E-01  0.67583648135E-01  0.51100000000E-03 0.  1.
         11    1    4    4    0    0  0.43687849387E-01 -0.18726941772E-01 -0.56942281307E-01  0.74175542153E-01  0.51100000000E-03 0. -1.
</event>
<event>
 8    1  0.2257781E+004  0.1043930E+01  0.7957747E-01            NaN
         13   -1    0    0    0    0  0.00000000000E+00  0.00000000000E+00  0.74505805969E-08  0.10566000000E+00  0.10566000000E+00 0. -1.
     999900   -1    0    0    0    0 -0.00000000000E+00 -0.00000000000E+00 -0.74505805969E-08  0.93827000000E+00  0.93827000000E+00 0.  1.
     999902    2    1    2    0    0 -0.11548176888E-01 -0.48999154936E-02 -0.29371897502E-02  0.10310460315E+01  0.10309655292E+01 0.  0.
     999903    2    3    3    0    0  0.18832984506E-01  0.11045116732E+00 -0.72228710787E-01  0.14029904037E+00  0.43734338917E-01 0.  0.
         14    1    1    2    0    0  0.11548176888E-01  0.48999154936E-02  0.29371897502E-02  0.12883968523E-01  0.00000000000E+00 0.  1.
     999901    1    3    3    0    0 -0.30381161394E-01 -0.11535108281E+00  0.69291521037E-01  0.89074699110E+00  0.88000000000E+00 0. -1.
        -11    1    4    4    0    0  0.26322881691E-01  0.34338352750E-01 -0.19886149485E-01  0.47620758420E-01  0.51100000000E-03 0. -1.
         11    1    4    4    0    0 -0.74898971853E-02  0.76112814567E-01 -0.52342561302E-01  0.92678281953E-01  0.51100000000E-03 0.  1.
</event>
<event>
 8    1  0.2257781E+004  0.1043930E+01  0.7957747E-01            NaN
         13   -1    0    0    0    0  0.00000000000E+00  0.00000000000E+00  0.74505805969E-08  0.10566000000E+00  0.10566000000E+00 0.  1.
     999900   -1    0    0    0    0 -0.00000000000E+00 -0.00000000000E+00 -0.74505805969E-08  0.93827000000E+00  0.93827000000E+00 0.  1.
     999902    2    1    2    0    0 -0.83745152796E-02  0.87807475114E-02 -0.68891070985E-02  0.10299767269E+01  0.10298822089E+01 0.  0.
     999903    2    3    3    0    0 -0.74283300261E-01  0.14479129646E-01  0.10973978912E+00  0.13982014579E+00  0.42180540060E-01 0.  0.
         14    1    1    2    0    0  0.83745152796E-02 -0.87807475114E-02  0.68891070985E-02  0.13953273080E-01  0.00000000000E+00 0.  1.
     999901    1    3    3    0    0  0.65908784982E-01 -0.56983821348E-02 -0.11662889622E+00  0.89015658113E+00  0.88000000000E+00 0.  1.
        -11    1    4    4    0    0 -0.29755518068E-01  0.26056054898E-01  0.39876517220E-01  0.56166774867E-01  0.51100000000E-03 0. -1.
         11    1    4    4    0    0 -0.44527782193E-01 -0.11576925252E-01  0.69863271899E-01  0.83653370923E-01  0.51100000000E-03 0.  1.
</event>
<event>
 8    1  0.2257781E+004  0.1043930E+01  0.7957747E-01            NaN
         13   -1    0    0    0    0  0.00000000000E+00  0.00000000000E+00  0.74505805969E-08  0.10566000000E+00  0.10566000000E+00 0. -1.
     999900   -1    0    0    0    0 -0.00000000000E+00 -0.00000000000E+00 -0.74505805969E-08  0.93827000000E+00  0.93827000000E+00 0.  1.
     999902    2    1    2    0    0 -0.23752333346E-02  0.10056004544E-01 -0.88554409995E-02  0.10303217747E+01  0.10302319038E+01 0.  0.
     999903    2    3    3    0    0  0.79654487022E-01  0.10841104077E+00 -0.15993587741E-03  0.14100844409E+00  0.42255942328E-01 0.  0.
         14    1    1    2    0    0  0.23752333346E-02 -0.10056004544E-01  0.88554409995E-02  0.13608225309E-01  0.00000000000E+00 0. -1.
     999901    1    3    3    0    0 -0.82029720357E-01 -0.98355036226E-01 -0.86955051221E-02  0.88931333060E+00  0.88000000000E+00 0. -1.
        -11    1    4    4    0    0  0.33051213336E-03  0.11416873326E-01 -0.10178245131E-01  0.15307254154E-01  0.51100000000E-03 0.  1.
         11    1    4    4    0    0  0.79323974889E-01  0.96994167443E-01  0.10018309253E-01  0.12570118994E+00  0.51100000000E-03 0. -1.
</event>
<event>
 8    1  0.2257781E+004  0.1043930E+01  0.7957747E-01            NaN
         13   -1    0    0    0    0  0.00000000000E+00  0.00000000000E+00  0.74505805969E-08  0.10566000000E+00  0.10566000000E+00 0.  1.
     999900   -1    0    0    0    0 -0.00000000000E+00 -0.00000000000E+00 -0.74505805969E-08  0.93827000000E+00  0.93827000000E+00 0. -1.
     999902    2    1    2    0    0  0.59746089978E-02  0.48214299297E-03 -0.13441286287E-01  0.10292127791E+01  0.10291075493E+01 0.  0.
     999903    2    3    3    0    0  0.62418948888E-01  0.61852044503E-01 -0.10032914535E+00  0.14101137829E+00  0.45787234156E-01 0.  0.
         14    1    1    2    0    0 -0.59746089978E-02 -0.48214299297E-03  0.13441286287E-01  0.14717220919E-01  0.00000000000E+00 0.  1.
     999901    1    3    3    0    0 -0.56444339890E-01 -0.61369901510E-01  0.86887859059E-01  0.88820140079E+00  0.88000000000E+00 0.  1.
        -11    1    4    4    0    0  0.39429540829E-01  0.64846024554E-01 -0.77357928917E-01  0.10837068735E+00  0.51100000000E-03 0. -1.
         11    1    4    4    0    0  0.22989408059E-01 -0.29939800507E-02 -0.22971216429E-01  0.32640690935E-01  0.51100000000E-03 0.  1.
</event>
<event>
 8    1  0.2257781E+004  0.1043930E+01  0.7957747E-01            NaN
         13   -1    0    0    0    0  0.00000000000E+00  0.00000000000E+00  0.74505805969E-08  0.10566000000E+00  0.10566000000E+00 0. -1.
     999900   -1    0    0    0    0 -0.00000000000E+00 -0.00000000000E+00 -0.74505805969E-08  0.93827000000E+00  0.93827000000E+00 0.  1.
     999902    2    1    2    0    0 -0.38901705873E-02  0.48531663697E-02  0.68539162681E-02  0.10346745789E+01  0.10346331821E+01 0.  0.
     999903    2    3    3    0    0  0.10793783700E+00 -0.19165797094E-01 -0.80063565703E-01  0.14302607051E+00  0.45037516136E-01 0.  0.
         14    1    1    2    0    0  0.38901705873E-02 -0.48531663697E-02 -0.68539162681E-02  0.92554210721E-02  0.00000000000E+00 0.  1.
     999901    1    3    3    0    0 -0.11182800758E+00  0.24018963464E-01  0.86917481972E-01  0.89164850841E+00  0.88000000000E+00 0. -1.
        -11    1    4    4    0    0  0.82369204123E-01  0.92721390310E-03 -0.72264905699E-01  0.10958112625E+00  0.51100000000E-03 0.  1.
         11    1    4    4    0    0  0.25568632873E-01 -0.20093010997E-01 -0.77986600041E-02  0.33444944264E-01  0.51100000000E-03 0. -1.
</event>
<event>
 8    1  0.2257781E+004  0.1043930E+01  0.7957747E-01            NaN
         13   -1    0    0    0    0  0.00000000000E+00  0.00000000000E+00  0.74505805969E-08  0.10566000000E+00  0.10566000000E+00 0.  1.
     999900   -1    0    0    0    0 -0.00000000000E+00 -0.00000000000E+00 -0.74505805969E-08  0.93827000000E+00  0.93827000000E+00 0.  1.
     999902    2    1    2    0    0 -0.11591987488E-01  0.51630922402E-02 -0.26407975540E-02  0.10309683062E+01  0.10308868235E+01 0.  0.
     999903    2    3    3    0    0 -0.63374580686E-01  0.10789229237E+00 -0.50427960340E-01  0.14219480383E+00  0.44936608929E-01 0.  0.
         14    1    1    2    0    0  0.11591987488E-01 -0.51630922402E-02  0.26407975540E-02  0.12961693837E-01  0.00000000000E+00 0. -1.
     999901    1    3    3    0    0  0.51782593198E-01 -0.10272920013E+00  0.47787162786E-01  0.88877350233E+00  0.88000000000E+00 0. -1.
        -11    1    4    4    0    0 -0.53608915499E-02  0.52291867015E-01 -0.18541966235E-01  0.55742660028E-01  0.51100000000E-03 0. -1.
         11    1    4    4    0    0 -0.58013689136E-01  0.55600425358E-01 -0.31885994105E-01  0.86452143804E-01  0.51100000000E-03 0.  1.
</event>
<event>
 8    1  0.2257781E+004  0.1043930E+01  0.7957747E-01            NaN
         13   -1    0    0    0    0  0.00000000000E+00  0.00000000000E+00  0.74505805969E-08  0.10566000000E+00  0.10566000000E+00 0.  1.
     999900   -1    0    0    0    0 -0.00000000000E+00 -0.00000000000E+00 -0.74505805969E-08  0.93827000000E+00  0.93827000000E+00 0.  1.
     999902    2    1    2    0    0 -0.11896722339E-01  0.42731535818E-02 -0.40917120021E-02  0.10306433920E+01  0.10305577459E+01 0.  0.
     999903    2    3    3    0    0 -0.12974255461E+00  0.21230710059E-01  0.28604729066E-01  0.14202409439E+00  0.45483396263E-01 0.  0.
         14    1    1    2    0    0  0.11896722339E-01 -0.42731535818E-02  0.40917120021E-02  0.13286607959E-01  0.00000000000E+00 0.  1.
     999901    1    3    3    0    0  0.11784583227E+00 -0.16957556477E-01 -0.32696441068E-01  0.88861929765E+00  0.88000000000E+00 0.  1.
        -11    1    4    4    0    0 -0.42533539903E-01 -0.60975792447E-02 -0.77536714879E-02  0.43665352762E-01  0.51100000000E-03 0.  1.
         11    1    4    4    0    0 -0.87209014705E-01  0.27328289304E-01  0.36358400554E-01  0.98358741625E-01  0.51100000000E-03 0. -1.
</event>
<event>
 8    1  0.2257781E+004  0.1043930E+01  0.7957747E-01            NaN
         13   -1    0    0    0    0  0.00000000000E+00  0.00000000000E+00  0.74505805969E-08  0.10566000000E+00  0.10566000000E+00 0.  1.
     999900   -1    0    0    0    0 -0.00000000000E+00 -0.00000000000E+00 -0.74505805969E-08  0.93827000000E+00  0.93827000000E+00 0.  1.
     999902    2    1    2    0    0 -0.80353960790E-02 -0.99579519565E-03  0.10599529853E-01  0.10305917381E+01  0.10305054203E+01 0.  0.
     999903    2    3    3    0    0 -0.99981700948E-01 -0.87523389579E-01  0.21735459038E-01  0.14151066388E+00  0.43544845430E-01 0.  0.
         14    1    1    2    0    0  0.80353960790E-02  0.99579519565E-03 -0.10599529853E-01  0.13338261931E-01  0.00000000000E+00 0. -1.
     999901    1    3    3    0    0  0.91946304869E-01  0.86527594383E-01 -0.11135929185E-01  0.88908107419E+00  0.88000000000E+00 0.  1.
        -11    1    4    4    0    0 -0.38083315810E-01 -0.61543668357E-01  0.16088901988E-01  0.74142268283E-01  0.51100000000E-03 0.  1.
         11    1    4    4    0    0 -0.61898385138E-01 -0.25979721222E-01  0.56465570499E-02  0.67368395594E-01  0.51100000000E-03 0. -1.
</event>
<event>
 8    1  0.2257781E+004  0.1043930E+01  0.7957747E-01            NaN
         13   -1    0    0    0    0  0.00000000000E+00  0.00000000000E+00  0.74505805969E-08  0.10566000000E+00  0.10566000000E+00 0.  1.
     999900   -1    0    0    0    0 -0.00000000000E+00 -0.00000000000E+00 -0.74505805969E-08  0.93827000000E+00  0.93827000000E+00 0.  1.
     999902    2    1    2    0    0  0.37654981463E-02 -0.11798126296E-01  0.58488736678E-02  0.10302338661E+01  0.10301428225E+01 0.  0.
     999903    2    3    3    0    0  0.72213676343E-01 -0.91944353450E-01  0.67053626136E-01  0.14183384779E+00  0.44182263617E-01 0.  0.
         14    1    1    2    0    0 -0.37654981463E-02  0.11798126296E-01 -0.58488736678E-02  0.13696133891E-01  0.00000000000E+00 0. -1.
     999901    1    3    3    0    0 -0.68448178197E-01  0.80146227154E-01 -0.61204752468E-01  0.88840001832E+00  0.88000000000E+00 0.  1.
        -11    1    4    4    0    0  0.60047580087E-01 -0.42705816239E-01  0.46331208744E-01  0.87042177360E-01  0.51100000000E-03 0.  1.
         11    1    4    4    0    0  0.12166096257E-01 -0.49238537211E-01  0.20722417392E-01  0.54791670429E-01  0.51100000000E-03 0. -1.
</event>
<event>
 8    1  0.2257781E+004  0.1043930E+01  0.7957747E-01            NaN
         13   -1    0    0    0    0  0.00000000000E+00  0.00000000000E+00  0.74505805969E-08  0.10566000000E+00  0.10566000000E+00 0.  1.
     999900   -1    0    0    0    0 -0.00000000000E+00 -0.00000000000E+00 -0.74505805969E-08  0.93827000000E+00  0.93827000000E+00 0.  1.
     999902    2    1    2    0    0  0.66965841524E-02  0.11923652397E-01  0.80852308937E-02  0.10280432544E+01  0.10279204951E+01 0.  0.
     999903    2    3    3    0    0 -0.12714045801E+00  0.20116060229E-01  0.23019184450E-01  0.13776100012E+00  0.43345799791E-01 0.  0.
         14    1    1    2    0    0 -0.66965841524E-02 -0.11923652397E-01 -0.80852308937E-02  0.15886745557E-01  0.00000000000E+00 0. -1.
     999901    1    3    3    0    0  0.13383704216E+00 -0.81924078321E-02 -0.14933953556E-01  0.89028225433E+00  0.88000000000E+00 0.  1.
        -11    1    4    4    0    0 -0.79612554677E-01  0.33029056091E-01  0.19566817815E-01  0.88386644290E-01  0.51100000000E-03 0.  1.
         11    1    4    4    0    0 -0.47527903328E-01 -0.12912995862E-01  0.34523666343E-02  0.49374355827E-01  0.51100000000E-03 0. -1.
</event>
<event>
 8    1  0.2257781E+004  0.1043930E+01  0.7957747E-01            NaN
         13   -1    0    0    0    0  0.00000000000E+00  0.00000000000E+00  0.74505805969E-08  0.10566000000E+00  0.10566000000E+00 0.  1.
     999900   -1    0    0    0    0 -0.00000000000E+00 -0.00000000000E+00 -0.74505805969E-08  0.93827000000E+00  0.93827000000E+00 0. -1.
     999902    2    1    2    0    0  0.33164162707E-02  0.78072471721E-02  0.11233499717E-01  0.10298536638E+01  0.10297574596E+01 0.  0.
     999903    2    3    3    0    0 -0.85176971385E-01  0.78766815629E-01 -0.63643326615E-01  0.13941956789E+00  0.43909169765E-01 0.  0.
         14    1    1    2    0    0 -0.33164162707E-02 -0.78072471721E-02 -0.11233499717E-01  0.14076336213E-01  0.00000000000E+00 0. -1.
     999901    1    3    3    0    0  0.88493387656E-01 -0.70959568457E-01  0.74876826332E-01  0.89043409590E+00  0.88000000000E+00 0. -1.
        -11    1    4    4    0    0 -0.51031613025E-01  0.71742631240E-01 -0.36823133441E-01  0.95432881874E-01  0.51100000000E-03 0. -1.
         11    1    4    4    0    0 -0.34145358359E-01  0.70241843882E-02 -0.26820193174E-01  0.43986686016E-01  0.51100000000E-03 0.  1.
</event>
<event>
 8    1  0.2257781E+004  0.1043930E+01  0.7957747E-01            NaN
         13   -1    0    0    0    0  0.00000000000E+00  0.00000000000E+00  0.74505805969E-08  0.10566000000E+00  0.10566000000E+00 0. -1.
     999900   -1    0    0    0    0 -0.00000000000E+00 -0.00000000000E+00 -0.74505805969E-08  0.93827000000E+00  0.93827000000E+00 0.  1.
     999902    2    1    2    0    0  0.92652636348E-02  0.58347462539E-02  0.96860666507E-02  0.10293112018E+01  0.10292073848E+01 0.  0.
     999903    2    3    3    0    0 -0.23623147872E-01 -0.12407728248E+00  0.36178062119E-01  0.13877169753E+00  0.44671094829E-01 0.  0.
         14    1    1    2    0    0 -0.92652636348E-02 -0.58347462539E-02 -0.96860666507E-02  0.14618798214E-01  0.00000000000E+00 0.  1.
     999901    1    3    3    0    0  0.32888411506E-01  0.12991202873E+00 -0.26491995468E-01  0.89053950426E+00  0.88000000000E+00 0.  1.
        -11    1    4    4    0    0 -0.84782870011E-02 -0.91425217037E-01  0.44181596701E-01  0.10189566364E+00  0.51100000000E-03 0. -1.
         11    1    4    4    0    0 -0.15144860870E-01 -0.32652065442E-01 -0.80035345818E-02  0.36876033887E-01  0.51100000000E-03 0.  1.
</event>
<event>
 8    1  0.2257781E+004  0.1043930E+01  0.7957747E-01            NaN
         13   -1    0    0    0    0  0.00000000000E+00  0.00000000000E+00  0.74505805969E-08  0.10566000000E+00  0.10566000000E+00 0. -1.
     999900   -1    0    0    0    0 -0.00000000000E+00 -0.00000000000E+00 -0.74505805969E-08  0.93827000000E+00  0.93827000000E+00 0. -1.
     999902    2    1    2    0    0 -0.99615595559E-02  0.86379796031E-02 -0.33787095013E-02  0.10303188634E+01  0.10302289538E+01 0.  0.
     999903    2    3    3    0    0 -0.36394793759E-01 -0.80271213518E-01 -0.99358459658E-01  0.14025388102E+00  0.45066605202E-01 0.  0.
         14    1    1    2    0    0  0.99615595559E-02 -0.86379796031E-02  0.33787095013E-02  0.13611136554E-01  0.00000000000E+00 0. -1.
     999901    1    3    3    0    0  0.26433234203E-01  0.88909193121E-01  0.95979750157E-01  0.89006498242E+00  0.88000000000E+00 0.  1.
        -11    1    4    4    0    0 -0.39178352476E-02 -0.48786051330E-01 -0.73024972231E-01  0.87910954538E-01  0.51100000000E-03 0. -1.
         11    1    4    4    0    0 -0.32476958512E-01 -0.31485162187E-01 -0.26333487427E-01  0.52342926487E-01  0.51100000000E-03 0.  1.
</event>
<event>
 8    1  0.2257781E+004  0.1043930E+01  0.7957747E-01            NaN
         13   -1    0    0    0    0  0.00000000000E+00  0.00000000000E+00  0.74505805969E-08  0.10566000000E+00  0.10566000000E+00 0. -1.
     999900   -1    0    0    0    0 -0.00000000000E+00 -0.00000000000E+00 -0.74505805969E-08  0.93827000000E+00  0.93827000000E+00 0. -1.
     999902    2    1    2    0    0  0.69420121604E-02  0.11224302175E-01  0.24959764714E-02  0.10304984554E+01  0.10304109181E+01 0.  0.
     999903    2    3    3    0    0  0.99734508310E-01 -0.78026499150E-01 -0.42213737722E-01  0.14000695547E+00  0.42247381107E-01 0.  0.
         14    1    1    2    0    0 -0.69420121604E-02 -0.11224302175E-01 -0.24959764714E-02  0.13431544613E-01  0.00000000000E+00 0.  1.
     999901    1    3    3    0    0 -0.92792496149E-01  0.89250801325E-01  0.44709714193E-01  0.89049149992E+00  0.88000000000E+00 0. -1.
        -11    1    4    4    0    0  0.37273497146E-01 -0.55955090919E-01 -0.20475251845E-01  0.70283588755E-01  0.51100000000E-03 0. -1.
         11    1    4    4    0    0  0.62461011164E-01 -0.22071408231E-01 -0.21738485877E-01  0.69723366715E-01  0.51100000000E-03 0.  1.
</event>
<event>
 8    1  0.2257781E+004  0.1043930E+01  0.7957747E-01            NaN
         13   -1    0    0    0    0  0.00000000000E+00  0.00000000000E+00  0.74505805969E-08  0.10566000000E+00  0.10566000000E+00 0.  1.
     999900   -1    0    0    0    0 -0.00000000000E+00 -0.00000000000E+00 -0.74505805969E-08  0.93827000000E+00  0.93827000000E+00 0.  1.
     999902    2    1    2    0    0  0.10677638577E-01  0.14895849863E-02 -0.10529861879E-01  0.10288598699E+01  0.10287494948E+01 0.  0.
     999903    2    3    3    0    0 -0.64282241826E-01 -0.10237101756E+00 -0.51125621969E-01  0.13866100217E+00  0.44732677646E-01 0.  0.
         14    1    1    2    0    0 -0.10677638577E-01 -0.14895849863E-02  0.10529861879E-01  0.15070130066E-01  0.00000000000E+00 0.  1.
     999901    1    3    3    0    0  0.74959880403E-01  0.10386060255E+00  0.40595760089E-01  0.89019886776E+00  0.88000000000E+00 0. -1.
        -11    1    4    4    0    0 -0.37159213697E-01 -0.32939145452E-01 -0.38988594638E-01  0.63136091885E-01  0.51100000000E-03 0.  1.
         11    1    4    4    0    0 -0.27123028130E-01 -0.69431872112E-01 -0.12137027331E-01  0.75524910284E-01  0.51100000000E-03 0. -1.
</event>
<event>
 8    1  0.2257781E+004  0.1043930E+01  0.7957747E-01            NaN
         13   -1    0    0    0    0  0.00000000000E+00  0.00000000000E+00  0.74505805969E-08  0.10566000000E+00  0.10566000000E+00 0.  1.
     999900   -1    0    0    0    0 -0.00000000000E+00 -0.00000000000E+00 -0.74505805969E-08  0.93827000000E+00  0.93827000000E+00 0.  1.
     999902    2    1    2    0    0 -0.45222530798E-03 -0.11079618835E-01 -0.74289319500E-02  0.10305826598E+01  0.10304962237E+01 0.  0.
     999903    2    3    3    0    0  0.94524640626E-01  0.66280502045E-01 -0.65697179112E-01  0.14018927368E+00  0.44820759423E-01 0.  0.
         14    1    1    2    0    0  0.45222530798E-03  0.11079618835E-01  0.74289319500E-02  0.13347340228E-01  0.00000000000E+00 0.  1.
     999901    1    3    3    0    0 -0.94976865934E-01 -0.77360120880E-01  0.58268247162E-01  0.89039338609E+00  0.88000000000E+00 0.  1.
        -11    1    4    4    0    0  0.35734106614E-01  0.38523458097E-02 -0.31751878441E-01  0.47960503013E-01  0.51100000000E-03 0.  1.
         11    1    4    4    0    0  0.58790534013E-01  0.62428156235E-01 -0.33945300671E-01  0.92228770669E-01  0.51100000000E-03 0. -1.
</event>
<event>
 8    1  0.2257781E+004  0.1043930E+01  0.7957747E-01            NaN
         13   -1    0    0    0    0  0.00000000000E+00  0.00000000000E+00  0.74505805969E-08  0.10566000000E+00  0.10566000000E+00 0.  1.
     999900   -1    0    0    0    0 -0.00000000000E+00 -0.00000000000E+00 -0.74505805969E-08  0.93827000000E+00  0.93827000000E+00 0. -1.
     999902    2    1    2    0    0  0.67225207343E-02  0.81150702247E-02 -0.84082005616E-02  0.10304487357E+01  0.10303605449E+01 0.  0.
     999903    2    3    3    0    0  0.58923601445E-01 -0.11853737390E+00  0.15983221891E-03  0.13980896252E+00  0.44982448097E-01 0.  0.
         14    1    1    2    0    0 -0.67225207343E-02 -0.81150702247E-02  0.84082005616E-02  0.13481264275E-01  0.00000000000E+00 0.  1.
     999901    1    3    3    0    0 -0.52201080711E-01  0.12665244412E+00 -0.85680327805E-02  0.89063977321E+00  0.88000000000E+00 0. -1.
        -11    1    4    4    0    0  0.33551198390E-01 -0.95924195242E-01 -0.14755904610E-01  0.10268949308E+00  0.51100000000E-03 0.  1.
         11    1    4    4    0    0  0.25372403055E-01 -0.22613178654E-01  0.14915736829E-01  0.37119469444E-01  0.51100000000E-03 0. -1.
</event>
<event>
 8    1  0.2257781E+004  0.1043930E+01  0.7957747E-01            NaN
         13   -1    0    0    0    0  0.00000000000E+00  0.00000000000E+00  0.74505805969E-08  0.10566000000E+00  0.10566000000E+00 0.  1.
     999900   -1    0    0    0    0 -0.00000000000E+00 -0.00000000000E+00 -0.74505805969E-08  0.93827000000E+00  0.93827000000E+00 0.  1.
     999902    2    1    2    0    0 -0.40320069507E-03 -0.11168485608E-01 -0.83411826315E-02  0.10299846435E+01  0.10298902334E+01 0.  0.
     999903    2    3    3    0    0  0.92913121237E-02  0.15205099307E-01 -0.13374085939E+00  0.14065083183E+00  0.39730536089E-01 0.  0.
         14    1    1    2    0    0  0.40320069507E-03  0.11168485608E-01  0.83411826315E-02  0.13945356549E-01  0.00000000000E+00 0. -1.
     999901    1    3    3    0    0 -0.96945128188E-02 -0.26373584916E-01  0.12539967676E+00  0.88933381162E+00  0.88000000000E+00 0. -1.
        -11    1    4    4    0    0  0.22757330696E-01 -0.59832715106E-03 -0.70873035664E-01  0.74441268131E-01  0.51100000000E-03 0. -1.
         11    1    4    4    0    0 -0.13466018572E-01  0.15803426458E-01 -0.62867823728E-01  0.66209563700E-01  0.51100000000E-03 0.  1.
</event>
<event>
 8    1  0.2257781E+004  0.1043930E+01  0.7957747E-01            NaN
         13   -1    0    0    0    0  0.00000000000E+00  0.00000000000E+00  0.74505805969E-08  0.10566000000E+00  0.10566000000E+00 0. -1.
     999900   -1    0    0    0    0 -0.00000000000E+00 -0.00000000000E+00 -0.74505805969E-08  0.93827000000E+00  0.93827000000E+00 0. -1.
     999902    2    1    2    0    0  0.91891845250E-02  0.37004785797E-02  0.85068820299E-02  0.10308723702E+01  0.10307896691E+01 0.  0.
     999903    2    3    3    0    0 -0.98295202879E-01 -0.87515801545E-01  0.14006542217E-01  0.13963528079E+00  0.44506920657E-01 0.  0.
         14    1    1    2    0    0 -0.91891845250E-02 -0.37004785797E-02 -0.85068820299E-02  0.13057629794E-01  0.00000000000E+00 0.  1.
     999901    1    3    3    0    0  0.10748438740E+00  0.91216280125E-01 -0.54996601869E-02  0.89123708942E+00  0.88000000000E+00 0. -1.
        -11    1    4    4    0    0 -0.29301820782E-01 -0.51034741652E-01  0.17839060505E-01  0.61494997823E-01  0.51100000000E-03 0.  1.
         11    1    4    4    0    0 -0.68993382097E-01 -0.36481059894E-01 -0.38325182882E-02  0.78140282963E-01  0.51100000000E-03 0. -1.
</event>
<event>
 8    1  0.2257781E+004  0.1043930E+01  0.7957747E-01            NaN
         13   -1    0    0    0    0  0.00000000000E+00  0.00000000000E+00  0.74505805969E-08  0.10566000000E+00  0.10566000000E+00 0.  1.
     999900   -1    0    0    0    0 -0.00000000000E+00 -0.00000000000E+00 -0.74505805969E-08  0.93827000000E+00  0.93827000000E+00 0.  1.
     999902    2    1    2    0    0 -0.96489895399E-02  0.57634696046E-02  0.63291633419E-02  0.10310312059E+01  0.10309505171E+01 0.  0.
     999903    2    3    3    0    0 -0.16666684529E-02  0.27274254072E-01 -0.12979611906E+00  0.14026943986E+00  0.45626971370E-01 0.  0.
         14    1    1    2    0    0  0.96489895399E-02 -0.57634696046E-02 -0.63291633419E-02  0.12898794115E-01  0.00000000000E+00 0.  1.
     999901    1    3    3    0    0 -0.79823210870E-02 -0.21510784467E-01  0.13612528240E+00  0.89076176602E+00  0.88000000000E+00 0. -1.
        -11    1    4    4    0    0 -0.40794700554E-02 -0.29987183014E-02 -0.90308192346E-01  0.90451451692E-01  0.51100000000E-03 0. -1.
         11    1    4    4    0    0  0.24128016026E-02  0.30272972373E-01 -0.39487926717E-01  0.49817988170E-01  0.51100000000E-03 0.  1.
</event>
<event>
 8    1  0.2257781E+004  0.1043930E+01  0.7957747E-01            NaN
         13   -1    0    0    0    0  0.00000000000E+00  0.00000000000E+00  0.74505805969E-08  0.10566000000E+00  0.10566000000E+00 0. -1.
     999900   -1    0    0    0    0 -0.00000000000E+00 -0.00000000000E+00 -0.74505805969E-08  0.93827000000E+00  0.93827000000E+00 0.  1.
     999902    2    1    2    0    0 -0.10018096529E-03 -0.30030038408E-02 -0.13917086622E-01  0.10296922555E+01  0.10295938168E+01 0.  0.
     999903    2    3    3    0    0  0.51431658339E-01 -0.19987486086E-01 -0.12210691588E+00  0.14140793038E+00  0.45181730722E-01 0.  0.
         14    1    1    2    0    0  0.10018096529E-03  0.30030038408E-02  0.13917086622E-01  0.14237744496E-01  0.00000000000E+00 0. -1.
     999901    1    3    3    0    0 -0.51531839305E-01  0.16984482245E-01  0.10818982925E+00  0.88828432512E+00  0.88000000000E+00 0. -1.
        -11    1    4    4    0    0  0.23928906349E-01  0.88735592936E-02 -0.22164081242E-01  0.33805920072E-01  0.51100000000E-03 0.  1.
         11    1    4    4    0    0  0.27502751990E-01 -0.28861045380E-01 -0.99942834634E-01  0.10760201031E+00  0.51100000000E-03 0. -1.
</event>
<event>
 8    1  0.2257781E+004  0.1043930E+01  0.7957747E-01            NaN
         13   -1    0    0    0    0  0.00000000000E+00  0.00000000000E+00  0.74505805969E-08  0.10566000000E+00  0.10566000000E+00 0. -1.
     999900   -1    0    0    0    0 -0.00000000000E+00 -0.00000000000E+00 -0.74505805969E-08  0.93827000000E+00  0.93827000000E+00 0. -1.
     999902    2    1    2    0    0 -0.32733435063E-02  0.13781253433E-01  0.99607164872E-03  0.10297303563E+01  0.10296324474E+01 0.  0.
     999903    2    3    3    0    0 -0.11056182918E+00 -0.55482428897E-01 -0.46093498378E-01  0.13926659817E+00  0.44366167129E-01 0.  0.
         14    1    1    2    0    0  0.32733435063E-02 -0.13781253433E-01 -0.99607164872E-03  0.14199643750E-01  0.00000000000E+00 0.  1.
     999901    1    3    3    0    0  0.10728848567E+00  0.69263682329E-01  0.47089570026E-01  0.89046375808E+00  0.88000000000E+00 0.  1.
        -11    1    4    4    0    0 -0.31974271963E-01 -0.14776824089E-01  0.71982479558E-02  0.35955312436E-01  0.51100000000E-03 0. -1.
         11    1    4    4    0    0 -0.78587557216E-01 -0.40705604807E-01 -0.53291746333E-01  0.10331128573E+00  0.51100000000E-03 0.  1.
</event>
<event>
 8    1  0.2257781E+004  0.1043930E+01  0.7957747E-01            NaN
         13   -1    0    0    0    0  0.00000000000E+00  0.00000000000E+00  0.74505805969E-08  0.10566000000E+00  0.10566000000E+00 0.  1.
     999900   -1    0    0    0    0 -0.00000000000E+00 -0.00000000000E+00 -0.74505805969E-08  0.93827000000E+00  0.93827000000E+00 0. -1.
     999902    2    1    2    0    0  0.13016637093E-01  0.21344700604E-02 -0.35688657909E-02  0.10302652422E+01  0.10301746180E+01 0.  0.
     999903    2    3    3    0    0  0.18819330627E-01 -0.11172445652E+00 -0.69776646048E-01  0.14044447562E+00  0.44937167319E-01 0.  0.
         14    1    1    2    0    0 -0.13016637093E-01 -0.21344700604E-02  0.35688657909E-02  0.13664757835E-01  0.00000000000E+00 0. -1.
     999901    1    3    3    0    0 -0.58026935340E-02  0.11385892658E+00  0.66207780257E-01  0.88982076655E+00  0.88000000000E+00 0.  1.
        -11    1    4    4    0    0 -0.54334670482E-02 -0.36324270949E-01 -0.43631414008E-01  0.57034521419E-01  0.51100000000E-03 0.  1.
         11    1    4    4    0    0  0.24252797675E-01 -0.75400185575E-01 -0.26145232040E-01  0.83409954197E-01  0.51100000000E-03 0. -1.
</event>
<event>
 8    1  0.2257781E+004  0.1043930E+01  0.7957747E-01            NaN
         13   -1    0    0    0    0  0.00000000000E+00  0.00000000000E+00  0.74505805969E-08  0.10566000000E+00  0.10566000000E+00 0. -1.
     999900   -1    0    0    0    0 -0.00000000000E+00 -0.00000000000E+00 -0.74505805969E-08  0.93827000000E+00  0.93827000000E+00 0. -1.
     999902    2    1    2    0    0  0.14059226530E-01  0.22594128717E-02  0.16852040179E-02  0.10295910074E+01  0.10294911538E+01 0.  0.
     999903    2    3    3    0    0 -0.94948758881E-01 -0.28511862431E-01 -0.84129456633E-01  0.13819111492E+00  0.46806256610E-01 0.  0.
         14    1    1    2    0    0 -0.14059226530E-01 -0.22594128717E-02 -0.16852040179E-02  0.14338992633E-01  0.00000000000E+00 0.  1.
     999901    1    3    3    0    0  0.10900798541E+00  0.30771275303E-01  0.85814660651E-01  0.89139989244E+00  0.88000000000E+00 0.  1.
        -11    1    4    4    0    0 -0.75847319277E-01 -0.16607645708E-01 -0.37106794068E-01  0.86056987076E-01  0.51100000000E-03 0. -1.
         11    1    4    4    0    0 -0.19101439604E-01 -0.11904216722E-01 -0.47022662564E-01  0.52134127847E-01  0.51100000000E-03 0.  1.
</event>
<event>
 8    1  0.2257781E+004  0.1043930E+01  0.7957747E-01            NaN
         13   -1    0    0    0    0  0.00000000000E+00  0.00000000000E+00  0.74505805969E-08  0.10566000000E+00  0.10566000000E+00 0. -1.
     999900   -1    0    0    0    0 -0.00000000000E+00 -0.00000000000E+00 -0.74505805969E-08  0.93827000000E+00  0.93827000000E+00 0. -1.
     999902    2    1    2    0    0 -0.12865761286E-01  0.14064666682E-02  0.40417139358E-02  0.10303711869E+01  0.10302819718E+01 0.  0.
     999903    2    3    3    0    0  0.91939775793E-01  0.62552704607E-01  0.71147173312E-01  0.13951418056E+00  0.45127852597E-01 0.  0.
         14    1    1    2    0    0  0.12865761286E-01 -0.14064666682E-02 -0.40417139358E-02  0.13558813130E-01  0.00000000000E+00 0. -1.
     999901    1    3    3    0    0 -0.10480553708E+00 -0.61146237939E-01 -0.67105459376E-01  0.89085700631E+00  0.88000000000E+00 0. -1.
        -11    1    4    4    0    0  0.77769475817E-01  0.28284852268E-01  0.52513449984E-01  0.98010447336E-01  0.51100000000E-03 0. -1.
         11    1    4    4    0    0  0.14170299975E-01  0.34267852339E-01  0.18633723328E-01  0.41503733222E-01  0.51100000000E-03 0.  1.
</event>
<event>
 8    1  0.2257781E+004  0.1043930E+01  0.7957747E-01            NaN
         13   -1    0    0    0    0  0.00000000000E+00  0.00000000000E+00  0.74505805969E-08  0.10566000000E+00  0.10566000000E+00 0. -1.
     999900   -1    0    0    0    0 -0.00000000000E+00 -0.00000000000E+00 -0.74505805969E-08  0.93827000000E+00  0.93827000000E+00 0. -1.
     999902    2    1    2    0    0 -0.75987767726E-02 -0.11094523683E-01  0.48241948627E-02  0.10296435477E+01  0.10295444296E+01 0.  0.
     999903    2    3    3    0    0  0.87688618943E-01 -0.95630885537E-01 -0.27024411358E-01  0.13990177728E+00  0.44806565539E-01 0.  0.
         14    1    1    2    0    0  0.75987767726E-02  0.11094523683E-01 -0.48241948627E-02  0.14286452333E-01  0.00000000000E+00 0. -1.
     999901    1    3    3    0    0 -0.95287395716E-01  0.84536361854E-01  0.31848606221E-01  0.88974177039E+00  0.88000000000E+00 0. -1.
        -11    1    4    4    0    0  0.12691722803E-01  0.17361878302E-03 -0.11702644949E-01  0.17272029151E-01  0.51100000000E-03 0. -1.
         11    1    4    4    0    0  0.74996896141E-01 -0.95804504320E-01 -0.15321766409E-01  0.12262974813E+00  0.51100000000E-03 0.  1.
</event>
<event>
 8    1  0.2257781E+004  0.1043930E+01  0.7957747E-01            NaN
         13   -1    0    0    0    0  0.00000000000E+00  0.00000000000E+00  0.74505805969E-08  0.10566000000E+00  0.10566000000E+00 0. -1.
     999900   -1    0    0    0    0 -0.00000000000E+00 -0.00000000000E+00 -0.74505805969E-08  0.93827000000E+00  0.93827000000E+00 0.  1.
     999902    2    1    2    0    0  0.40260921892E-02 -0.75486678752E-02 -0.10079613867E-01  0.10307091672E+01  0.10306243723E+01 0.  0.
     999903    2    3    3    0    0  0.10521097148E+00  0.68036293520E-01 -0.46958004109E-01  0.14092746256E+00  0.44240363911E-01 0.  0.
         14    1    1    2    0    0 -0.40260921892E-02  0.75486678752E-02  0.10079613867E-01  0.13220832830E-01  0.00000000000E+00 0. -1.
     999901    1    3    3    0    0 -0.10118487929E+00 -0.75584961395E-01  0.36878390242E-01  0.88978170461E+00  0.88000000000E+00 0. -1.
        -11    1    4    4    0    0  0.10588050148E+00  0.64747826553E-01 -0.35660977649E-01  0.12913143725E+00  0.51100000000E-03 0.  1.
         11    1    4    4    0    0 -0.66953000353E-03  0.32884669670E-02 -0.11297026460E-01  0.11796025316E-01  0.51100000000E-03 0. -1.
</event>
<event>
 8    1  0.2257781E+004  0.1043930E+01  0.7957747E-01            NaN
         13   -1    0    0    0    0  0.00000000000E+00  0.00000000000E+00  0.74505805969E-08  0.10566000000E+00  0.10566000000E+00 0.  1.
     999900   -1    0    0    0    0 -0.00000000000E+00 -0.00000000000E+00 -0.74505805969E-08  0.93827000000E+00  0.93827000000E+00 0.  1.
     999902    2    1    2    0    0  0.48530524901E-02  0.63646440806E-02 -0.11016590845E-01  0.10303128752E+01  0.10302228860E+01 0.  0.
     999903    2    3    3    0    0 -0.92307614503E-01  0.36022682573E-01  0.86575297984E-01  0.13910921097E+00  0.45141566211E-01 0.  0.
         14    1    1    2    0    0 -0.48530524901E-02 -0.63646440806E-02  0.11016590845E-01  0.13617124755E-01  0.00000000000E+00 0.  1.
     999901    1    3    3    0    0  0.97160666993E-01 -0.29658038493E-01 -0.97591888828E-01  0.89120366428E+00  0.88000000000E+00 0.  1.
        -11    1    4    4    0    0 -0.29542309486E-01 -0.74763595040E-02  0.37541110905E-01  0.48355352653E-01  0.51100000000E-03 0. -1.
         11    1    4    4    0    0 -0.62765305016E-01  0.43499042077E-01  0.49034187078E-01  0.90753858314E-01  0.51100000000E-03 0.  1.
</event>
<event>
 8    1  0.2257781E+004  0.1043930E+01  0.7957747E-01            NaN
         13   -1    0    0    0    0  0.00000000000E+00  0.00000000000E+00  0.74505805969E-08  0.10566000000E+00  0.10566000000E+00 0.  1.
     999900   -1    0    0    0    0 -0.00000000000E+00 -0.00000000000E+00 -0.74505805969E-08  0.93827000000E+00  0.93827000000E+00 0.  1.
     999902    2    1    2    0    0  0.44749308765E-02 -0.88037976282E-03 -0.14703223658E-01  0.10285356874E+01  0.10284204760E+01 0.  0.
     999903    2    3    3    0    0 -0.35420836807E-01  0.12284826919E+00 -0.28593851187E-01  0.13887653896E+00  0.46073330937E-01 0.  0.
         14    1    1    2    0    0 -0.44749308765E-02  0.88037976282E-03  0.14703223658E-01  0.15394312613E-01  0.00000000000E+00 0.  1.
     999901    1    3    3    0    0  0.39895767683E-01 -0.12372864895E+00  0.13890627529E-01  0.88965914843E+00  0.88000000000E+00 0. -1.
        -11    1    4    4    0    0 -0.75999770829E-02  0.79378829373E-01 -0.34579402851E-01  0.86918090331E-01  0.51100000000E-03 0. -1.
         11    1    4    4    0    0 -0.27820859724E-01  0.43469439819E-01  0.59855516641E-02  0.51958448627E-01  0.51100000000E-03 0.  1.
</event>
<event>
 8    1  0.2257781E+004  0.1043930E+01  0.7957747E-01            NaN
         13   -1    0    0    0    0  0.00000000000E+00  0.00000000000E+00  0.74505805969E-08  0.10566000000E+00  0.10566000000E+00 0. -1.
     999900   -1    0    0    0    0 -0.00000000000E+00 -0.00000000000E+00 -0.74505805969E-08  0.93827000000E+00  0.93827000000E+00 0.  1.
     999902    2    1    2    0    0  0.26764432064E-02 -0.13936590764E-01 -0.48970033323E-02  0.10289175867E+01  0.10288080617E+01 0.  0.
     999903    2    3    3    0    0 -0.15675944006E-01  0.12741545707E+00  0.13799488363E-01  0.13725241957E+00  0.46554987670E-01 0.  0.
         14    1    1    2    0    0 -0.26764432064E-02  0.13936590764E-01  0.48970033323E-02  0.15012413264E-01  0.00000000000E+00 0. -1.
     999901    1    3    3    0    0  0.18352387212E-01 -0.14135204783E+00 -0.18696491695E-01  0.89166516717E+00  0.88000000000E+00 0.  1.
        -11    1    4    4    0    0 -0.26946168801E-01  0.77659891686E-01 -0.62384481279E-02  0.82439882009E-01  0.51100000000E-03 0.  1.
         11    1    4    4    0    0  0.11270224795E-01  0.49755565384E-01  0.20037936491E-01  0.54812537557E-01  0.51100000000E-03 0. -1.
</event>
<event>
 8    1  0.2257781E+004  0.1043930E+01  0.7957747E-01            NaN
         13   -1    0    0    0    0  0.00000000000E+00  0.00000000000E+00  0.74505805969E-08  0.10566000000E+00  0.10566000000E+00 0.  1.
     999900   -1    0    0    0    0 -0.00000000000E+00 -0.00000000000E+00 -0.74505805969E-08  0.93827000000E+00  0.93827000000E+00 0.  1.
     999902    2    1    2    0    0 -0.13602196789E-01  0.68861001005E-02  0.67780186769E-02  0.10272452864E+01  0.10271097793E+01 0.  0.
     999903    2    3    3    0    0 -0.38619037325E-01 -0.69659960708E-01  0.10367435489E+00  0.13827169749E+00  0.45019443519E-01 0.  0.
         14    1    1    2    0    0  0.13602196789E-01 -0.68861001005E-02 -0.67780186769E-02  0.16684713640E-01  0.00000000000E+00 0.  1.
     999901    1    3    3    0    0  0.25016840536E-01  0.76546060808E-01 -0.96896336215E-01  0.88897358887E+00  0.88000000000E+00 0.  1.
        -11    1    4    4    0    0 -0.11962230944E-01 -0.15679784031E-01  0.61965027284E-01  0.65029811039E-01  0.51100000000E-03 0.  1.
         11    1    4    4    0    0 -0.26656806381E-01 -0.53980176676E-01  0.41709327608E-01  0.73241886452E-01  0.51100000000E-03 0. -1.
</event>
<event>
 8    1  0.2257781E+004  0.1043930E+01  0.7957747E-01            NaN
         13   -1    0    0    0    0  0.00000000000E+00  0.00000000000E+00  0.74505805969E-08  0.10566000000E+00  0.10566000000E+00 0.  1.
     999900   -1    0    0    0    0 -0.00000000000E+00 -0.00000000000E+00 -0.74505805969E-08  0.93827000000E+00  0.93827000000E+00 0. -1.
     999902    2    1    2    0    0 -0.11168314990E-01 -0.60980788223E-02  0.63553482939E-02  0.10297064886E+01  0.10296082480E+01 0.  0.
     999903    2    3    3    0    0 -0.86462778015E-01  0.99837985997E-01  0.13899574946E-01  0.14012871158E+00  0.44714899019E-01 0.  0.
         14    1    1    2    0    0  0.11168314990E-01  0.60980788223E-02 -0.63553482939E-02  0.14223511415E-01  0.00000000000E+00 0.  1.
     999901    1    3    3    0    0  0.75294463025E-01 -0.10593606482E+00 -0.75442266522E-02  0.88957777701E+00  0.88000000000E+00 0. -1.
        -11    1    4    4    0    0 -0.32141778919E-01  0.19612282682E-01 -0.12555542295E-01  0.39694311272E-01  0.51100000000E-03 0.  1.
         11    1    4    4    0    0 -0.54320999096E-01  0.80225703314E-01  0.26455117241E-01  0.10043440030E+00  0.51100000000E-03 0. -1.
</event>
<event>
 8    1  0.2257781E+004  0.1043930E+01  0.7957747E-01            NaN
         13   -1    0    0    0    0  0.00000000000E+00  0.00000000000E+00  0.74505805969E-08  0.10566000000E+00  0.10566000000E+00 0. -1.
     999900   -1    0    0    0    0 -0.00000000000E+00 -0.00000000000E+00 -0.74505805969E-08  0.93827000000E+00  0.93827000000E+00 0.  1.
     999902    2    1    2    0    0 -0.67234030644E-02  0.26361143633E-02 -0.12493781554E-01  0.10294992057E+01  0.10293980603E+01 0.  0.
     999903    2    3    3    0    0  0.29934234342E-02  0.12380745432E+00  0.44919190242E-01  0.13928959008E+00  0.45239473078E-01 0.  0.
         14    1    1    2    0    0  0.67234030644E-02 -0.26361143633E-02  0.12493781554E-01  0.14430794338E-01  0.00000000000E+00 0.  1.
     999901    1    3    3    0    0 -0.97168264986E-02 -0.12117133995E+00 -0.57412971796E-01  0.89020961558E+00  0.88000000000E+00 0. -1.
        -11    1    4    4    0    0  0.15769934339E-01  0.52185422218E-01  0.37472904013E-01  0.66155035918E-01  0.51100000000E-03 0. -1.
         11    1    4    4    0    0 -0.12776510905E-01  0.71622032100E-01  0.74462862287E-02  0.73134554163E-01  0.51100000000E-03 0.  1.
</event>
<event>
 8    1  0.2257781E+004  0.1043930E+01  0.7957747E-01            NaN
         13   -1    0    0    0    0  0.00000000000E+00  0.00000000000E+00  0.74505805969E-08  0.10566000000E+00  0.10566000000E+00 0. -1.
     999900   -1    0    0    0    0 -0.00000000000E+00 -0.00000000000E+00 -0.74505805969E-08  0.93827000000E+00  0.93827000000E+00 0.  1.
     999902    2    1    2    0    0 -0.83904999271E-02  0.31536406344E-02 -0.97705429415E-02  0.10306706845E+01  0.10305853921E+01 0.  0.
     999903    2    3    3    0    0 -0.65401758723E-01  0.82628635642E-01 -0.83938600457E-01  0.14215087086E+00  0.45346443834E-01 0.  0.
         14    1    1    2    0    0  0.83904999271E-02 -0.31536406344E-02  0.97705429415E-02  0.13259315505E-01  0.00000000000E+00 0. -1.
     999901    1    3    3    0    0  0.57011258796E-01 -0.79474995008E-01  0.74168057516E-01  0.88851981363E+00  0.88000000000E+00 0. -1.
        -11    1    4    4    0    0 -0.25577587366E-01  0.67118001343E-01 -0.49049132726E-01  0.86977684621E-01  0.51100000000E-03 0. -1.
         11    1    4    4    0    0 -0.39824171357E-01  0.15510634299E-01 -0.34889467731E-01  0.55173186243E-01  0.51100000000E-03 0.  1.
</event>
<event>
 8    1  0.2257781E+004  0.1043930E+01  0.7957747E-01            NaN
         13   -1    0    0    0    0  0.00000000000E+00  0.00000000000E+00  0.74505805969E-08  0.10566000000E+00  0.10566000000E+00 0. -1.
     999900   -1    0    0    0    0 -0.00000000000E+00 -0.00000000000E+00 -0.74505805969E-08  0.93827000000E+00  0.93827000000E+00 0. -1.
     999902    2    1    2    0    0  0.13546791291E-01  0.53009860743E-02 -0.35545705997E-03  0.10293786304E+01  0.10292757757E+01 0.  0.
     999903    2    3    3    0    0 -0.35360879254E-01  0.81213196365E-01  0.97716173551E-01  0.13933780625E+00  0.44951069315E-01 0.  0.
         14    1    1    2    0    0 -0.13546791291E-01 -0.53009860743E-02  0.35545705997E-03  0.14551369604E-01  0.00000000000E+00 0.  1.
     999901    1    3    3    0    0  0.48907670545E-01 -0.75912210291E-01 -0.98071630611E-01  0.89004082414E+00  0.88000000000E+00 0. -1.
        -11    1    4    4    0    0  0.93915402422E-02  0.15141122545E-01  0.88574984383E-02  0.19904045308E-01  0.51100000000E-03 0.  1.
         11    1    4    4    0    0 -0.44752419497E-01  0.66072073820E-01  0.88858675113E-01  0.11943376095E+00  0.51100000000E-03 0. -1.
</event>
<event>
 8    1  0.2257781E+004  0.1043930E+01  0.7957747E-01            NaN
         13   -1    0    0    0    0  0.00000000000E+00  0.00000000000E+00  0.74505805969E-08  0.10566000000E+00  0.10566000000E+00 0. -1.
     999900   -1    0    0    0    0 -0.00000000000E+00 -0.00000000000E+00 -0.74505805969E-08  0.93827000000E+00  0.93827000000E+00 0.  1.
     999902    2    1    2    0    0 -0.95144772128E-02 -0.16843760695E-01 -0.66428607939E-02  0.10234760236E+01  0.10232716187E+01 0.  0.
     999903    2    3    3    0    0  0.58519708928E-01 -0.89871071296E-01  0.67896682246E-01  0.13470283428E+00  0.45094659488E-01 0.  0.
         14    1    1    2    0    0  0.95144772128E-02  0.16843760695E-01  0.66428607939E-02  0.20453976399E-01  0.00000000000E+00 0. -1.
     999901    1    3    3    0    0 -0.68034186141E-01  0.73027310601E-01 -0.74539543040E-01  0.88877318932E+00  0.88000000000E+00 0.  1.
        -11    1    4    4    0    0  0.28952365458E-01 -0.92182606724E-02  0.16063154275E-01  0.34372981274E-01  0.51100000000E-03 0.  1.
         11    1    4    4    0    0  0.29567343470E-01 -0.80652810624E-01  0.51833527971E-01  0.10032985301E+00  0.51100000000E-03 0. -1.
</event>
<event>
 8    1  0.2257781E+004  0.1043930E+01  0.7957747E-01            NaN
         13   -1    0    0    0    0  0.00000000000E+00  0.00000000000E+00  0.74505805969E-08  0.10566000000E+00  0.10566000000E+00 0.  1.
     999900   -1    0    0    0    0 -0.00000000000E+00 -0.00000000000E+00 -0.74505805969E-08  0.93827000000E+00  0.93827000000E+00 0.  1.
     999902    2    1    2    0    0 -0.33035070716E-02  0.10848367348E-01 -0.51484491679E-02  0.10314758135E+01  0.10314006239E+01 0.  0.
     999903    2    3    3    0    0 -0.12549374142E+00  0.67855708876E-02  0.46894909711E-01  0.14150083018E+00  0.45040307268E-01 0.  0.
         14    1    1    2    0    0  0.33035070716E-02 -0.10848367348E-01  0.51484491679E-02  0.12454186522E-01  0.00000000000E+00 0.  1.
     999901    1    3    3    0    0  0.12219023435E+00  0.40627964607E-02 -0.52043358878E-01  0.88997498329E+00  0.88000000000E+00 0. -1.
        -11    1    4    4    0    0 -0.43569020722E-01 -0.14125608322E-01  0.31415445803E-01  0.55542629873E-01  0.51100000000E-03 0.  1.
         11    1    4    4    0    0 -0.81924720695E-01  0.20911179210E-01  0.15479463907E-01  0.85958200312E-01  0.51100000000E-03 0. -1.
</event>
<event>
 8    1  0.2257781E+004  0.1043930E+01  0.7957747E-01            NaN
         13   -1    0    0    0    0  0.00000000000E+00  0.00000000000E+00  0.74505805969E-08  0.10566000000E+00  0.10566000000E+00 0.  1.
     999900   -1    0    0    0    0 -0.00000000000E+00 -0.00000000000E+00 -0.74505805969E-08  0.93827000000E+00  0.93827000000E+00 0. -1.
     999902    2    1    2    0    0 -0.12006021932E-01 -0.65162145407E-02 -0.21343776010E-02  0.10301038949E+01  0.10300111034E+01 0.  0.
     999903    2    3    3    0    0  0.10165596119E+00 -0.34777804534E-01  0.75577777793E-01  0.13894905820E+00  0.45292495461E-01 0.  0.
         14    1    1    2    0    0  0.12006021932E-01  0.65162145407E-02  0.21343776010E-02  0.13826105103E-01  0.00000000000E+00 0. -1.
     999901    1    3    3    0    0 -0.11366198312E+00  0.28261589993E-01 -0.77712155394E-01  0.89115483670E+00  0.88000000000E+00 0. -1.
        -11    1    4    4    0    0  0.87804214839E-01 -0.26216990384E-01  0.40330005447E-01  0.10011833593E+00  0.51100000000E-03 0. -1.
         11    1    4    4    0    0  0.13851746347E-01 -0.85608141501E-02  0.35247772346E-01  0.38830722272E-01  0.51100000000E-03 0.  1.
</event>
<event>
 8    1  0.2257781E+004  0.1043930E+01  0.7957747E-01            NaN
         13   -1    0    0    0    0  0.00000000000E+00  0.00000000000E+00  0.74505805969E-08  0.10566000000E+00  0.10566000000E+00 0. -1.
     999900   -1    0    0    0    0 -0.00000000000E+00 -0.00000000000E+00 -0.74505805969E-08  0.93827000000E+00  0.93827000000E+00 0. -1.
     999902    2    1    2    0    0 -0.49467867143E-02 -0.12800900557E-01  0.33690272148E-02  0.10297990376E+01  0.10297020801E+01 0.  0.
     999903    2    3    3    0    0 -0.11365235876E+00 -0.15327139531E-01 -0.66844874865E-01  0.14033106442E+00  0.45527908882E-01 0.  0.
         14    1    1    2    0    0  0.49467867143E-02  0.12800900557E-01 -0.33690272148E-02  0.14130962396E-01  0.00000000000E+00 0.  1.
     999901    1    3    3    0    0  0.10870557205E+00  0.25262389741E-02  0.70213902079E-01  0.88946797319E+00  0.88000000000E+00 0.  1.
        -11    1    4    4    0    0 -0.27000300459E-01 -0.16407188498E-01 -0.37043467035E-01  0.48689748719E-01  0.51100000000E-03 0.  1.
         11    1    4    4    0    0 -0.86652058301E-01  0.10800489670E-02 -0.29801407829E-01  0.91641315700E-01  0.51100000000E-03 0. -1.
</event>
<event>
 7    1  0.2257781E+004  0.1043930E+01  0.7957747E-01            NaN
         13   -1    0    0    0    0  0.00000000000E+00  0.00000000000E+00  0.74505805969E-08  0.10566000000E+00  0.10566000000E+00 0. -1.
     999900   -1    0    0    0    0 -0.00000000000E+00 -0.00000000000E+00 -0.74505805969E-08  0.93827000000E+00  0.93827000000E+00 0.  1.
     999902    2    1    2    0    0 -0.12322787530E-01  0.32941910159E-02 -0.56586385494E-02  0.10299756825E+01  0.10298811502E+01 0.  0.
         14    1    1    2    0    0  0.12322787530E-01 -0.32941910159E-02  0.56586385494E-02  0.13954317511E-01  0.00000000000E+00 0. -1.
     999901    1    3    3    0    0  0.69832088169E-01 -0.16004515969E-01  0.52676039251E-01  0.88448144705E+00  0.88000000000E+00 0. -1.
        -11    1    3    3    0    0 -0.77949773377E-01 -0.29627722395E-01 -0.29000333200E-01  0.88290710444E-01  0.51100000000E-03 0.  1.
         11    1    3    3    0    0 -0.42051023215E-02  0.48926429381E-01 -0.29334344600E-01  0.57203524993E-01  0.51100000000E-03 0. -1.
</event>
<event>
 8    1  0.2257781E+004  0.1043930E+01  0.7957747E-01            NaN
         13   -1    0    0    0    0  0.00000000000E+00  0.00000000000E+00  0.74505805969E-08  0.10566000000E+00  0.10566000000E+00 0.  1.
     999900   -1    0    0    0    0 -0.00000000000E+00 -0.00000000000E+00 -0.74505805969E-08  0.93827000000E+00  0.93827000000E+00 0.  1.
     999902    2    1    2    0    0 -0.11780937932E-01 -0.10360084381E-01  0.21908886502E-02  0.10280894874E+01  0.10279674471E+01 0.  0.
     999903    2    3    3    0    0 -0.55219787424E-01 -0.37371465150E-01 -0.11315101209E+00  0.13908987973E+00  0.45792922772E-01 0.  0.
         14    1    1    2    0    0  0.11780937932E-01  0.10360084381E-01 -0.21908886502E-02  0.15840512619E-01  0.00000000000E+00 0.  1.
     999901    1    3    3    0    0  0.43438849492E-01  0.27011380769E-01  0.11534190074E+00  0.88899960765E+00  0.88000000000E+00 0. -1.
        -11    1    4    4    0    0 -0.28773307413E-01 -0.29852216418E-01 -0.10070059868E+00  0.10890330455E+00  0.51100000000E-03 0.  1.
         11    1    4    4    0    0 -0.26446480011E-01 -0.75192487316E-02 -0.12450413406E-01  0.30186575186E-01  0.51100000000E-03 0. -1.
</event>
<event>
 8    1  0.2257781E+004  0.1043930E+01  0.7957747E-01            NaN
         13   -1    0    0    0    0  0.00000000000E+00  0.00000000000E+00  0.74505805969E-08  0.10566000000E+00  0.10566000000E+00 0.  1.
     999900   -1    0    0    0    0 -0.00000000000E+00 -0.00000000000E+00 -0.74505805969E-08  0.93827000000E+00  0.93827000000E+00 0.  1.
     999902    2    1    2    0    0  0.64584435674E-02 -0.10692676237E-01 -0.63111105007E-02  0.10299344673E+01  0.10298393720E+01 0.  0.
     999903    2    3    3    0    0  0.11206594894E+00  0.37918879424E-01  0.59627445019E-01  0.13984238130E+00  0.44764283531E-01 0.  0.
         14    1    1    2    0    0 -0.64584435674E-02  0.10692676237E-01  0.63111105007E-02  0.13995532651E-01  0.00000000000E+00 0.  1.
     999901    1    3    3    0    0 -0.10560750538E+00 -0.48611555661E-01 -0.65938555519E-01  0.89009208604E+00  0.88000000000E+00 0.  1.
        -11    1    4    4    0    0  0.10420598404E+00  0.28758136519E-01  0.37121338368E-01  0.11429861071E+00  0.51100000000E-03 0.  1.
         11    1    4    4    0    0  0.78599649027E-02  0.91607429048E-02  0.22506106651E-01  0.25543770599E-01  0.51100000000E-03 0. -1.
</event>
<event>
 8    1  0.2257781E+004  0.1043930E+01  0.7957747E-01            NaN
         13   -1    0    0    0    0  0.00000000000E+00  0.00000000000E+00  0.74505805969E-08  0.10566000000E+00  0.10566000000E+00 0.  1.
     999900   -1    0    0    0    0 -0.00000000000E+00 -0.00000000000E+00 -0.74505805969E-08  0.93827000000E+00  0.93827000000E+00 0. -1.
     999902    2    1    2    0    0  0.99731656479E-02  0.12834760549E-01  0.25199345622E-02  0.10274817423E+01  0.10273500794E+01 0.  0.
     999903    2    3    3    0    0  0.61918371598E-01  0.88131620975E-03  0.11583526913E+00  0.13861642387E+00  0.44294942502E-01 0.  0.
         14    1    1    2    0    0 -0.99731656479E-02 -0.12834760549E-01 -0.25199345622E-02  0.16448257707E-01  0.00000000000E+00 0. -1.
     999901    1    3    3    0    0 -0.51945205951E-01  0.11953444339E-01 -0.11331533457E+00  0.88886531843E+00  0.88000000000E+00 0. -1.
        -11    1    4    4    0    0  0.14523368907E-01  0.56260413327E-02  0.72707134732E-01  0.74358383168E-01  0.51100000000E-03 0. -1.
         11    1    4    4    0    0  0.47395002692E-01 -0.47447251230E-02  0.43128134399E-01  0.64258040699E-01  0.51100000000E-03 0.  1.
</event>
<event>
 8    1  0.2257781E+004  0.1043930E+01  0.7957747E-01            NaN
         13   -1    0    0    0    0  0.00000000000E+00  0.00000000000E+00  0.74505805969E-08  0.10566000000E+00  0.10566000000E+00 0.  1.
     999900   -1    0    0    0    0 -0.00000000000E+00 -0.00000000000E+00 -0.74505805969E-08  0.93827000000E+00  0.93827000000E+00 0. -1.
     999902    2    1    2    0    0  0.13947569135E-02  0.12368425557E-01 -0.48784411397E-02  0.10305612871E+01  0.10304745722E+01 0.  0.
     999903    2    3    3    0    0 -0.24772480333E-01 -0.12905459596E+00 -0.56155347256E-02  0.13888548352E+00  0.44596847215E-01 0.  0.
         14    1    1    2    0    0 -0.13947569135E-02 -0.12368425557E-01  0.48784411397E-02  0.13368712935E-01  0.00000000000E+00 0.  1.
     999901    1    3    3    0    0  0.26167237247E-01  0.14142302152E+00  0.73709358595E-03  0.89167580354E+00  0.88000000000E+00 0.  1.
        -11    1    4    4    0    0 -0.24358615619E-01 -0.44922346641E-01  0.12965935613E-01  0.52723201628E-01  0.51100000000E-03 0.  1.
         11    1    4    4    0    0 -0.41386471397E-03 -0.84132249321E-01 -0.18581470339E-01  0.86162281892E-01  0.51100000000E-03 0. -1.
</event>
<event>
 8    1  0.2257781E+004  0.1043930E+01  0.7957747E-01            NaN
         13   -1    0    0    0    0  0.00000000000E+00  0.00000000000E+00  0.74505805969E-08  0.10566000000E+00  0.10566000000E+00 0.  1.
     999900   -1    0    0    0    0 -0.00000000000E+00 -0.00000000000E+00 -0.74505805969E-08  0.93827000000E+00  0.93827000000E+00 0.  1.
     999902    2    1    2    0    0 -0.36644075673E-02 -0.53350442571E-02  0.12341657512E-01  0.10299941796E+01  0.10298998995E+01 0.  0.
     999903    2    3    3    0    0 -0.35719386852E-01 -0.10254094079E+00 -0.75447088235E-01  0.13972266377E+00  0.45162379391E-01 0.  0.
         14    1    1    2    0    0  0.36644075673E-02  0.53350442571E-02 -0.12341657512E-01  0.13935820398E-01  0.00000000000E+00 0. -1.
     999901    1    3    3    0    0  0.32054979284E-01  0.97205896537E-01  0.87788745746E-01  0.89027151583E+00  0.88000000000E+00 0. -1.
        -11    1    4    4    0    0 -0.31077916500E-01 -0.25202664728E-01 -0.28537284184E-01  0.49149251398E-01  0.51100000000E-03 0.  1.
         11    1    4    4    0    0 -0.46414703518E-02 -0.77338276066E-01 -0.46909804051E-01  0.90573412374E-01  0.51100000000E-03 0. -1.
</event>
<event>
 8    1  0.2257781E+004  0.1043930E+01  0.7957747E-01            NaN
         13   -1    0    0    0    0  0.00000000000E+00  0.00000000000E+00  0.74505805969E-08  0.10566000000E+00  0.10566000000E+00 0. -1.
     999900   -1    0    0    0    0 -0.00000000000E+00 -0.00000000000E+00 -0.74505805969E-08  0.93827000000E+00  0.93827000000E+00 0. -1.
     999902    2    1    2    0    0  0.12635932985E-02  0.65171657178E-02 -0.15538847223E-01  0.10270324886E+01  0.10268934739E+01 0.  0.
     999903    2    3    3    0    0  0.64383103395E-02 -0.28632215779E-01  0.12463552229E+00  0.13523031855E+00  0.43496781701E-01 0.  0.
         14    1    1    2    0    0 -0.12635932985E-02 -0.65171657178E-02  0.15538847223E-01  0.16897511356E-01  0.00000000000E+00 0. -1.
     999901    1    3    3    0    0 -0.51747170410E-02  0.35149381497E-01 -0.14017436951E+00  0.89180217009E+00  0.88000000000E+00 0. -1.
        -11    1    4    4    0    0 -0.16215683445E-01 -0.75543687890E-03  0.45827537927E-01  0.48620401355E-01  0.51100000000E-03 0. -1.
         11    1    4    4    0    0  0.22653993785E-01 -0.27876778901E-01  0.78807984363E-01  0.86609917195E-01  0.51100000000E-03 0.  1.
</event>
<event>
 7    1  0.2257781E+004  0.1043930E+01  0.7957747E-01            NaN
         13   -1    0    0    0    0  0.00000000000E+00  0.00000000000E+00  0.74505805969E-08  0.10566000000E+00  0.10566000000E+00 0. -1.
     999900   -1    0    0    0    0 -0.00000000000E+00 -0.00000000000E+00 -0.74505805969E-08  0.93827000000E+00  0.93827000000E+00 0.  1.
     999902    2    1    2    0    0  0.16971059810E-02  0.14180534941E-01  0.38427449541E-02  0.10291403270E+01  0.10290340510E+01 0.  0.
         14    1    1    2    0    0 -0.16971059810E-02 -0.14180534941E-01 -0.38427449541E-02  0.14789673042E-01  0.00000000000E+00 0.  1.
     999901    1    3    3    0    0  0.12145377701E+00 -0.41294156073E-01 -0.32365776843E-01  0.88988975204E+00  0.88000000000E+00 0. -1.
        -11    1    3    3    0    0 -0.78195169439E-01  0.24272270548E-01  0.15652708279E-01  0.83360038620E-01  0.51100000000E-03 0. -1.
         11    1    3    3    0    0 -0.41561501589E-01  0.31202420466E-01  0.20555813518E-01  0.55890536298E-01  0.51100000000E-03 0.  1.
</event>
<event>
 8    1  0.2257781E+004  0.1043930E+01  0.7957747E-01            NaN
         13   -1    0    0    0    0  0.00000000000E+00  0.00000000000E+00  0.74505805969E-08  0.10566000000E+00  0.10566000000E+00 0.  1.
     999900   -1    0    0    0    0 -0.00000000000E+00 -0.00000000000E+00 -0.74505805969E-08  0.93827000000E+00  0.93827000000E+00 0. -1.
     999902    2    1    2    0    0  0.13727962952E-01  0.39323078423E-02 -0.17652742172E-02  0.10295412473E+01  0.10294406946E+01 0.  0.
     999903    2    3    3    0    0  0.12580215267E+00 -0.14176353582E-01  0.45009836973E-01  0.14101636938E+00  0.42808648552E-01 0.  0.
         14    1    1    2    0    0 -0.13727962952E-01 -0.39323078423E-02  0.17652742172E-02  0.14388752721E-01  0.00000000000E+00 0.  1.
     999901    1    3    3    0    0 -0.11207418972E+00  0.18108661424E-01 -0.46775111190E-01  0.88852487790E+00  0.88000000000E+00 0. -1.
        -11    1    4    4    0    0  0.71748788920E-01 -0.27807389548E-01  0.34300137727E-01  0.84249036755E-01  0.51100000000E-03 0.  1.
         11    1    4    4    0    0  0.54053363752E-01  0.13631035966E-01  0.10709699246E-01  0.56767332625E-01  0.51100000000E-03 0. -1.
</event>
<event>
 8    1  0.2257781E+004  0.1043930E+01  0.7957747E-01            NaN
         13   -1    0    0    0    0  0.00000000000E+00  0.00000000000E+00  0.74505805969E-08  0.10566000000E+00  0.10566000000E+00 0. -1.
     999900   -1    0    0    0    0 -0.00000000000E+00 -0.00000000000E+00 -0.74505805969E-08  0.93827000000E+00  0.93827000000E+00 0. -1.
     999902    2    1    2    0    0 -0.13030898606E-01  0.39747820351E-02  0.63614697726E-02  0.10288943255E+01  0.10287844582E+01 0.  0.
     999903    2    3    3    0    0  0.62645156702E-01 -0.93553933928E-01 -0.64605240240E-01  0.13744887582E+00  0.45184092177E-01 0.  0.
         14    1    1    2    0    0  0.13030898606E-01 -0.39747820351E-02 -0.63614697726E-02  0.15035674523E-01  0.00000000000E+00 0.  1.
     999901    1    3    3    0    0 -0.75676055308E-01  0.97528715964E-01  0.70966710013E-01  0.89144544966E+00  0.88000000000E+00 0. -1.
        -11    1    4    4    0    0  0.21557482490E-01 -0.63255699649E-01 -0.20282691570E-01  0.69840226859E-01  0.51100000000E-03 0. -1.
         11    1    4    4    0    0  0.41087674212E-01 -0.30298234279E-01 -0.44322548671E-01  0.67608648961E-01  0.51100000000E-03 0.  1.
</event>
<event>
 8    1  0.2257781E+004  0.1043930E+01  0.7957747E-01            NaN
         13   -1    0    0    0    0  0.00000000000E+00  0.00000000000E+00  0.74505805969E-08  0.10566000000E+00  0.10566000000E+00 0. -1.
     999900   -1    0    0    0    0 -0.00000000000E+00 -0.00000000000E+00 -0.74505805969E-08  0.93827000000E+00  0.93827000000E+00 0.  1.
     999902    2    1    2    0    0 -0.41072922029E-02  0.12902130185E-01 -0.16784528572E-03  0.10303888411E+01  0.10302998597E+01 0.  0.
     999903    2    3    3    0    0  0.14033134745E-01 -0.58794592091E-01 -0.11743664949E+00  0.13953449412E+00  0.44997505222E-01 0.  0.
         14    1    1    2    0    0  0.41072922029E-02 -0.12902130185E-01  0.16784528572E-03  0.13541158909E-01  0.00000000000E+00 0. -1.
     999901    1    3    3    0    0 -0.18140426948E-01  0.71696722276E-01  0.11726880421E+00  0.89085434697E+00  0.88000000000E+00 0. -1.
        -11    1    4    4    0    0 -0.96510975533E-02 -0.44445813726E-01 -0.88349774282E-01  0.99370608222E-01  0.51100000000E-03 0. -1.
         11    1    4    4    0    0  0.23684232298E-01 -0.14348778365E-01 -0.29086875209E-01  0.40163885900E-01  0.51100000000E-03 0.  1.
</event>
<event>
 8    1  0.2257781E+004  0.1043930E+01  0.7957747E-01            NaN
         13   -1    0    0    0    0  0.00000000000E+00  0.00000000000E+00  0.74505805969E-08  0.10566000000E+00  0.10566000000E+00 0.  1.
     999900   -1    0    0    0    0 -0.00000000000E+00 -0.00000000000E+00 -0.74505805969E-08  0.93827000000E+00  0.93827000000E+00 0. -1.
     999902    2    1    2    0    0  0.37720640398E-02  0.50666126889E-02 -0.12331100871E-01  0.10300752145E+01  0.10299820351E+01 0.  0.
     999903    2    3    3    0    0  0.90219974096E-01 -0.47670498569E-01  0.83206479208E-01  0.13913084296E+00  0.44966133039E-01 0.  0.
         14    1    1    2    0    0 -0.37720640398E-02 -0.50666126889E-02  0.12331100871E-01  0.13854785453E-01  0.00000000000E+00 0.  1.
     999901    1    3    3    0    0 -0.86447910057E-01  0.52737111258E-01 -0.95537580079E-01  0.89094437159E+00  0.88000000000E+00 0. -1.
        -11    1    4    4    0    0  0.12756790805E-01  0.74223328000E-02  0.20453139266E-01  0.25227341570E-01  0.51100000000E-03 0. -1.
         11    1    4    4    0    0  0.77463183291E-01 -0.55092831369E-01  0.62753339942E-01  0.11390350139E+00  0.51100000000E-03 0.  1.
</event>
<event>
 8    1  0.2257781E+004  0.1043930E+01  0.7957747E-01            NaN
         13   -1    0    0    0    0  0.00000000000E+00  0.00000000000E+00  0.74505805969E-08  0.10566000000E+00  0.10566000000E+00 0.  1.
     999900   -1    0    0    0    0 -0.00000000000E+00 -0.00000000000E+00 -0.74505805969E-08  0.93827000000E+00  0.93827000000E+00 0. -1.
     999902    2    1    2    0    0  0.86112964035E-02 -0.97066200856E-02 -0.53706661183E-02  0.10298866046E+01  0.10297908532E+01 0.  0.
     999903    2    3    3    0    0 -0.34734124415E-02 -0.55709380513E-04  0.13165702197E+00  0.13914771607E+00  0.44904874531E-01 0.  0.
         14    1    1    2    0    0 -0.86112964035E-02  0.97066200856E-02  0.53706661183E-02  0.14043395380E-01  0.00000000000E+00 0. -1.
     999901    1    3    3    0    0  0.12084708845E-01 -0.96509107051E-02 -0.13702768809E+00  0.89073888855E+00  0.88000000000E+00 0. -1.
        -11    1    4    4    0    0 -0.48240586647E-02 -0.21547308015E-01  0.83887536204E-01  0.86746399787E-01  0.51100000000E-03 0. -1.
         11    1    4    4    0    0  0.13506462232E-02  0.21491598634E-01  0.47769485768E-01  0.52401316287E-01  0.51100000000E-03 0.  1.
</event>
<event>
 8    1  0.2257781E+004  0.1043930E+01  0.7957747E-01            NaN
         13   -1    0    0    0    0  0.00000000000E+00  0.00000000000E+00  0.74505805969E-08  0.10566000000E+00  0.10566000000E+00 0.  1.
     999900   -1    0    0    0    0 -0.00000000000E+00 -0.00000000000E+00 -0.74505805969E-08  0.93827000000E+00  0.93827000000E+00 0. -1.
     999902    2    1    2    0    0  0.79916968945E-02  0.87480317931E-02  0.37767639793E-02  0.10314937938E+01  0.10314188225E+01 0.  0.
     999903    2    3    3    0    0 -0.10817085955E+00  0.79237625078E-01 -0.37488170129E-02  0.14103371231E+00  0.43553625504E-01 0.  0.
         14    1    1    2    0    0 -0.79916968945E-02 -0.87480317931E-02 -0.37767639793E-02  0.12436206241E-01  0.00000000000E+00 0.  1.
     999901    1    3    3    0    0  0.11616255645E+00 -0.70489593285E-01  0.75255809923E-02  0.89046008145E+00  0.88000000000E+00 0.  1.
        -11    1    4    4    0    0 -0.63774964257E-01  0.31308383253E-01  0.15909346955E-01  0.72806794803E-01  0.51100000000E-03 0.  1.
         11    1    4    4    0    0 -0.44395895297E-01  0.47929241825E-01 -0.19658163968E-01  0.68226917509E-01  0.51100000000E-03 0. -1.
</event>
<event>
 7    1  0.2257781E+004  0.1043930E+01  0.7957747E-01            NaN
         13   -1    0    0    0    0  0.00000000000E+00  0.00000000000E+00  0.74505805969E-08  0.10566000000E+00  0.10566000000E+00 0.  1.
     999900   -1    0    0    0    0 -0.00000000000E+00 -0.00000000000E+00 -0.74505805969E-08  0.93827000000E+00  0.93827000000E+00 0.  1.
     999903    2    1    2    0    0 -0.65225851412E-01  0.66453841412E-01 -0.49295107031E-01  0.11459061395E+00  0.45060808889E-01 0.  0.
         14    1    1    2    0    0 -0.15523449164E-01 -0.38419466122E-01  0.16465073145E-01  0.44588468069E-01  0.00000000000E+00 0.  1.
     999901    1    1    2    0    0  0.80749300576E-01 -0.28034375290E-01  0.32830033886E-01  0.88475091798E+00  0.88000000000E+00 0. -1.
        -11    1    3    3    0    0 -0.29368911491E-01  0.59078536862E-01 -0.38642507887E-01  0.76461173263E-01  0.51100000000E-03 0. -1.
         11    1    3    3    0    0 -0.35856939921E-01  0.73753045496E-02 -0.10652599144E-01  0.38129440688E-01  0.51100000000E-03 0.  1.
</event>
<event>
 8    1  0.2257781E+004  0.1043930E+01  0.7957747E-01            NaN
         13   -1    0    0    0    0  0.00000000000E+00  0.00000000000E+00  0.74505805969E-08  0.10566000000E+00  0.10566000000E+00 0. -1.
     999900   -1    0    0    0    0 -0.00000000000E+00 -0.00000000000E+00 -0.74505805969E-08  0.93827000000E+00  0.93827000000E+00 0. -1.
     999902    2    1    2    0    0 -0.54431574809E-02  0.70032977432E-02 -0.10473350814E-01  0.10302053791E+01  0.10301139538E+01 0.  0.
     999903    2    3    3    0    0  0.10544515886E+00 -0.78480550245E-01  0.66012860282E-02  0.13897294575E+00  0.44632100329E-01 0.  0.
         14    1    1    2    0    0  0.54431574809E-02 -0.70032977432E-02  0.10473350814E-01  0.13724620939E-01  0.00000000000E+00 0. -1.
     999901    1    3    3    0    0 -0.11088831634E+00  0.85483847988E-01 -0.17074636842E-01  0.89123243331E+00  0.88000000000E+00 0. -1.
        -11    1    4    4    0    0  0.75947851978E-01 -0.29232754231E-01  0.25267197411E-02  0.81420363384E-01  0.51100000000E-03 0.  1.
         11    1    4    4    0    0  0.29497306878E-01 -0.49247796014E-01  0.40745662871E-02  0.57552582364E-01  0.51100000000E-03 0. -1.
</event>
<event>
 8    1  0.2257781E+004  0.1043930E+01  0.7957747E-01            NaN
         13   -1    0    0    0    0  0.00000000000E+00  0.00000000000E+00  0.74505805969E-08  0.10566000000E+00  0.10566000000E+00 0. -1.
     999900   -1    0    0    0    0 -0.00000000000E+00 -0.00000000000E+00 -0.74505805969E-08  0.93827000000E+00  0.93827000000E+00 0.  1.
     999902    2    1    2    0    0  0.73697370870E-02 -0.24331808676E-02  0.10895630092E-01  0.10305528497E+01  0.10304660247E+01 0.  0.
     999903    2    3    3    0    0 -0.25800231017E-01 -0.92174695331E-01  0.93366879427E-01  0.14153356246E+00  0.46395568192E-01 0.  0.
         14    1    1    2    0    0 -0.73697370870E-02  0.24331808676E-02 -0.10895630092E-01  0.13377150256E-01  0.00000000000E+00 0.  1.
     999901    1    3    3    0    0  0.33169968104E-01  0.89741514463E-01 -0.82471249335E-01  0.88901928729E+00  0.88000000000E+00 0.  1.
        -11    1    4    4    0    0  0.11946715838E-01 -0.11604899132E-01  0.21238016716E-01  0.26994669440E-01  0.51100000000E-03 0.  1.
         11    1    4    4    0    0 -0.37746946855E-01 -0.80569796198E-01  0.72128862712E-01  0.11453889302E+00  0.51100000000E-03 0. -1.
</event>
<event>
 8    1  0.2257781E+004  0.1043930E+01  0.7957747E-01            NaN
         13   -1    0    0    0    0  0.00000000000E+00  0.00000000000E+00  0.74505805969E-08  0.10566000000E+00  0.10566000000E+00 0. -1.
     999900   -1    0    0    0    0 -0.00000000000E+00 -0.00000000000E+00 -0.74505805969E-08  0.93827000000E+00  0.93827000000E+00 0.  1.
     999902    2    1    2    0    0 -0.32525907598E-02 -0.81402100719E-03  0.13845890506E-01  0.10296839247E+01  0.10295853700E+01 0.  0.
     999903    2    3    3    0    0  0.66985591659E-01  0.11030376447E+00  0.13858202944E-01  0.13991959375E+00  0.52263304350E-01 0.  0.
         14    1    1    2    0    0  0.32525907598E-02  0.81402100719E-03 -0.13845890506E-01  0.14246075276E-01  0.00000000000E+00 0.  1.
     999901    1    3    3    0    0 -0.70238182419E-01 -0.11111778547E+00 -0.12312438052E-04  0.88976433097E+00  0.88000000000E+00 0.  1.
        -11    1    4    4    0    0  0.20182648708E-01  0.37782529179E-01 -0.19905091754E-01  0.47236983591E-01  0.51100000000E-03 0. -1.
         11    1    4    4    0    0  0.46802942951E-01  0.72521235288E-01  0.33763294698E-01  0.92682610162E-01  0.51100000000E-03 0.  1.
</event>
<event>
 8    1  0.2257781E+004  0.1043930E+01  0.7957747E-01            NaN
         13   -1    0    0    0    0  0.00000000000E+00  0.00000000000E+00  0.74505805969E-08  0.10566000000E+00  0.10566000000E+00 0.  1.
     999900   -1    0    0    0    0 -0.00000000000E+00 -0.00000000000E+00 -0.74505805969E-08  0.93827000000E+00  0.93827000000E+00 0.  1.
     999902    2    1    2    0    0 -0.23543722917E-03  0.13888608218E-01  0.22455779419E-02  0.10298590551E+01  0.10297629251E+01 0.  0.
     999903    2    3    3    0    0 -0.11789748419E-01  0.12711768284E+00 -0.41437226065E-01  0.14145457923E+00  0.44659274778E-01 0.  0.
         14    1    1    2    0    0  0.23543722917E-03 -0.13888608218E-01 -0.22455779419E-02  0.14070944859E-01  0.00000000000E+00 0. -1.
     999901    1    3    3    0    0  0.11554311190E-01 -0.11322907462E+00  0.43682804007E-01  0.88840447591E+00  0.88000000000E+00 0. -1.
        -11    1    4    4    0    0 -0.22035245090E-01  0.69332847817E-01 -0.62358029067E-02  0.73018779581E-01  0.51100000000E-03 0.  1.
         11    1    4    4    0    0  0.10245496671E-01  0.57784835023E-01 -0.35201423159E-01  0.68435799652E-01  0.51100000000E-03 0. -1.
</event>
<event>
 8    1  0.2257781E+004  0.1043930E+01  0.7957747E-01            NaN
         13   -1    0    0    0    0  0.00000000000E+00  0.00000000000E+00  0.74505805969E-08  0.10566000000E+00  0.10566000000E+00 0.  1.
     999900   -1    0    0    0    0 -0.00000000000E+00 -0.00000000000E+00 -0.74505805969E-08  0.93827000000E+00  0.93827000000E+00 0.  1.
     999902    2    1    2    0    0  0.58993000476E-02  0.11614987150E-01 -0.58661093654E-02  0.10296429112E+01  0.10295437842E+01 0.  0.
     999903    2    3    3    0    0 -0.20349278181E-01 -0.58942925078E-01  0.11520151899E+00  0.13816953667E+00  0.43943934151E-01 0.  0.
         14    1    1    2    0    0 -0.58993000476E-02 -0.11614987150E-01  0.58661093654E-02  0.14287088809E-01  0.00000000000E+00 0.  1.
     999901    1    3    3    0    0  0.26248578228E-01  0.70557912228E-01 -0.12106762835E+00  0.89147337452E+00  0.88000000000E+00 0.  1.
        -11    1    4    4    0    0 -0.91833863172E-02 -0.31313125206E-01  0.99010543167E-01  0.10425063632E+00  0.51100000000E-03 0.  1.
         11    1    4    4    0    0 -0.11165891863E-01 -0.27629799872E-01  0.16190975820E-01  0.33918900352E-01  0.51100000000E-03 0. -1.
</event>
<event>
 8    1  0.2257781E+004  0.1043930E+01  0.7957747E-01            NaN
         13   -1    0    0    0    0  0.00000000000E+00  0.00000000000E+00  0.74505805969E-08  0.10566000000E+00  0.10566000000E+00 0.  1.
     999900   -1    0    0    0    0 -0.00000000000E+00 -0.00000000000E+00 -0.74505805969E-08  0.93827000000E+00  0.93827000000E+00 0.  1.
     999902    2    1    2    0    0 -0.11235597801E-01 -0.62096113207E-02  0.50451054370E-02  0.10301368488E+01  0.10300445021E+01 0.  0.
     999903    2    3    3    0    0  0.70541756927E-01 -0.77155063290E-01 -0.80233879137E-01  0.13941057318E+00  0.45483945423E-01 0.  0.
         14    1    1    2    0    0  0.11235597801E-01  0.62096113207E-02 -0.50451054370E-02  0.13793151183E-01  0.00000000000E+00 0. -1.
     999901    1    3    3    0    0 -0.81777354727E-01  0.70945451969E-01  0.85278984574E-01  0.89072627564E+00  0.88000000000E+00 0. -1.
        -11    1    4    4    0    0  0.42831757750E-01 -0.26267663480E-01 -0.59474677596E-01  0.77859154971E-01  0.51100000000E-03 0.  1.
         11    1    4    4    0    0  0.27709999177E-01 -0.50887399810E-01 -0.20759201540E-01  0.61551418208E-01  0.51100000000E-03 0. -1.
</event>
<event>
 8    1  0.2257781E+004  0.1043930E+01  0.7957747E-01            NaN
         13   -1    0    0    0    0  0.00000000000E+00  0.00000000000E+00  0.74505805969E-08  0.10566000000E+00  0.10566000000E+00 0.  1.
     999900   -1    0    0    0    0 -0.00000000000E+00 -0.00000000000E+00 -0.74505805969E-08  0.93827000000E+00  0.93827000000E+00 0.  1.
     999902    2    1    2    0    0  0.13114634199E-01  0.52597206127E-02 -0.30027049483E-02  0.10294844288E+01  0.10293830747E+01 0.  0.
     999903    2    3    3    0    0  0.13263928907E+00 -0.86803131977E-02 -0.14963142803E-01  0.14121446995E+00  0.45267008289E-01 0.  0.
         14    1    1    2    0    0 -0.13114634199E-01 -0.52597206127E-02  0.30027049483E-02  0.14445571228E-01  0.00000000000E+00 0.  1.
     999901    1    3    3    0    0 -0.11952465487E+00  0.13940033810E-01  0.11960437854E-01  0.88826995882E+00  0.88000000000E+00 0.  1.
        -11    1    4    4    0    0  0.11627583607E+00 -0.17803272134E-01 -0.24544838828E-01  0.12016545587E+00  0.51100000000E-03 0.  1.
         11    1    4    4    0    0  0.16363453005E-01  0.91229589360E-02  0.95816960253E-02  0.21049014079E-01  0.51100000000E-03 0. -1.
</event>
<event>
 8    1  0.2257781E+004  0.1043930E+01  0.7957747E-01            NaN
         13   -1    0    0    0    0  0.00000000000E+00  0.00000000000E+00  0.74505805969E-08  0.10566000000E+00  0.10566000000E+00 0.  1.
     999900   -1    0    0    0    0 -0.00000000000E+00 -0.00000000000E+00 -0.74505805969E-08  0.93827000000E+00  0.93827000000E+00 0.  1.
     999902    2    1    2    0    0 -0.48238548199E-02 -0.30080348524E-02  0.12757993176E-01  0.10299627440E+01  0.10298680352E+01 0.  0.
     999903    2    3    3    0    0 -0.11751806187E+00  0.48992663560E-01 -0.36651309890E-01  0.13988109826E+00  0.44862313632E-01 0.  0.
         14    1    1    2    0    0  0.48238548199E-02  0.30080348524E-02 -0.12757993176E-01  0.13967255953E-01  0.00000000000E+00 0. -1.
     999901    1    3    3    0    0  0.11269420705E+00 -0.52000698412E-01  0.49409303065E-01  0.89008164579E+00  0.88000000000E+00 0.  1.
        -11    1    4    4    0    0 -0.31229254677E-01  0.32120154811E-02  0.81139717106E-02  0.32429632268E-01  0.51100000000E-03 0. -1.
         11    1    4    4    0    0 -0.86288807196E-01  0.45780648079E-01 -0.44765281600E-01  0.10745146599E+00  0.51100000000E-03 0.  1.
</event>
<event>
 8    1  0.2257781E+004  0.1043930E+01  0.7957747E-01            NaN
         13   -1    0    0    0    0  0.00000000000E+00  0.00000000000E+00  0.74505805969E-08  0.10566000000E+00  0.10566000000E+00 0.  1.
     999900   -1    0    0    0    0 -0.00000000000E+00 -0.00000000000E+00 -0.74505805969E-08  0.93827000000E+00  0.93827000000E+00 0. -1.
     999902    2    1    2    0    0  0.59072707904E-02 -0.52151343929E-02  0.10609710456E-01  0.10307141220E+01  0.10306293911E+01 0.  0.
     999903    2    3    3    0    0  0.68215711527E-01  0.11428443952E+00  0.18480212321E-02  0.14041122011E+00  0.44694285234E-01 0.  0.
         14    1    1    2    0    0 -0.59072707904E-02  0.52151343929E-02 -0.10609710456E-01  0.13215877984E-01  0.00000000000E+00 0. -1.
     999901    1    3    3    0    0 -0.62308440737E-01 -0.11949957392E+00  0.87616892236E-02  0.89030290191E+00  0.88000000000E+00 0.  1.
        -11    1    4    4    0    0  0.30893160124E-01  0.59735790902E-01  0.22896166938E-01  0.71043983831E-01  0.51100000000E-03 0.  1.
         11    1    4    4    0    0  0.37322551404E-01  0.54548648621E-01 -0.21048145706E-01  0.69367236274E-01  0.51100000000E-03 0. -1.
</event>
<event>
 7    1  0.2803966E+004  0.1043930E+01  0.7957747E-01            NaN
         13   -1    0    0    0    0  0.00000000000E+00  0.00000000000E+00  0.74505805969E-08  0.10566000000E+00  0.10566000000E+00 0. -1.
     999900   -1    0    0    0    0 -0.00000000000E+00 -0.00000000000E+00 -0.74505805969E-08  0.93827000000E+00  0.93827000000E+00 0. -1.
     999903    2    1    2    0    0  0.53385401108E-01  0.18397070775E-01  0.66634241588E-01  0.96813964062E-01  0.41765634448E-01 0.  0.
         14    1    1    2    0    0  0.10084908552E-01 -0.53335811161E-01 -0.32944504354E-01  0.63496098305E-01  0.00000000000E+00 0. -1.
     999901    1    1    2    0    0 -0.63470309660E-01  0.34938740386E-01 -0.33689737233E-01  0.88361993763E+00  0.88000000000E+00 0. -1.
        -11    1    3    3    0    0  0.51771471213E-01  0.15196609289E-04  0.49262248621E-01  0.71465486234E-01  0.51100000000E-03 0.  1.
         11    1    3    3    0    0  0.16139298949E-02  0.18381874166E-01  0.17371992967E-01  0.25348477828E-01  0.51100000000E-03 0. -1.
</event>
<event>
 8    1  0.2257781E+004  0.1043930E+01  0.7957747E-01            NaN
         13   -1    0    0    0    0  0.00000000000E+00  0.00000000000E+00  0.74505805969E-08  0.10566000000E+00  0.10566000000E+00 0. -1.
     999900   -1    0    0    0    0 -0.00000000000E+00 -0.00000000000E+00 -0.74505805969E-08  0.93827000000E+00  0.93827000000E+00 0. -1.
     999902    2    1    2    0    0 -0.33508483629E-02 -0.14492809447E-01 -0.15982244180E-02  0.10289692503E+01  0.10288604833E+01 0.  0.
     999903    2    3    3    0    0 -0.12486880815E+00  0.28483370500E-01 -0.28879708350E-01  0.13916149243E+00  0.46134171469E-01 0.  0.
         14    1    1    2    0    0  0.33508483629E-02  0.14492809447E-01  0.15982244180E-02  0.14960749704E-01  0.00000000000E+00 0.  1.
     999901    1    3    3    0    0  0.12151795979E+00 -0.42976179947E-01  0.27281483932E-01  0.88980775787E+00  0.88000000000E+00 0. -1.
        -11    1    4    4    0    0 -0.55699800458E-01  0.30982328017E-01 -0.28805031250E-01  0.69945431350E-01  0.51100000000E-03 0. -1.
         11    1    4    4    0    0 -0.69169007692E-01 -0.24989575171E-02 -0.74677100552E-04  0.69216061080E-01  0.51100000000E-03 0.  1.
</event>
<event>
 8    1  0.2257781E+004  0.1043930E+01  0.7957747E-01            NaN
         13   -1    0    0    0    0  0.00000000000E+00  0.00000000000E+00  0.74505805969E-08  0.10566000000E+00  0.10566000000E+00 0.  1.
     999900   -1    0    0    0    0 -0.00000000000E+00 -0.00000000000E+00 -0.74505805969E-08  0.93827000000E+00  0.93827000000E+00 0. -1.
     999902    2    1    2    0    0 -0.22925866252E-02 -0.38847291617E-02 -0.13124476084E-01  0.10300519977E+01  0.10299585036E+01 0.  0.
     999903    2    3    3    0    0  0.10762281537E+00 -0.74775378771E-01  0.26093912072E-01  0.13952127859E+00  0.40140593818E-01 0.  0.
         14    1    1    2    0    0  0.22925866252E-02  0.38847291617E-02  0.13124476084E-01  0.13878002255E-01  0.00000000000E+00 0. -1.
     999901    1    3    3    0    0 -0.10991540200E+00  0.70890649610E-01 -0.39218388156E-01  0.89053071916E+00  0.88000000000E+00 0.  1.
        -11    1    4    4    0    0  0.97861592060E-02 -0.24569179956E-01  0.10474059143E-01  0.28449614262E-01  0.51100000000E-03 0. -1.
         11    1    4    4    0    0  0.97836656165E-01 -0.50206198816E-01  0.15619852928E-01  0.11107166432E+00  0.51100000000E-03 0.  1.
</event>
<event>
 8    1  0.2257781E+004  0.1043930E+01  0.7957747E-01            NaN
         13   -1    0    0    0    0  0.00000000000E+00  0.00000000000E+00  0.74505805969E-08  0.10566000000E+00  0.10566000000E+00 0. -1.
     999900   -1    0    0    0    0 -0.00000000000E+00 -0.00000000000E+00 -0.74505805969E-08  0.93827000000E+00  0.93827000000E+00 0. -1.
     999902    2    1    2    0    0  0.14738138338E-01  0.47489265521E-02 -0.72151881906E-05  0.10284456506E+01  0.10283290772E+01 0.  0.
     999903    2    3    3    0    0 -0.12594171761E+00 -0.20764272985E-01  0.14872360300E-01  0.13678251520E+00  0.46859343751E-01 0.  0.
         14    1    1    2    0    0 -0.14738138338E-01 -0.47489265521E-02  0.72151881906E-05  0.15484349425E-01  0.00000000000E+00 0.  1.
     999901    1    3    3    0    0  0.14067985595E+00  0.25513199537E-01 -0.14879575489E-01  0.89166313537E+00  0.88000000000E+00 0. -1.
        -11    1    4    4    0    0 -0.57663617783E-01 -0.32453642018E-01  0.13282622901E-01  0.67490894854E-01  0.51100000000E-03 0. -1.
         11    1    4    4    0    0 -0.68278099825E-01  0.11689369033E-01  0.15897373997E-02  0.69291620345E-01  0.51100000000E-03 0.  1.
</event>
<event>
 8    1  0.2257781E+004  0.1043930E+01  0.7957747E-01            NaN
         13   -1    0    0    0    0  0.00000000000E+00  0.00000000000E+00  0.74505805969E-08  0.10566000000E+00  0.10566000000E+00 0.  1.
     999900   -1    0    0    0    0 -0.00000000000E+00 -0.00000000000E+00 -0.74505805969E-08  0.93827000000E+00  0.93827000000E+00 0. -1.
     999902    2    1    2    0    0 -0.11230503595E-01 -0.29219632660E-02  0.46875984712E-02  0.10314145831E+01  0.10313386479E+01 0.  0.
     999903    2    3    3    0    0  0.44537744745E-01 -0.12283523461E+00 -0.24479267235E-01  0.14105510728E+00  0.47172059491E-01 0.  0.
         14    1    1    2    0    0  0.11230503595E-01  0.29219632660E-02 -0.46875984712E-02  0.12515416883E-01  0.00000000000E+00 0. -1.
     999901    1    3    3    0    0 -0.55768248340E-01  0.11991327134E+00  0.29166865706E-01  0.89035947584E+00  0.88000000000E+00 0.  1.
        -11    1    4    4    0    0  0.24844164305E-01 -0.96030855049E-01  0.92605622358E-03  0.99198166931E-01  0.51100000000E-03 0. -1.
         11    1    4    4    0    0  0.19693580440E-01 -0.26804379557E-01 -0.25405323458E-01  0.41856940344E-01  0.51100000000E-03 0.  1.
</event>
<event>
 8    1  0.2257781E+004  0.1043930E+01  0.7957747E-01            NaN
         13   -1    0    0    0    0  0.00000000000E+00  0.00000000000E+00  0.74505805969E-08  0.10566000000E+00  0.10566000000E+00 0.  1.
     999900   -1    0    0    0    0 -0.00000000000E+00 -0.00000000000E+00 -0.74505805969E-08  0.93827000000E+00  0.93827000000E+00 0.  1.
     999902    2    1    2    0    0 -0.63437268614E-02  0.80702614570E-02  0.91162327601E-02  0.10302012823E+01  0.10301098021E+01 0.  0.
     999903    2    3    3    0    0  0.34214035136E-01 -0.12631629327E+00  0.13199906553E-01  0.13906641340E+00  0.45153334932E-01 0.  0.
         14    1    1    2    0    0  0.63437268614E-02 -0.80702614570E-02 -0.91162327601E-02  0.13728717719E-01  0.00000000000E+00 0. -1.
     999901    1    3    3    0    0 -0.40557761998E-01  0.13438655473E+00 -0.40836737932E-02  0.89113486888E+00  0.88000000000E+00 0. -1.
        -11    1    4    4    0    0 -0.97191285316E-02 -0.24167168279E-01 -0.45916802448E-02  0.26454831893E-01  0.51100000000E-03 0.  1.
         11    1    4    4    0    0  0.43933163668E-01 -0.10214912499E+00  0.17791586798E-01  0.11261158150E+00  0.51100000000E-03 0. -1.
</event>
<event>
 7    1  0.2257781E+004  0.1043930E+01  0.7957747E-01            NaN
         13   -1    0    0    0    0  0.00000000000E+00  0.00000000000E+00  0.74505805969E-08  0.10566000000E+00  0.10566000000E+00 0.  1.
     999900   -1    0    0    0    0 -0.00000000000E+00 -0.00000000000E+00 -0.74505805969E-08  0.93827000000E+00  0.93827000000E+00 0.  1.
     999902    2    1    2    0    0  0.56556405553E-02  0.12477008297E-01  0.18657882756E-02  0.10301045462E+01  0.10300117635E+01 0.  0.
         14    1    1    2    0    0 -0.56556405553E-02 -0.12477008297E-01 -0.18657882756E-02  0.13825453772E-01  0.00000000000E+00 0.  1.
     999901    1    3    3    0    0 -0.39474420666E-01  0.10676547647E+00  0.88047994586E-01  0.89168915335E+00  0.88000000000E+00 0. -1.
        -11    1    3    3    0    0  0.24267246447E-01 -0.62571482045E-01 -0.70498980976E-01  0.97336822709E-01  0.51100000000E-03 0.  1.
         11    1    3    3    0    0  0.20862814774E-01 -0.31716986125E-01 -0.15683225334E-01  0.41078570168E-01  0.51100000000E-03 0. -1.
</event>
<event>
 8    1  0.2257781E+004  0.1043930E+01  0.7957747E-01            NaN
         13   -1    0    0    0    0  0.00000000000E+00  0.00000000000E+00  0.74505805969E-08  0.10566000000E+00  0.10566000000E+00 0.  1.
     999900   -1    0    0    0    0 -0.00000000000E+00 -0.00000000000E+00 -0.74505805969E-08  0.93827000000E+00  0.93827000000E+00 0.  1.
     999902    2    1    2    0    0  0.26709542340E-02 -0.57594174624E-02  0.13276805677E-01  0.10292133953E+01  0.10291081744E+01 0.  0.
     999903    2    3    3    0    0 -0.41606261604E-01 -0.40284459259E-01  0.12438035344E+00  0.14045220761E+00  0.30040499963E-01 0.  0.
         14    1    1    2    0    0 -0.26709542340E-02  0.57594174624E-02 -0.13276805677E-01  0.14716604738E-01  0.00000000000E+00 0. -1.
     999901    1    3    3    0    0  0.44277215838E-01  0.34525041797E-01 -0.11110354776E+00  0.88876118765E+00  0.88000000000E+00 0.  1.
        -11    1    4    4    0    0 -0.28118871619E-01 -0.10080790982E-01  0.40848232964E-01  0.50607633270E-01  0.51100000000E-03 0. -1.
         11    1    4    4    0    0 -0.13487389986E-01 -0.30203668277E-01  0.83532120475E-01  0.89844574338E-01  0.51100000000E-03 0.  1.
</event>
<event>
 8    1  0.2257781E+004  0.1043930E+01  0.7957747E-01            NaN
         13   -1    0    0    0    0  0.00000000000E+00  0.00000000000E+00  0.74505805969E-08  0.10566000000E+00  0.10566000000E+00 0.  1.
     999900   -1    0    0    0    0 -0.00000000000E+00 -0.00000000000E+00 -0.74505805969E-08  0.93827000000E+00  0.93827000000E+00 0.  1.
     999902    2    1    2    0    0 -0.15359743043E-02  0.13492317139E-01 -0.51851410735E-02  0.10293942672E+01  0.10292916350E+01 0.  0.
     999903    2    3    3    0    0  0.86442065639E-01  0.84374407460E-01 -0.48709634759E-01  0.14110445654E+00  0.54282297225E-01 0.  0.
         14    1    1    2    0    0  0.15359743043E-02 -0.13492317139E-01  0.51851410735E-02  0.14535732758E-01  0.00000000000E+00 0.  1.
     999901    1    3    3    0    0 -0.87978039943E-01 -0.70882090320E-01  0.43524493686E-01  0.88828981070E+00  0.88000000000E+00 0.  1.
        -11    1    4    4    0    0  0.68141786075E-01  0.83486264888E-01 -0.55917023552E-01  0.12140936569E+00  0.51100000000E-03 0.  1.
         11    1    4    4    0    0  0.18300279564E-01  0.88814257171E-03  0.72073887932E-02  0.19695090849E-01  0.51100000000E-03 0. -1.
</event>
<event>
 8    1  0.2257781E+004  0.1043930E+01  0.7957747E-01            NaN
         13   -1    0    0    0    0  0.00000000000E+00  0.00000000000E+00  0.74505805969E-08  0.10566000000E+00  0.10566000000E+00 0. -1.
     999900   -1    0    0    0    0 -0.00000000000E+00 -0.00000000000E+00 -0.74505805969E-08  0.93827000000E+00  0.93827000000E+00 0.  1.
     999902    2    1    2    0    0 -0.15686556388E-01 -0.65888288062E-03 -0.24463066393E-02  0.10280401733E+01  0.10279173660E+01 0.  0.
     999903    2    3    3    0    0 -0.25368337478E-01 -0.12664735797E+00 -0.29309863056E-01  0.13860862254E+00  0.40867791026E-01 0.  0.
         14    1    1    2    0    0  0.15686556388E-01  0.65888288062E-03  0.24463066393E-02  0.15889826750E-01  0.00000000000E+00 0. -1.
     999901    1    3    3    0    0  0.96817810903E-02  0.12598847509E+00  0.26863556416E-01  0.88943155071E+00  0.88000000000E+00 0.  1.
        -11    1    4    4    0    0 -0.30560159671E-01 -0.55033753737E-01 -0.20819721482E-01  0.66305047568E-01  0.51100000000E-03 0. -1.
         11    1    4    4    0    0  0.51918221931E-02 -0.71613604230E-01 -0.84901415736E-02  0.72303574970E-01  0.51100000000E-03 0.  1.
</event>
<event>
 8    1  0.2257781E+004  0.1043930E+01  0.7957747E-01            NaN
         13   -1    0    0    0    0  0.00000000000E+00  0.00000000000E+00  0.74505805969E-08  0.10566000000E+00  0.10566000000E+00 0. -1.
     999900   -1    0    0    0    0 -0.00000000000E+00 -0.00000000000E+00 -0.74505805969E-08  0.93827000000E+00  0.93827000000E+00 0. -1.
     999902    2    1    2    0    0  0.12985504099E-01  0.61727960551E-02  0.47682708620E-03  0.10295441009E+01  0.10294435884E+01 0.  0.
     999903    2    3    3    0    0 -0.10508327695E+00  0.39811752174E-01  0.67364973857E-01  0.13850771525E+00  0.44931912674E-01 0.  0.
         14    1    1    2    0    0 -0.12985504099E-01 -0.61727960551E-02 -0.47682708620E-03  0.14385899065E-01  0.00000000000E+00 0.  1.
     999901    1    3    3    0    0  0.11806878105E+00 -0.33638956119E-01 -0.66888146771E-01  0.89103638568E+00  0.88000000000E+00 0. -1.
        -11    1    4    4    0    0 -0.77200616854E-01  0.14416036976E-01  0.62714019097E-01  0.10050406299E+00  0.51100000000E-03 0.  1.
         11    1    4    4    0    0 -0.27882660096E-01  0.25395715198E-01  0.46509547602E-02  0.38003652267E-01  0.51100000000E-03 0. -1.
</event>
<event>
 8    1  0.2257781E+004  0.1043930E+01  0.7957747E-01            NaN
         13   -1    0    0    0    0  0.00000000000E+00  0.00000000000E+00  0.74505805969E-08  0.10566000000E+00  0.10566000000E+00 0. -1.
     999900   -1    0    0    0    0 -0.00000000000E+00 -0.00000000000E+00 -0.74505805969E-08  0.93827000000E+00  0.93827000000E+00 0. -1.
     999902    2    1    2    0    0 -0.75930904026E-02 -0.98631798387E-02  0.88036722736E-02  0.10286839519E+01  0.10285709654E+01 0.  0.
     999903    2    3    3    0    0 -0.12357449628E+00  0.62372317345E-02 -0.45578485722E-01  0.13926373123E+00  0.44804344484E-01 0.  0.
         14    1    1    2    0    0  0.75930904026E-02  0.98631798387E-02 -0.88036722736E-02  0.15246048140E-01  0.00000000000E+00 0.  1.
     999901    1    3    3    0    0  0.11598140588E+00 -0.16100411573E-01  0.54382157995E-01  0.88942022063E+00  0.88000000000E+00 0.  1.
        -11    1    4    4    0    0 -0.81969877203E-01  0.24102776004E-01 -0.22080226770E-01  0.88248524719E-01  0.51100000000E-03 0.  1.
         11    1    4    4    0    0 -0.41604619074E-01 -0.17865544269E-01 -0.23498258952E-01  0.51015206509E-01  0.51100000000E-03 0. -1.
</event>
<event>
 8    1  0.2257781E+004  0.1043930E+01  0.7957747E-01            NaN
         13   -1    0    0    0    0  0.00000000000E+00  0.00000000000E+00  0.74505805969E-08  0.10566000000E+00  0.10566000000E+00 0. -1.
     999900   -1    0    0    0    0 -0.00000000000E+00 -0.00000000000E+00 -0.74505805969E-08  0.93827000000E+00  0.93827000000E+00 0. -1.
     999902    2    1    2    0    0  0.12851100748E-01  0.44465585238E-02 -0.19895160243E-02  0.10301866071E+01  0.10300949299E+01 0.  0.
     999903    2    3    3    0    0 -0.52626925851E-01 -0.11534534657E+00  0.34243380583E-01  0.13892329292E+00  0.45309269472E-01 0.  0.
         14    1    1    2    0    0 -0.12851100748E-01 -0.44465585238E-02  0.19895160243E-02  0.13743392855E-01  0.00000000000E+00 0. -1.
     999901    1    3    3    0    0  0.65478026600E-01  0.11979190510E+00 -0.36232896607E-01  0.89126331423E+00  0.88000000000E+00 0.  1.
        -11    1    4    4    0    0 -0.10778980227E-01 -0.76800383103E-01  0.23346008479E-01  0.80992484173E-01  0.51100000000E-03 0. -1.
         11    1    4    4    0    0 -0.41847945624E-01 -0.38544963470E-01  0.10897372104E-01  0.57930808743E-01  0.51100000000E-03 0.  1.
</event>
<event>
 8    1  0.2257781E+004  0.1043930E+01  0.7957747E-01            NaN
         13   -1    0    0    0    0  0.00000000000E+00  0.00000000000E+00  0.74505805969E-08  0.10566000000E+00  0.10566000000E+00 0.  1.
     999900   -1    0    0    0    0 -0.00000000000E+00 -0.00000000000E+00 -0.74505805969E-08  0.93827000000E+00  0.93827000000E+00 0. -1.
     999902    2    1    2    0    0  0.46297338784E-02  0.84278244217E-02  0.98729933249E-02  0.10301481766E+01  0.10300559825E+01 0.  0.
     999903    2    3    3    0    0 -0.79465152682E-01 -0.76287457577E-01  0.74117022278E-01  0.13976852483E+00  0.43674029671E-01 0.  0.
         14    1    1    2    0    0 -0.46297338784E-02 -0.84278244217E-02 -0.98729933249E-02  0.13781823445E-01  0.00000000000E+00 0. -1.
     999901    1    3    3    0    0  0.84094886560E-01  0.84715281998E-01 -0.64244028953E-01  0.89037965172E+00  0.88000000000E+00 0. -1.
        -11    1    4    4    0    0 -0.11139044519E-01 -0.25236934138E-01  0.38434985571E-01  0.47312687457E-01  0.51100000000E-03 0. -1.
         11    1    4    4    0    0 -0.68326108163E-01 -0.51050523438E-01  0.35682036706E-01  0.92455837374E-01  0.51100000000E-03 0.  1.
</event>
<event>
 8    1  0.2257781E+004  0.1043930E+01  0.7957747E-01            NaN
         13   -1    0    0    0    0  0.00000000000E+00  0.00000000000E+00  0.74505805969E-08  0.10566000000E+00  0.10566000000E+00 0. -1.
     999900   -1    0    0    0    0 -0.00000000000E+00 -0.00000000000E+00 -0.74505805969E-08  0.93827000000E+00  0.93827000000E+00 0. -1.
     999902    2    1    2    0    0 -0.66128699798E-02  0.91744308480E-02 -0.74553298768E-02  0.10303844408E+01  0.10302954012E+01 0.  0.
     999903    2    3    3    0    0  0.43474414961E-01 -0.10504401003E+00  0.66025226981E-01  0.13855823542E+00  0.43758258703E-01 0.  0.
         14    1    1    2    0    0  0.66128699798E-02 -0.91744308480E-02  0.74553298768E-02  0.13545559211E-01  0.00000000000E+00 0. -1.
     999901    1    3    3    0    0 -0.50087284940E-01  0.11421844088E+00 -0.73480556858E-01  0.89182620537E+00  0.88000000000E+00 0. -1.
        -11    1    4    4    0    0  0.88233567164E-02 -0.70629274729E-01  0.27327102375E-01  0.76245509492E-01  0.51100000000E-03 0. -1.
         11    1    4    4    0    0  0.34651058244E-01 -0.34414735303E-01  0.38698124606E-01  0.62312725927E-01  0.51100000000E-03 0.  1.
</event>
<event>
 8    1  0.2257781E+004  0.1043930E+01  0.7957747E-01            NaN
         13   -1    0    0    0    0  0.00000000000E+00  0.00000000000E+00  0.74505805969E-08  0.10566000000E+00  0.10566000000E+00 0.  1.
     999900   -1    0    0    0    0 -0.00000000000E+00 -0.00000000000E+00 -0.74505805969E-08  0.93827000000E+00  0.93827000000E+00 0.  1.
     999902    2    1    2    0    0 -0.62529338368E-02 -0.10903255947E-01 -0.77128525064E-02  0.10291831947E+01  0.10290775384E+01 0.  0.
     999903    2    3    3    0    0 -0.15915664062E-01 -0.71973115869E-01 -0.11165951843E+00  0.14091082350E+00  0.44210568328E-01 0.  0.
         14    1    1    2    0    0  0.62529338368E-02  0.10903255947E-01  0.77128525064E-02  0.14746805268E-01  0.00000000000E+00 0. -1.
     999901    1    3    3    0    0  0.96627302256E-02  0.61069859922E-01  0.10394666592E+00  0.88827237124E+00  0.88000000000E+00 0. -1.
        -11    1    4    4    0    0 -0.29936302314E-01 -0.47623903835E-01 -0.60999368710E-01  0.82978325585E-01  0.51100000000E-03 0. -1.
         11    1    4    4    0    0  0.14020638252E-01 -0.24349212033E-01 -0.50660149719E-01  0.57932497911E-01  0.51100000000E-03 0.  1.
</event>
<event>
 8    1  0.2257781E+004  0.1043930E+01  0.7957747E-01            NaN
         13   -1    0    0    0    0  0.00000000000E+00  0.00000000000E+00  0.74505805969E-08  0.10566000000E+00  0.10566000000E+00 0. -1.
     999900   -1    0    0    0    0 -0.00000000000E+00 -0.00000000000E+00 -0.74505805969E-08  0.93827000000E+00  0.93827000000E+00 0. -1.
     999902    2    1    2    0    0  0.97467079786E-02  0.10633919089E-01  0.82715691719E-03  0.10294813758E+01  0.10293799787E+01 0.  0.
     999903    2    3    3    0    0  0.26504531592E-01  0.11896884856E+00 -0.59482231323E-01  0.14063127379E+00  0.37187930866E-01 0.  0.
         14    1    1    2    0    0 -0.97467079786E-02 -0.10633919089E-01 -0.82715691719E-03  0.14448624162E-01  0.00000000000E+00 0. -1.
     999901    1    3    3    0    0 -0.16757823613E-01 -0.10833492947E+00  0.60309388240E-01  0.88885010205E+00  0.88000000000E+00 0. -1.
        -11    1    4    4    0    0  0.27805688832E-01  0.43260372943E-01 -0.19489071797E-01  0.54997283925E-01  0.51100000000E-03 0. -1.
         11    1    4    4    0    0 -0.13011572398E-02  0.75708475620E-01 -0.39993159525E-01  0.85633989868E-01  0.51100000000E-03 0.  1.
</event>
<event>
 8    1  0.2257781E+004  0.1043930E+01  0.7957747E-01            NaN
         13   -1    0    0    0    0  0.00000000000E+00  0.00000000000E+00  0.74505805969E-08  0.10566000000E+00  0.10566000000E+00 0. -1.
     999900   -1    0    0    0    0 -0.00000000000E+00 -0.00000000000E+00 -0.74505805969E-08  0.93827000000E+00  0.93827000000E+00 0.  1.
     999902    2    1    2    0    0 -0.32770493528E-02  0.13430069108E-01  0.35383758618E-03  0.10301013699E+01  0.10300085443E+01 0.  0.
     999903    2    3    3    0    0  0.11799451048E+00  0.22632232520E-01 -0.56103841097E-01  0.13994467556E+00  0.44743142270E-01 0.  0.
         14    1    1    2    0    0  0.32770493528E-02 -0.13430069108E-01 -0.35383758618E-03  0.13828630074E-01  0.00000000000E+00 0.  1.
     999901    1    3    3    0    0 -0.12127155983E+00 -0.92021634121E-02  0.56457678683E-01  0.89015669436E+00  0.88000000000E+00 0. -1.
        -11    1    4    4    0    0  0.52030563862E-01  0.30268068906E-01 -0.37729807946E-01  0.71043191791E-01  0.51100000000E-03 0. -1.
         11    1    4    4    0    0  0.65963946618E-01 -0.76358363867E-02 -0.18374033151E-01  0.68901483772E-01  0.51100000000E-03 0.  1.
</event>
<event>
 8    1  0.2257781E+004  0.1043930E+01  0.7957747E-01            NaN
         13   -1    0    0    0    0  0.00000000000E+00  0.00000000000E+00  0.74505805969E-08  0.10566000000E+00  0.10566000000E+00 0.  1.
     999900   -1    0    0    0    0 -0.00000000000E+00 -0.00000000000E+00 -0.74505805969E-08  0.93827000000E+00  0.93827000000E+00 0. -1.
     999902    2    1    2    0    0  0.15265235014E-01  0.35772274260E-02  0.20193001060E-02  0.10281217259E+01  0.10280001857E+01 0.  0.
     999903    2    3    3    0    0 -0.53697650646E-01  0.32089487296E-01 -0.11384494471E+00  0.13739542016E+00  0.44762229220E-01 0.  0.
         14    1    1    2    0    0 -0.15265235014E-01 -0.35772274260E-02 -0.20193001060E-02  0.15808274068E-01  0.00000000000E+00 0. -1.
     999901    1    3    3    0    0  0.68962885661E-01 -0.28512259870E-01  0.11586424482E+00  0.89072630577E+00  0.88000000000E+00 0. -1.
        -11    1    4    4    0    0 -0.61261957387E-01  0.24177703915E-01 -0.99959823102E-01  0.11970721008E+00  0.51100000000E-03 0.  1.
         11    1    4    4    0    0  0.75643067409E-02  0.79117833812E-02 -0.13885121613E-01  0.17688210083E-01  0.51100000000E-03 0. -1.
</event>
<event>
 8    1  0.2257781E+004  0.1043930E+01  0.7957747E-01            NaN
         13   -1    0    0    0    0  0.00000000000E+00  0.00000000000E+00  0.74505805969E-08  0.10566000000E+00  0.10566000000E+00 0.  1.
     999900   -1    0    0    0    0 -0.00000000000E+00 -0.00000000000E+00 -0.74505805969E-08  0.93827000000E+00  0.93827000000E+00 0. -1.
     999902    2    1    2    0    0  0.50765656496E-02 -0.52920586618E-02 -0.11469743932E-01  0.10303163146E+01  0.10302263711E+01 0.  0.
     999903    2    3    3    0    0  0.21478917108E-01 -0.10379501741E+00 -0.82079313060E-01  0.14185833516E+00  0.46389913808E-01 0.  0.
         14    1    1    2    0    0 -0.50765656496E-02  0.52920586618E-02  0.11469743932E-01  0.13613685377E-01  0.00000000000E+00 0. -1.
     999901    1    3    3    0    0 -0.16402351458E-01  0.98502958750E-01  0.70609569128E-01  0.88845797946E+00  0.88000000000E+00 0.  1.
        -11    1    4    4    0    0  0.26333514197E-01 -0.23931939560E-01 -0.28043242755E-01  0.45308677825E-01  0.51100000000E-03 0. -1.
         11    1    4    4    0    0 -0.48545970899E-02 -0.79863077852E-01 -0.54036070305E-01  0.96549657337E-01  0.51100000000E-03 0.  1.
</event>
<event>
 8    1  0.2257781E+004  0.1043930E+01  0.7957747E-01            NaN
         13   -1    0    0    0    0  0.00000000000E+00  0.00000000000E+00  0.74505805969E-08  0.10566000000E+00  0.10566000000E+00 0. -1.
     999900   -1    0    0    0    0 -0.00000000000E+00 -0.00000000000E+00 -0.74505805969E-08  0.93827000000E+00  0.93827000000E+00 0.  1.
     999902    2    1    2    0    0 -0.56107819427E-02  0.11890481673E-01  0.55295102978E-02  0.10296667636E+01  0.10295679697E+01 0.  0.
     999903    2    3    3    0    0 -0.11953732385E-01  0.21567878223E-01  0.13113465420E+00  0.14067264821E+00  0.44546956493E-01 0.  0.
         14    1    1    2    0    0  0.56107819427E-02 -0.11890481673E-01 -0.55295102978E-02  0.14263236399E-01  0.00000000000E+00 0. -1.
     999901    1    3    3    0    0  0.63429504424E-02 -0.96773965496E-02 -0.12560514390E+00  0.88899411539E+00  0.88000000000E+00 0.  1.
        -11    1    4    4    0    0  0.19880822096E-02  0.31924664261E-01  0.67313082356E-01  0.74528174782E-01  0.51100000000E-03 0. -1.
         11    1    4    4    0    0 -0.13941814595E-01 -0.10356786038E-01  0.63821571846E-01  0.66144473428E-01  0.51100000000E-03 0.  1.
</event>
<event>
 8    1  0.2257781E+004  0.1043930E+01  0.7957747E-01            NaN
         13   -1    0    0    0    0  0.00000000000E+00  0.00000000000E+00  0.74505805969E-08  0.10566000000E+00  0.10566000000E+00 0. -1.
     999900   -1    0    0    0    0 -0.00000000000E+00 -0.00000000000E+00 -0.74505805969E-08  0.93827000000E+00  0.93827000000E+00 0. -1.
     999902    2    1    2    0    0 -0.73755803714E-02 -0.10152697698E-01 -0.76418391848E-02  0.10292373432E+01  0.10291324670E+01 0.  0.
     999903    2    3    3    0    0 -0.64326241311E-01 -0.72076639626E-01 -0.92636339615E-01  0.14114837390E+00  0.44815898265E-01 0.  0.
         14    1    1    2    0    0  0.73755803714E-02  0.10152697698E-01  0.76418391848E-02  0.14692656754E-01  0.00000000000E+00 0.  1.
     999901    1    3    3    0    0  0.56950660940E-01  0.61923941928E-01  0.84994500430E-01  0.88808896934E+00  0.88000000000E+00 0.  1.
        -11    1    4    4    0    0 -0.38296647716E-01 -0.18104822783E-01 -0.19606292698E-01  0.46680677680E-01  0.51100000000E-03 0.  1.
         11    1    4    4    0    0 -0.26029593595E-01 -0.53971816843E-01 -0.73030046917E-01  0.94467696223E-01  0.51100000000E-03 0. -1.
</event>
<event>
 8    1  0.2257781E+004  0.1043930E+01  0.7957747E-01            NaN
         13   -1    0    0    0    0  0.00000000000E+00  0.00000000000E+00  0.74505805969E-08  0.10566000000E+00  0.10566000000E+00 0. -1.
     999900   -1    0    0    0    0 -0.00000000000E+00 -0.00000000000E+00 -0.74505805969E-08  0.93827000000E+00  0.93827000000E+00 0.  1.
     999902    2    1    2    0    0  0.47211610843E-02 -0.12474334114E-01  0.43420611519E-02  0.10299031733E+01  0.10298076492E+01 0.  0.
     999903    2    3    3    0    0  0.66867363162E-01  0.11030783124E+00  0.21854695430E-01  0.13903600980E+00  0.47056587416E-01 0.  0.
         14    1    1    2    0    0 -0.47211610843E-02  0.12474334114E-01 -0.43420611519E-02  0.14026826748E-01  0.00000000000E+00 0.  1.
     999901    1    3    3    0    0 -0.62146202078E-01 -0.12278216535E+00 -0.17512634278E-01  0.89086716345E+00  0.88000000000E+00 0.  1.
        -11    1    4    4    0    0 -0.85972796863E-03  0.36494406823E-01  0.29791205629E-04  0.36508120605E-01  0.51100000000E-03 0.  1.
         11    1    4    4    0    0  0.67727091131E-01  0.73813424416E-01  0.21824904224E-01  0.10252788919E+00  0.51100000000E-03 0. -1.
</event>
<event>
 8    1  0.2257781E+004  0.1043930E+01  0.7957747E-01            NaN
         13   -1    0    0    0    0  0.00000000000E+00  0.00000000000E+00  0.74505805969E-08  0.10566000000E+00  0.10566000000E+00 0.  1.
     999900   -1    0    0    0    0 -0.00000000000E+00 -0.00000000000E+00 -0.74505805969E-08  0.93827000000E+00  0.93827000000E+00 0.  1.
     999902    2    1    2    0    0 -0.48429993697E-02 -0.48243809556E-02  0.12229982021E-01  0.10299192272E+01  0.10298239232E+01 0.  0.
     999903    2    3    3    0    0 -0.99472805972E-01 -0.80116176314E-01  0.40344204283E-01  0.14120438865E+00  0.44694336554E-01 0.  0.
         14    1    1    2    0    0  0.48429993697E-02  0.48243809556E-02 -0.12229982021E-01  0.14010772810E-01  0.00000000000E+00 0.  1.
     999901    1    3    3    0    0  0.94629806602E-01  0.75291795358E-01 -0.28114222262E-01  0.88871483854E+00  0.88000000000E+00 0. -1.
        -11    1    4    4    0    0 -0.35150695944E-01 -0.33309609135E-01  0.38102721835E-01  0.61621262713E-01  0.51100000000E-03 0.  1.
         11    1    4    4    0    0 -0.64322110028E-01 -0.46806567179E-01  0.22414824476E-02  0.79583125938E-01  0.51100000000E-03 0. -1.
</event>
<event>
 8    1  0.2257781E+004  0.1043930E+01  0.7957747E-01            NaN
         13   -1    0    0    0    0  0.00000000000E+00  0.00000000000E+00  0.74505805969E-08  0.10566000000E+00  0.10566000000E+00 0. -1.
     999900   -1    0    0    0    0 -0.00000000000E+00 -0.00000000000E+00 -0.74505805969E-08  0.93827000000E+00  0.93827000000E+00 0.  1.
     999902    2    1    2    0    0 -0.89565946150E-02 -0.25534895915E-01  0.10780218319E-02  0.10168483895E+01  0.10164876948E+01 0.  0.
     999903    2    3    3    0    0 -0.63790061642E-01  0.90637770361E-02 -0.10151226076E+00  0.12851931569E+00  0.45399905315E-01 0.  0.
         14    1    1    2    0    0  0.89565946150E-02  0.25534895915E-01 -0.10780218319E-02  0.27081610505E-01  0.00000000000E+00 0.  1.
     999901    1    3    3    0    0  0.54833467027E-01 -0.34598672951E-01  0.10259028260E+00  0.88832907380E+00  0.88000000000E+00 0. -1.
        -11    1    4    4    0    0 -0.58789621041E-01  0.23612889079E-01 -0.79469586552E-01  0.10163397257E+00  0.51100000000E-03 0.  1.
         11    1    4    4    0    0 -0.50004406008E-02 -0.14549112042E-01 -0.22042674212E-01  0.26885343123E-01  0.51100000000E-03 0. -1.
</event>
<event>
 7    1  0.2257781E+004  0.1043930E+01  0.7957747E-01            NaN
         13   -1    0    0    0    0  0.00000000000E+00  0.00000000000E+00  0.74505805969E-08  0.10566000000E+00  0.10566000000E+00 0. -1.
     999900   -1    0    0    0    0 -0.00000000000E+00 -0.00000000000E+00 -0.74505805969E-08  0.93827000000E+00  0.93827000000E+00 0. -1.
     999903    2    1    2    0    0  0.64776176808E-01 -0.90104609448E-01  0.23314544438E-01  0.12198927482E+00  0.44978010897E-01 0.  0.
         14    1    1    2    0    0  0.10781809087E-02  0.22890025235E-01  0.27099329068E-01  0.35489285218E-01  0.00000000000E+00 0. -1.
     999901    1    1    2    0    0 -0.65854357717E-01  0.67214584213E-01 -0.50413873506E-01  0.88645143996E+00  0.88000000000E+00 0. -1.
        -11    1    3    3    0    0  0.71177496122E-01 -0.87537009209E-01  0.22070735664E-01  0.11496235223E+00  0.51100000000E-03 0. -1.
         11    1    3    3    0    0 -0.64013193142E-02 -0.25676002391E-02  0.12438087739E-02  0.70269225992E-02  0.51100000000E-03 0.  1.
</event>
<event>
 8    1  0.2257781E+004  0.1043930E+01  0.7957747E-01            NaN
         13   -1    0    0    0    0  0.00000000000E+00  0.00000000000E+00  0.74505805969E-08  0.10566000000E+00  0.10566000000E+00 0. -1.
     999900   -1    0    0    0    0 -0.00000000000E+00 -0.00000000000E+00 -0.74505805969E-08  0.93827000000E+00  0.93827000000E+00 0. -1.
     999902    2    1    2    0    0 -0.91004033737E-02 -0.49333337244E-02 -0.89879798617E-02  0.10302209189E+01  0.10301297019E+01 0.  0.
     999903    2    3    3    0    0 -0.53918061720E-01 -0.14222968335E-01 -0.12106118891E+00  0.14193305788E+00  0.48782489179E-01 0.  0.
         14    1    1    2    0    0  0.91004033737E-02  0.49333337244E-02  0.89879798617E-02  0.13709081122E-01  0.00000000000E+00 0. -1.
     999901    1    3    3    0    0  0.44817658347E-01  0.92896346101E-02  0.11207320905E+00  0.88828786100E+00  0.88000000000E+00 0.  1.
        -11    1    4    4    0    0 -0.17253838577E-02 -0.20847294904E-01 -0.42637136009E-01  0.47494980180E-01  0.51100000000E-03 0. -1.
         11    1    4    4    0    0 -0.52192677863E-01  0.66243265692E-02 -0.78424052902E-01  0.94438077700E-01  0.51100000000E-03 0.  1.
</event>
<event>
 8    1  0.2257781E+004  0.1043930E+01  0.7957747E-01            NaN
         13   -1    0    0    0    0  0.00000000000E+00  0.00000000000E+00  0.74505805969E-08  0.10566000000E+00  0.10566000000E+00 0.  1.
     999900   -1    0    0    0    0 -0.00000000000E+00 -0.00000000000E+00 -0.74505805969E-08  0.93827000000E+00  0.93827000000E+00 0.  1.
     999902    2    1    2    0    0 -0.14448586940E-02  0.13346256578E-01 -0.20735460687E-02  0.10303465625E+01  0.10302570209E+01 0.  0.
     999903    2    3    3    0    0  0.14591075230E-01  0.26975111540E-01  0.12835879150E+00  0.14048393739E+00  0.48158085400E-01 0.  0.
         14    1    1    2    0    0  0.14448586940E-02 -0.13346256578E-01  0.20735460687E-02  0.13583437510E-01  0.00000000000E+00 0. -1.
     999901    1    3    3    0    0 -0.16035933924E-01 -0.13628854962E-01 -0.13043233757E+00  0.88986262510E+00  0.88000000000E+00 0.  1.
        -11    1    4    4    0    0  0.13650339361E-01 -0.91463805859E-02  0.69492133514E-01  0.71410123819E-01  0.51100000000E-03 0. -1.
         11    1    4    4    0    0  0.94073586880E-03  0.36121492126E-01  0.58866657990E-01  0.69073813571E-01  0.51100000000E-03 0.  1.
</event>
<event>
 8    1  0.2257781E+004  0.1043930E+01  0.7957747E-01            NaN
         13   -1    0    0    0    0  0.00000000000E+00  0.00000000000E+00  0.74505805969E-08  0.10566000000E+00  0.10566000000E+00 0. -1.
     999900   -1    0    0    0    0 -0.00000000000E+00 -0.00000000000E+00 -0.74505805969E-08  0.93827000000E+00  0.93827000000E+00 0.  1.
     999902    2    1    2    0    0 -0.25798492008E-02 -0.41402679526E-02 -0.12726249748E-01  0.10303008080E+01  0.10302106582E+01 0.  0.
     999903    2    3    3    0    0 -0.38276499744E-01  0.77039529523E-03 -0.12833829026E+00  0.14200777679E+00  0.47220842650E-01 0.  0.
         14    1    1    2    0    0  0.25798492008E-02  0.41402679526E-02  0.12726249748E-01  0.13629191952E-01  0.00000000000E+00 0. -1.
     999901    1    3    3    0    0  0.35696650543E-01 -0.49106632478E-02  0.11561204051E+00  0.88829303126E+00  0.88000000000E+00 0. -1.
        -11    1    4    4    0    0 -0.20452112212E-01  0.23524554521E-01 -0.55755993129E-01  0.63880243035E-01  0.51100000000E-03 0. -1.
         11    1    4    4    0    0 -0.17824387532E-01 -0.22754159226E-01 -0.72582297128E-01  0.78127533754E-01  0.51100000000E-03 0.  1.
</event>
<event>
 8    1  0.2257781E+004  0.1043930E+01  0.7957747E-01            NaN
         13   -1    0    0    0    0  0.00000000000E+00  0.00000000000E+00  0.74505805969E-08  0.10566000000E+00  0.10566000000E+00 0. -1.
     999900   -1    0    0    0    0 -0.00000000000E+00 -0.00000000000E+00 -0.74505805969E-08  0.93827000000E+00  0.93827000000E+00 0. -1.
     999902    2    1    2    0    0  0.12127613717E-01 -0.83000156922E-02  0.20820021512E-02  0.10290873585E+01  0.10289803144E+01 0.  0.
     999903    2    3    3    0    0 -0.10915404300E-01  0.71333478799E-01  0.10969736261E+00  0.13866412205E+00  0.44571472178E-01 0.  0.
         14    1    1    2    0    0 -0.12127613717E-01  0.83000156922E-02 -0.20820021512E-02  0.14842641541E-01  0.00000000000E+00 0. -1.
     999901    1    3    3    0    0  0.23043018017E-01 -0.79633494492E-01 -0.10761536046E+00  0.89042323641E+00  0.88000000000E+00 0. -1.
        -11    1    4    4    0    0 -0.21393113703E-01  0.44000521939E-01  0.40455368498E-01  0.63487079049E-01  0.51100000000E-03 0. -1.
         11    1    4    4    0    0  0.10477709403E-01  0.27332956861E-01  0.69241994114E-01  0.75177043005E-01  0.51100000000E-03 0.  1.
</event>
<event>
 8    1  0.2257781E+004  0.1043930E+01  0.7957747E-01            NaN
         13   -1    0    0    0    0  0.00000000000E+00  0.00000000000E+00  0.74505805969E-08  0.10566000000E+00  0.10566000000E+00 0. -1.
     999900   -1    0    0    0    0 -0.00000000000E+00 -0.00000000000E+00 -0.74505805969E-08  0.93827000000E+00  0.93827000000E+00 0.  1.
     999902    2    1    2    0    0 -0.39442128394E-03  0.10021020897E-01  0.89157706481E-02  0.10305110807E+01  0.10304237090E+01 0.  0.
     999903    2    3    3    0    0  0.72651952839E-01 -0.27644048749E-01 -0.10636246455E+00  0.13919547908E+00  0.44943384934E-01 0.  0.
         14    1    1    2    0    0  0.39442128394E-03 -0.10021020897E-01 -0.89157706481E-02  0.13418919264E-01  0.00000000000E+00 0.  1.
     999901    1    3    3    0    0 -0.73046374123E-01  0.37665069646E-01  0.11527823520E+00  0.89131560166E+00  0.88000000000E+00 0. -1.
        -11    1    4    4    0    0  0.26058724732E-01  0.70723387461E-02 -0.56518917829E-01  0.62639638438E-01  0.51100000000E-03 0. -1.
         11    1    4    4    0    0  0.46593228106E-01 -0.34716387495E-01 -0.49843546719E-01  0.76555840643E-01  0.51100000000E-03 0.  1.
</event>
<event>
 8    1  0.2257781E+004  0.1043930E+01  0.7957747E-01            NaN
         13   -1    0    0    0    0  0.00000000000E+00  0.00000000000E+00  0.74505805969E-08  0.10566000000E+00  0.10566000000E+00 0. -1.
     999900   -1    0    0    0    0 -0.00000000000E+00 -0.00000000000E+00 -0.74505805969E-08  0.93827000000E+00  0.93827000000E+00 0.  1.
     999902    2    1    2    0    0 -0.10088770117E-01 -0.47857138935E-02  0.19322312173E-02  0.10325977514E+01  0.10325355667E+01 0.  0.
     999903    2    3    3    0    0  0.20475176047E-01 -0.57173826008E-01 -0.12041085850E+00  0.14206616823E+00  0.44675967761E-01 0.  0.
         14    1    1    2    0    0  0.10088770117E-01  0.47857138935E-02 -0.19322312173E-02  0.11332248560E-01  0.00000000000E+00 0. -1.
     999901    1    3    3    0    0 -0.30563946164E-01  0.52388112115E-01  0.12234308972E+00  0.89053158321E+00  0.88000000000E+00 0. -1.
        -11    1    4    4    0    0  0.33066762226E-01 -0.42953628419E-01 -0.72505494461E-01  0.90530286681E-01  0.51100000000E-03 0. -1.
         11    1    4    4    0    0 -0.12591586180E-01 -0.14220197590E-01 -0.47905364040E-01  0.51535881547E-01  0.51100000000E-03 0.  1.
</event>
<event>
 8    1  0.2257781E+004  0.1043930E+01  0.7957747E-01            NaN
         13   -1    0    0    0    0  0.00000000000E+00  0.00000000000E+00  0.74505805969E-08  0.10566000000E+00  0.10566000000E+00 0. -1.
     999900   -1    0    0    0    0 -0.00000000000E+00 -0.00000000000E+00 -0.74505805969E-08  0.93827000000E+00  0.93827000000E+00 0.  1.
     999902    2    1    2    0    0  0.79311715814E-02 -0.96782805671E-02  0.54854597293E-02  0.10302675381E+01  0.10301769446E+01 0.  0.
     999903    2    3    3    0    0  0.10391872687E+00 -0.77600692469E-01 -0.34553779258E-01  0.14154361836E+00  0.44940660564E-01 0.  0.
         14    1    1    2    0    0 -0.79311715814E-02  0.96782805671E-02 -0.54854597293E-02  0.13662461924E-01  0.00000000000E+00 0.  1.
     999901    1    3    3    0    0 -0.95987555292E-01  0.67922411902E-01  0.40039238987E-01  0.88872391971E+00  0.88000000000E+00 0. -1.
        -11    1    4    4    0    0  0.88680659584E-01 -0.60289312136E-01 -0.44907531834E-01  0.11625836778E+00  0.51100000000E-03 0.  1.
         11    1    4    4    0    0  0.15238067289E-01 -0.17311380333E-01  0.10353752577E-01  0.25285250585E-01  0.51100000000E-03 0. -1.
</event>
<event>
 8    1  0.2257781E+004  0.1043930E+01  0.7957747E-01            NaN
         13   -1    0    0    0    0  0.00000000000E+00  0.00000000000E+00  0.74505805969E-08  0.10566000000E+00  0.10566000000E+00 0.  1.
     999900   -1    0    0    0    0 -0.00000000000E+00 -0.00000000000E+00 -0.74505805969E-08  0.93827000000E+00  0.93827000000E+00 0. -1.
     999902    2    1    2    0    0  0.13914184741E-01 -0.67304396464E-02  0.33095772702E-02  0.10281231453E+01  0.10280016270E+01 0.  0.
     999903    2    3    3    0    0  0.85761260920E-01  0.96391597251E-01 -0.24368395354E-01  0.13876257327E+00  0.44887628072E-01 0.  0.
         14    1    1    2    0    0 -0.13914184741E-01  0.67304396464E-02 -0.33095772702E-02  0.15806854733E-01  0.00000000000E+00 0. -1.
     999901    1    3    3    0    0 -0.71847076179E-01 -0.10312203690E+00  0.27677972624E-01  0.88936057199E+00  0.88000000000E+00 0. -1.
        -11    1    4    4    0    0  0.35242442661E-01  0.17438779967E-01  0.69534502185E-02  0.39934351157E-01  0.51100000000E-03 0.  1.
         11    1    4    4    0    0  0.50518818259E-01  0.78952817284E-01 -0.31321845573E-01  0.98828222115E-01  0.51100000000E-03 0. -1.
</event>
<event>
 8    1  0.2257781E+004  0.1043930E+01  0.7957747E-01            NaN
         13   -1    0    0    0    0  0.00000000000E+00  0.00000000000E+00  0.74505805969E-08  0.10566000000E+00  0.10566000000E+00 0.  1.
     999900   -1    0    0    0    0 -0.00000000000E+00 -0.00000000000E+00 -0.74505805969E-08  0.93827000000E+00  0.93827000000E+00 0.  1.
     999902    2    1    2    0    0 -0.62378475931E-02  0.10019607744E-01  0.64946302534E-02  0.10304584187E+01  0.10303703553E+01 0.  0.
     999903    2    3    3    0    0 -0.82376523565E-01  0.83423694969E-01  0.67076325734E-01  0.14205794599E+00  0.43997977536E-01 0.  0.
         14    1    1    2    0    0  0.62378475931E-02 -0.10019607744E-01 -0.64946302534E-02  0.13471581350E-01  0.00000000000E+00 0.  1.
     999901    1    3    3    0    0  0.76138675972E-01 -0.73404087225E-01 -0.60581695481E-01  0.88840047266E+00  0.88000000000E+00 0.  1.
        -11    1    4    4    0    0 -0.38087715706E-01  0.63831764896E-01  0.26632131164E-01  0.78960115431E-01  0.51100000000E-03 0. -1.
         11    1    4    4    0    0 -0.44288807859E-01  0.19591930073E-01  0.40444194570E-01  0.63097830557E-01  0.51100000000E-03 0.  1.
</event>
<event>
 8    1  0.2257781E+004  0.1043930E+01  0.7957747E-01            NaN
         13   -1    0    0    0    0  0.00000000000E+00  0.00000000000E+00  0.74505805969E-08  0.10566000000E+00  0.10566000000E+00 0. -1.
     999900   -1    0    0    0    0 -0.00000000000E+00 -0.00000000000E+00 -0.74505805969E-08  0.93827000000E+00  0.93827000000E+00 0. -1.
     999902    2    1    2    0    0  0.58099781356E-02 -0.54550876103E-02 -0.10762138009E-01  0.10305383070E+01  0.10304512918E+01 0.  0.
     999903    2    3    3    0    0  0.54073043305E-01 -0.36972587703E-01  0.11634002562E+00  0.13954019462E+00  0.40565972199E-01 0.  0.
         14    1    1    2    0    0 -0.58099781356E-02  0.54550876103E-02  0.10762138009E-01  0.13391692996E-01  0.00000000000E+00 0. -1.
     999901    1    3    3    0    0 -0.48263065169E-01  0.31517500093E-01 -0.12710216363E+00  0.89099811238E+00  0.88000000000E+00 0. -1.
        -11    1    4    4    0    0  0.43600705854E-01 -0.21073119324E-01  0.46458947885E-01  0.67110303744E-01  0.51100000000E-03 0.  1.
         11    1    4    4    0    0  0.10472337451E-01 -0.15899468379E-01  0.69881077733E-01  0.72429890877E-01  0.51100000000E-03 0. -1.
</event>
<event>
 8    1  0.2257781E+004  0.1043930E+01  0.7957747E-01            NaN
         13   -1    0    0    0    0  0.00000000000E+00  0.00000000000E+00  0.74505805969E-08  0.10566000000E+00  0.10566000000E+00 0.  1.
     999900   -1    0    0    0    0 -0.00000000000E+00 -0.00000000000E+00 -0.74505805969E-08  0.93827000000E+00  0.93827000000E+00 0. -1.
     999902    2    1    2    0    0  0.62777418648E-02 -0.11947139434E-01 -0.33419148565E-02  0.10300263106E+01  0.10299324677E+01 0.  0.
     999903    2    3    3    0    0  0.63525590053E-02  0.12018354207E+00 -0.52175580700E-01  0.13882305125E+00  0.45443476373E-01 0.  0.
         14    1    1    2    0    0 -0.62777418648E-02  0.11947139434E-01  0.33419148565E-02  0.13903689384E-01  0.00000000000E+00 0.  1.
     999901    1    3    3    0    0 -0.74817140476E-04 -0.13213068151E+00  0.48833665843E-01  0.89120325937E+00  0.88000000000E+00 0. -1.
        -11    1    4    4    0    0 -0.19161625208E-01  0.56722784122E-01 -0.19104874696E-01  0.62848225729E-01  0.51100000000E-03 0. -1.
         11    1    4    4    0    0  0.25514184213E-01  0.63460757951E-01 -0.33070706004E-01  0.75974825517E-01  0.51100000000E-03 0.  1.
</event>
<event>
 8    1  0.2257781E+004  0.1043930E+01  0.7957747E-01            NaN
         13   -1    0    0    0    0  0.00000000000E+00  0.00000000000E+00  0.74505805969E-08  0.10566000000E+00  0.10566000000E+00 0. -1.
     999900   -1    0    0    0    0 -0.00000000000E+00 -0.00000000000E+00 -0.74505805969E-08  0.93827000000E+00  0.93827000000E+00 0.  1.
     999902    2    1    2    0    0  0.12721059165E-01  0.10174317778E-02 -0.62076906525E-02  0.10297385964E+01  0.10296408019E+01 0.  0.
     999903    2    3    3    0    0 -0.12483875960E-01  0.62248399792E-01  0.11574762344E+00  0.13886395938E+00  0.43069437496E-01 0.  0.
         14    1    1    2    0    0 -0.12721059165E-01 -0.10174317778E-02  0.62076906525E-02  0.14191403628E-01  0.00000000000E+00 0. -1.
     999901    1    3    3    0    0  0.25204935124E-01 -0.61230968014E-01 -0.12195531410E+00  0.89087463699E+00  0.88000000000E+00 0. -1.
        -11    1    4    4    0    0  0.10117609703E-01  0.10431937710E-01  0.50400611053E-01  0.52456401573E-01  0.51100000000E-03 0. -1.
         11    1    4    4    0    0 -0.22601485662E-01  0.51816462082E-01  0.65347012391E-01  0.86407557808E-01  0.51100000000E-03 0.  1.
</event>
<event>
 8    1  0.2257781E+004  0.1043930E+01  0.7957747E-01            NaN
         13   -1    0    0    0    0  0.00000000000E+00  0.00000000000E+00  0.74505805969E-08  0.10566000000E+00  0.10566000000E+00 0. -1.
     999900   -1    0    0    0    0 -0.00000000000E+00 -0.00000000000E+00 -0.74505805969E-08  0.93827000000E+00  0.93827000000E+00 0.  1.
     999902    2    1    2    0    0 -0.41073010095E-02  0.75721764526E-02 -0.11113223894E-01  0.10298690070E+01  0.10297730139E+01 0.  0.
     999903    2    3    3    0    0 -0.67957123163E-01  0.11460018305E+00 -0.96908614958E-02  0.14108679687E+00  0.45389414085E-01 0.  0.
         14    1    1    2    0    0  0.41073010095E-02 -0.75721764526E-02  0.11113223894E-01  0.14060992964E-01  0.00000000000E+00 0. -1.
     999901    1    3    3    0    0  0.63849822153E-01 -0.10702800660E+00 -0.14223623977E-02  0.88878221016E+00  0.88000000000E+00 0. -1.
        -11    1    4    4    0    0 -0.40291167340E-01  0.77305416926E-01  0.15053720664E-01  0.88466837169E-01  0.51100000000E-03 0. -1.
         11    1    4    4    0    0 -0.27665955822E-01  0.37294766129E-01 -0.24744582160E-01  0.52619959706E-01  0.51100000000E-03 0.  1.
</event>
<event>
 8    1  0.2257781E+004  0.1043930E+01  0.7957747E-01            NaN
         13   -1    0    0    0    0  0.00000000000E+00  0.00000000000E+00  0.74505805969E-08  0.10566000000E+00  0.10566000000E+00 0. -1.
     999900   -1    0    0    0    0 -0.00000000000E+00 -0.00000000000E+00 -0.74505805969E-08  0.93827000000E+00  0.93827000000E+00 0.  1.
     999902    2    1    2    0    0  0.12611620983E-01  0.70302161027E-02  0.63047382144E-02  0.10281747899E+01  0.10280540705E+01 0.  0.
     999903    2    3    3    0    0 -0.44677890505E-01  0.11256434051E+00  0.50358378292E-01  0.13892776978E+00  0.45805177605E-01 0.  0.
         14    1    1    2    0    0 -0.12611620983E-01 -0.70302161027E-02 -0.63047382144E-02  0.15755210130E-01  0.00000000000E+00 0. -1.
     999901    1    3    3    0    0  0.57289511488E-01 -0.10553412441E+00 -0.44053640078E-01  0.88924702009E+00  0.88000000000E+00 0. -1.
        -11    1    4    4    0    0  0.43260887402E-02  0.31803659191E-01  0.26162674229E-01  0.41411766753E-01  0.51100000000E-03 0.  1.
         11    1    4    4    0    0 -0.49003979245E-01  0.80760681323E-01  0.24195704063E-01  0.97516003024E-01  0.51100000000E-03 0. -1.
</event>
<event>
 8    1  0.2257781E+004  0.1043930E+01  0.7957747E-01            NaN
         13   -1    0    0    0    0  0.00000000000E+00  0.00000000000E+00  0.74505805969E-08  0.10566000000E+00  0.10566000000E+00 0. -1.
     999900   -1    0    0    0    0 -0.00000000000E+00 -0.00000000000E+00 -0.74505805969E-08  0.93827000000E+00  0.93827000000E+00 0. -1.
     999902    2    1    2    0    0 -0.57802081981E-02  0.39670954749E-02 -0.13190072621E-01  0.10289925749E+01  0.10288841492E+01 0.  0.
     999903    2    3    3    0    0 -0.65819709781E-01  0.25767181435E-01 -0.11331702665E+00  0.14101431365E+00  0.45256008332E-01 0.  0.
         14    1    1    2    0    0  0.57802081981E-02 -0.39670954749E-02  0.13190072621E-01  0.14937425115E-01  0.00000000000E+00 0.  1.
     999901    1    3    3    0    0  0.60039501583E-01 -0.21800085960E-01  0.10012695403E+00  0.88797826123E+00  0.88000000000E+00 0. -1.
        -11    1    4    4    0    0 -0.24521205966E-01  0.33540156318E-01 -0.49884239027E-01  0.64922492652E-01  0.51100000000E-03 0. -1.
         11    1    4    4    0    0 -0.41298503816E-01 -0.77729748823E-02 -0.63432787627E-01  0.76091821000E-01  0.51100000000E-03 0.  1.
</event>
<event>
 8    1  0.2257781E+004  0.1043930E+01  0.7957747E-01            NaN
         13   -1    0    0    0    0  0.00000000000E+00  0.00000000000E+00  0.74505805969E-08  0.10566000000E+00  0.10566000000E+00 0.  1.
     999900   -1    0    0    0    0 -0.00000000000E+00 -0.00000000000E+00 -0.74505805969E-08  0.93827000000E+00  0.93827000000E+00 0.  1.
     999902    2    1    2    0    0 -0.11769049604E-01  0.51198245679E-02 -0.66181217690E-02  0.10294896860E+01  0.10293884063E+01 0.  0.
     999903    2    3    3    0    0 -0.52556251527E-01 -0.20336876214E-01 -0.12096034966E+00  0.14079075807E+00  0.44887451036E-01 0.  0.
         14    1    1    2    0    0  0.11769049604E-01 -0.51198245679E-02  0.66181217690E-02  0.14440313983E-01  0.00000000000E+00 0.  1.
     999901    1    3    3    0    0  0.40787201923E-01  0.25456700781E-01  0.11434222789E+00  0.88869892795E+00  0.88000000000E+00 0. -1.
        -11    1    4    4    0    0 -0.27614430343E-01 -0.30005164577E-01 -0.95562917826E-01  0.10390090976E+00  0.51100000000E-03 0. -1.
         11    1    4    4    0    0 -0.24941821184E-01  0.96682883635E-02 -0.25397431830E-01  0.36889848311E-01  0.51100000000E-03 0.  1.
</event>
<event>
 8    1  0.2257781E+004  0.1043930E+01  0.7957747E-01            NaN
         13   -1    0    0    0    0  0.00000000000E+00  0.00000000000E+00  0.74505805969E-08  0.10566000000E+00  0.10566000000E+00 0.  1.
     999900   -1    0    0    0    0 -0.00000000000E+00 -0.00000000000E+00 -0.74505805969E-08  0.93827000000E+00  0.93827000000E+00 0.  1.
     999902    2    1    2    0    0  0.12181307244E-01 -0.46177355349E-02  0.59777495930E-02  0.10295967792E+01  0.10294970066E+01 0.  0.
     999903    2    3    3    0    0  0.18068879523E-01 -0.23975665190E-01  0.13025025683E+00  0.14063499770E+00  0.43723634858E-01 0.  0.
         14    1    1    2    0    0 -0.12181307244E-01  0.46177355349E-02 -0.59777495930E-02  0.14333220777E-01  0.00000000000E+00 0.  1.
     999901    1    3    3    0    0 -0.58875722781E-02  0.19357929655E-01 -0.12427250724E+00  0.88896178152E+00  0.88000000000E+00 0.  1.
        -11    1    4    4    0    0  0.98427047755E-02 -0.33961291652E-01  0.63891525362E-01  0.73024901931E-01  0.51100000000E-03 0. -1.
         11    1    4    4    0    0  0.82261747470E-02  0.99856264618E-02  0.66358731471E-01  0.67610095771E-01  0.51100000000E-03 0.  1.
</event>
<event>
 8    1  0.2257781E+004  0.1043930E+01  0.7957747E-01            NaN
         13   -1    0    0    0    0  0.00000000000E+00  0.00000000000E+00  0.74505805969E-08  0.10566000000E+00  0.10566000000E+00 0.  1.
     999900   -1    0    0    0    0 -0.00000000000E+00 -0.00000000000E+00 -0.74505805969E-08  0.93827000000E+00  0.93827000000E+00 0.  1.
     999902    2    1    2    0    0  0.34827879071E-02 -0.16676483188E-01  0.15062895605E-02  0.10268272572E+01  0.10266848164E+01 0.  0.
     999903    2    3    3    0    0 -0.11555805965E+00 -0.14941204574E-01 -0.55438026709E-01  0.13698660307E+00  0.45989671363E-01 0.  0.
         14    1    1    2    0    0 -0.34827879071E-02  0.16676483188E-01 -0.15062895605E-02  0.17102742803E-01  0.00000000000E+00 0.  1.
     999901    1    3    3    0    0  0.11904084756E+00 -0.17352786149E-02  0.56944316270E-01  0.88984065413E+00  0.88000000000E+00 0.  1.
        -11    1    4    4    0    0 -0.27184997936E-01  0.16059018062E-01 -0.12572361368E-01  0.33988844718E-01  0.51100000000E-03 0. -1.
         11    1    4    4    0    0 -0.88373061712E-01 -0.31000222636E-01 -0.42865665341E-01  0.10299775835E+00  0.51100000000E-03 0.  1.
</event>
<event>
 8    1  0.2257781E+004  0.1043930E+01  0.7957747E-01            NaN
         13   -1    0    0    0    0  0.00000000000E+00  0.00000000000E+00  0.74505805969E-08  0.10566000000E+00  0.10566000000E+00 0. -1.
     999900   -1    0    0    0    0 -0.00000000000E+00 -0.00000000000E+00 -0.74505805969E-08  0.93827000000E+00  0.93827000000E+00 0. -1.
     999902    2    1    2    0    0  0.10557747391E-01  0.59702679947E-02 -0.49991211227E-02  0.10308112599E+01  0.10307277779E+01 0.  0.
     999903    2    3    3    0    0 -0.11630744341E+00 -0.43476169922E-01 -0.44505052046E-01  0.13946371520E+00  0.45297124156E-01 0.  0.
         14    1    1    2    0    0 -0.10557747391E-01 -0.59702679947E-02  0.49991211227E-02  0.13118740103E-01  0.00000000000E+00 0. -1.
     999901    1    3    3    0    0  0.12686519080E+00  0.49446437916E-01  0.39505930923E-01  0.89134754470E+00  0.88000000000E+00 0.  1.
        -11    1    4    4    0    0 -0.23033472961E-01 -0.85792226246E-02 -0.30058204543E-01  0.38831697346E-01  0.51100000000E-03 0. -1.
         11    1    4    4    0    0 -0.93273970446E-01 -0.34896947297E-01 -0.14446847503E-01  0.10063201785E+00  0.51100000000E-03 0.  1.
</event>
<event>
 8    1  0.2257781E+004  0.1043930E+01  0.7957747E-01            NaN
         13   -1    0    0    0    0  0.00000000000E+00  0.00000000000E+00  0.74505805969E-08  0.10566000000E+00  0.10566000000E+00 0. -1.
     999900   -1    0    0    0    0 -0.00000000000E+00 -0.00000000000E+00 -0.74505805969E-08  0.93827000000E+00  0.93827000000E+00 0.  1.
     999902    2    1    2    0    0  0.10851496283E-01 -0.80335450318E-02 -0.56024317775E-02  0.10293122006E+01  0.10292083979E+01 0.  0.
     999903    2    3    3    0    0  0.22950647965E-02 -0.74208861838E-01  0.10910404583E+00  0.13936278570E+00  0.44789180893E-01 0.  0.
         14    1    1    2    0    0 -0.10851496283E-01  0.80335450318E-02  0.56024317775E-02  0.14617799396E-01  0.00000000000E+00 0. -1.
     999901    1    3    3    0    0  0.85564314867E-02  0.66175316806E-01 -0.11470647761E+00  0.88994941490E+00  0.88000000000E+00 0.  1.
        -11    1    4    4    0    0  0.64244235494E-02 -0.12073932433E-01 -0.58635724042E-04  0.13686402795E-01  0.51100000000E-03 0.  1.
         11    1    4    4    0    0 -0.41293587529E-02 -0.62134929405E-01  0.10916268156E+00  0.12567638291E+00  0.51100000000E-03 0. -1.
</event>
<event>
 8    1  0.2257781E+004  0.1043930E+01  0.7957747E-01            NaN
         13   -1    0    0    0    0  0.00000000000E+00  0.00000000000E+00  0.74505805969E-08  0.10566000000E+00  0.10566000000E+00 0. -1.
     999900   -1    0    0    0    0 -0.00000000000E+00 -0.00000000000E+00 -0.74505805969E-08  0.93827000000E+00  0.93827000000E+00 0. -1.
     999902    2    1    2    0    0 -0.78909938186E-03  0.25355243563E-02 -0.13175680306E-01  0.10304893857E+01  0.10304017294E+01 0.  0.
     999903    2    3    3    0    0  0.12188256397E+00 -0.18114601310E-01 -0.51636543656E-01  0.14090858402E+00  0.44781672934E-01 0.  0.
         14    1    1    2    0    0  0.78909938186E-03 -0.25355243563E-02  0.13175680306E-01  0.13440614313E-01  0.00000000000E+00 0. -1.
     999901    1    3    3    0    0 -0.12267166335E+00  0.20650125667E-01  0.38460863350E-01  0.88958080166E+00  0.88000000000E+00 0.  1.
        -11    1    4    4    0    0  0.73792708873E-01  0.11086753731E-01 -0.25388116574E-01  0.78823204549E-01  0.51100000000E-03 0. -1.
         11    1    4    4    0    0  0.48089855094E-01 -0.29201355041E-01 -0.26248427082E-01  0.62085379474E-01  0.51100000000E-03 0.  1.
</event>
<event>
 8    1  0.2257781E+004  0.1043930E+01  0.7957747E-01            NaN
         13   -1    0    0    0    0  0.00000000000E+00  0.00000000000E+00  0.74505805969E-08  0.10566000000E+00  0.10566000000E+00 0.  1.
     999900   -1    0    0    0    0 -0.00000000000E+00 -0.00000000000E+00 -0.74505805969E-08  0.93827000000E+00  0.93827000000E+00 0. -1.
     999902    2    1    2    0    0 -0.26004668321E-02 -0.99143687377E-04  0.13656703837E-01  0.10300275608E+01  0.10299337348E+01 0.  0.
     999903    2    3    3    0    0 -0.73603098194E-01  0.89935697728E-01 -0.62340732590E-01  0.13934060303E+00  0.44984340854E-01 0.  0.
         14    1    1    2    0    0  0.26004668321E-02  0.99143687377E-04 -0.13656703837E-01  0.13902439243E-01  0.00000000000E+00 0. -1.
     999901    1    3    3    0    0  0.71002631362E-01 -0.90034841415E-01  0.75997436427E-01  0.89068695773E+00  0.88000000000E+00 0. -1.
        -11    1    4    4    0    0 -0.48410100375E-01  0.39489776456E-01 -0.11724963118E-01  0.63566627596E-01  0.51100000000E-03 0.  1.
         11    1    4    4    0    0 -0.25192997819E-01  0.50445921272E-01 -0.50615769472E-01  0.75773975429E-01  0.51100000000E-03 0. -1.
</event>
<event>
 8    1  0.2257781E+004  0.1043930E+01  0.7957747E-01            NaN
         13   -1    0    0    0    0  0.00000000000E+00  0.00000000000E+00  0.74505805969E-08  0.10566000000E+00  0.10566000000E+00 0.  1.
     999900   -1    0    0    0    0 -0.00000000000E+00 -0.00000000000E+00 -0.74505805969E-08  0.93827000000E+00  0.93827000000E+00 0. -1.
     999902    2    1    2    0    0 -0.53677657790E-02  0.30856069634E-02  0.12002096261E-01  0.10304250308E+01  0.10303365275E+01 0.  0.
     999903    2    3    3    0    0 -0.32716541069E-01  0.12173155903E+00  0.55103702889E-01  0.14099680658E+00  0.30898816652E-01 0.  0.
         14    1    1    2    0    0  0.53677657790E-02 -0.30856069634E-02 -0.12002096261E-01  0.13504969250E-01  0.00000000000E+00 0. -1.
     999901    1    3    3    0    0  0.27348775290E-01 -0.11864595207E+00 -0.43101606628E-01  0.88942822417E+00  0.88000000000E+00 0. -1.
        -11    1    4    4    0    0  0.28763311492E-02  0.43621328832E-01  0.14698792361E-01  0.46123846629E-01  0.51100000000E-03 0.  1.
         11    1    4    4    0    0 -0.35592872218E-01  0.78110230200E-01  0.40404910527E-01  0.94872959954E-01  0.51100000000E-03 0. -1.
</event>
<event>
 8    1  0.2257781E+004  0.1043930E+01  0.7957747E-01            NaN
         13   -1    0    0    0    0  0.00000000000E+00  0.00000000000E+00  0.74505805969E-08  0.10566000000E+00  0.10566000000E+00 0. -1.
     999900   -1    0    0    0    0 -0.00000000000E+00 -0.00000000000E+00 -0.74505805969E-08  0.93827000000E+00  0.93827000000E+00 0. -1.
     999902    2    1    2    0    0 -0.25743124745E-02 -0.97246503257E-02 -0.10039907791E-01  0.10297174824E+01  0.10296193947E+01 0.  0.
     999903    2    3    3    0    0 -0.19959490878E-01 -0.13134200969E+00  0.16976474633E-01  0.14077265201E+00  0.43354746860E-01 0.  0.
         14    1    1    2    0    0  0.25743124745E-02  0.97246503257E-02  0.10039907791E-01  0.14212517621E-01  0.00000000000E+00 0. -1.
     999901    1    3    3    0    0  0.17385178404E-01  0.12161735937E+00 -0.27016382424E-01  0.88894483037E+00  0.88000000000E+00 0.  1.
        -11    1    4    4    0    0 -0.14630309053E-01 -0.99304333133E-02 -0.18789837087E-02  0.17789073881E-01  0.51100000000E-03 0. -1.
         11    1    4    4    0    0 -0.53291818254E-02 -0.12141157638E+00  0.18855458342E-01  0.12298357813E+00  0.51100000000E-03 0.  1.
</event>
<event>
 8    1  0.2257781E+004  0.1043930E+01  0.7957747E-01            NaN
         13   -1    0    0    0    0  0.00000000000E+00  0.00000000000E+00  0.74505805969E-08  0.10566000000E+00  0.10566000000E+00 0. -1.
     999900   -1    0    0    0    0 -0.00000000000E+00 -0.00000000000E+00 -0.74505805969E-08  0.93827000000E+00  0.93827000000E+00 0.  1.
     999902    2    1    2    0    0 -0.41167418898E-02  0.86027284016E-02 -0.12802088189E-01  0.10279660418E+01  0.10278420769E+01 0.  0.
     999903    2    3    3    0    0  0.91939354925E-01 -0.89873273921E-01  0.18104074831E-01  0.13674245162E+00  0.42903265601E-01 0.  0.
         14    1    1    2    0    0  0.41167418898E-02 -0.86027284016E-02  0.12802088189E-01  0.15963958210E-01  0.00000000000E+00 0. -1.
     999901    1    3    3    0    0 -0.96056096815E-01  0.98476002323E-01 -0.30906163020E-01  0.89122359017E+00  0.88000000000E+00 0. -1.
        -11    1    4    4    0    0  0.56098186760E-01 -0.29925548282E-01  0.20641145528E-01  0.66849555028E-01  0.51100000000E-03 0.  1.
         11    1    4    4    0    0  0.35841168165E-01 -0.59947725640E-01 -0.25370706975E-02  0.69892896588E-01  0.51100000000E-03 0. -1.
</event>
<event>
 8    1  0.2257781E+004  0.1043930E+01  0.7957747E-01            NaN
         13   -1    0    0    0    0  0.00000000000E+00  0.00000000000E+00  0.74505805969E-08  0.10566000000E+00  0.10566000000E+00 0.  1.
     999900   -1    0    0    0    0 -0.00000000000E+00 -0.00000000000E+00 -0.74505805969E-08  0.93827000000E+00  0.93827000000E+00 0. -1.
     999902    2    1    2    0    0  0.15387108922E-01  0.39737850812E-02  0.16757317689E-02  0.10279499447E+01  0.10278257278E+01 0.  0.
     999903    2    3    3    0    0  0.10678470693E+00 -0.47730672405E-01 -0.61353378559E-01  0.13946835203E+00  0.44788318090E-01 0.  0.
         14    1    1    2    0    0 -0.15387108922E-01 -0.39737850812E-02 -0.16757317689E-02  0.15980055250E-01  0.00000000000E+00 0. -1.
     999901    1    3    3    0    0 -0.91397598003E-01  0.51704457486E-01  0.63029110328E-01  0.88848159272E+00  0.88000000000E+00 0.  1.
        -11    1    4    4    0    0  0.68505905112E-01 -0.50695214437E-01 -0.31607802512E-01  0.90897624296E-01  0.51100000000E-03 0.  1.
         11    1    4    4    0    0  0.38278801813E-01  0.29645420319E-02 -0.29745576046E-01  0.48570727739E-01  0.51100000000E-03 0. -1.
</event>
<event>
 8    1  0.2257781E+004  0.1043930E+01  0.7957747E-01            NaN
         13   -1    0    0    0    0  0.00000000000E+00  0.00000000000E+00  0.74505805969E-08  0.10566000000E+00  0.10566000000E+00 0.  1.
     999900   -1    0    0    0    0 -0.00000000000E+00 -0.00000000000E+00 -0.74505805969E-08  0.93827000000E+00  0.93827000000E+00 0.  1.
     999902    2    1    2    0    0 -0.13836841267E-02  0.14382439103E-01  0.27475455784E-03  0.10294785424E+01  0.10293771052E+01 0.  0.
     999903    2    3    3    0    0 -0.10477482425E+00 -0.77260995832E-01 -0.15366696353E-01  0.13856165403E+00  0.44901796593E-01 0.  0.
         14    1    1    2    0    0  0.13836841267E-02 -0.14382439103E-01 -0.27475455784E-03  0.14451457586E-01  0.00000000000E+00 0. -1.
     999901    1    3    3    0    0  0.10339114012E+00  0.91643434934E-01  0.15641450911E-01  0.89091688838E+00  0.88000000000E+00 0. -1.
        -11    1    4    4    0    0 -0.39780603520E-01 -0.57164983812E-01 -0.91871102838E-02  0.70249526027E-01  0.51100000000E-03 0.  1.
         11    1    4    4    0    0 -0.64994220729E-01 -0.20096012020E-01 -0.61795860696E-02  0.68312128002E-01  0.51100000000E-03 0. -1.
</event>
<event>
 8    1  0.2257781E+004  0.1043930E+01  0.7957747E-01            NaN
         13   -1    0    0    0    0  0.00000000000E+00  0.00000000000E+00  0.74505805969E-08  0.10566000000E+00  0.10566000000E+00 0.  1.
     999900   -1    0    0    0    0 -0.00000000000E+00 -0.00000000000E+00 -0.74505805969E-08  0.93827000000E+00  0.93827000000E+00 0.  1.
     999902    2    1    2    0    0  0.80601488440E-02 -0.95493864722E-02 -0.77425258166E-02  0.10292295413E+01  0.10291245528E+01 0.  0.
     999903    2    3    3    0    0  0.65896141406E-01  0.11159631121E+00  0.20913253485E-01  0.13858795465E+00  0.44420928327E-01 0.  0.
         14    1    1    2    0    0 -0.80601488440E-02  0.95493864722E-02  0.77425258166E-02  0.14700458748E-01  0.00000000000E+00 0.  1.
     999901    1    3    3    0    0 -0.57835992562E-01 -0.12114569768E+00 -0.28655779301E-01  0.89064158661E+00  0.88000000000E+00 0. -1.
        -11    1    4    4    0    0  0.12278740638E-01  0.61778572121E-01  0.21285402341E-02  0.63025004954E-01  0.51100000000E-03 0.  1.
         11    1    4    4    0    0  0.53617400768E-01  0.49817739092E-01  0.18784713251E-01  0.75562949692E-01  0.51100000000E-03 0. -1.
</event>
<event>
 8    1  0.2257781E+004  0.1043930E+01  0.7957747E-01            NaN
         13   -1    0    0    0    0  0.00000000000E+00  0.00000000000E+00  0.74505805969E-08  0.10566000000E+00  0.10566000000E+00 0. -1.
     999900   -1    0    0    0    0 -0.00000000000E+00 -0.00000000000E+00 -0.74505805969E-08  0.93827000000E+00  0.93827000000E+00 0. -1.
     999902    2    1    2    0    0 -0.79334077953E-02 -0.96455754547E-02  0.59512273697E-02  0.10300955072E+01  0.10300026023E+01 0.  0.
     999903    2    3    3    0    0  0.12204603783E+00 -0.17220545293E-01 -0.46279256757E-01  0.13898380825E+00  0.44530291021E-01 0.  0.
         14    1    1    2    0    0  0.79334077953E-02  0.96455754547E-02 -0.59512273697E-02  0.13834492846E-01  0.00000000000E+00 0. -1.
     999901    1    3    3    0    0 -0.12997944563E+00  0.75749698380E-02  0.52230484127E-01  0.89111169891E+00  0.88000000000E+00 0.  1.
        -11    1    4    4    0    0  0.89574147405E-01 -0.13940089621E-01 -0.11656111335E-01  0.91400109598E-01  0.51100000000E-03 0.  1.
         11    1    4    4    0    0  0.32471890428E-01 -0.32804556714E-02 -0.34623145423E-01  0.47583698651E-01  0.51100000000E-03 0. -1.
</event>
<event>
 8    1  0.2257781E+004  0.1043930E+01  0.7957747E-01            NaN
         13   -1    0    0    0    0  0.00000000000E+00  0.00000000000E+00  0.74505805969E-08  0.10566000000E+00  0.10566000000E+00 0.  1.
     999900   -1    0    0    0    0 -0.00000000000E+00 -0.00000000000E+00 -0.74505805969E-08  0.93827000000E+00  0.93827000000E+00 0.  1.
     999902    2    1    2    0    0  0.54761242314E-02  0.70878350336E-02  0.11452531750E-01  0.10293908864E+01  0.10292882060E+01 0.  0.
     999903    2    3    3    0    0  0.18229117757E-01 -0.82837284578E-01 -0.99615171552E-01  0.13777146043E+00  0.43168002663E-01 0.  0.
         14    1    1    2    0    0 -0.54761242314E-02 -0.70878350336E-02 -0.11452531750E-01  0.14539113644E-01  0.00000000000E+00 0. -1.
     999901    1    3    3    0    0 -0.12752993526E-01  0.89925119611E-01  0.11106770330E+00  0.89161942593E+00  0.88000000000E+00 0. -1.
        -11    1    4    4    0    0  0.26099120143E-01 -0.30244120649E-01 -0.28985262420E-01  0.49358661495E-01  0.51100000000E-03 0. -1.
         11    1    4    4    0    0 -0.78700023859E-02 -0.52593163929E-01 -0.70629909132E-01  0.88412798930E-01  0.51100000000E-03 0.  1.
</event>
<event>
 8    1  0.2257781E+004  0.1043930E+01  0.7957747E-01            NaN
         13   -1    0    0    0    0  0.00000000000E+00  0.00000000000E+00  0.74505805969E-08  0.10566000000E+00  0.10566000000E+00 0. -1.
     999900   -1    0    0    0    0 -0.00000000000E+00 -0.00000000000E+00 -0.74505805969E-08  0.93827000000E+00  0.93827000000E+00 0. -1.
     999902    2    1    2    0    0 -0.53059303193E-02  0.32682933800E-03 -0.13357547303E-01  0.10295534989E+01  0.10294531186E+01 0.  0.
     999903    2    3    3    0    0  0.35415222791E-01 -0.12683562127E+00  0.82805969157E-02  0.13921833142E+00  0.44403408537E-01 0.  0.
         14    1    1    2    0    0  0.53059303193E-02 -0.32682933800E-03  0.13357547303E-01  0.14376501102E-01  0.00000000000E+00 0. -1.
     999901    1    3    3    0    0 -0.40721153110E-01  0.12716245061E+00 -0.21638144219E-01  0.89033516747E+00  0.88000000000E+00 0. -1.
        -11    1    4    4    0    0 -0.22452938637E-02 -0.73098754567E-01  0.49899836498E-03  0.73136717072E-01  0.51100000000E-03 0. -1.
         11    1    4    4    0    0  0.37660516655E-01 -0.53736866708E-01  0.77815985507E-02  0.66081614351E-01  0.51100000000E-03 0.  1.
</event>
<event>
 8    1  0.2257781E+004  0.1043930E+01  0.7957747E-01            NaN
         13   -1    0    0    0    0  0.00000000000E+00  0.00000000000E+00  0.74505805969E-08  0.10566000000E+00  0.10566000000E+00 0.  1.
     999900   -1    0    0    0    0 -0.00000000000E+00 -0.00000000000E+00 -0.74505805969E-08  0.93827000000E+00  0.93827000000E+00 0.  1.
     999902    2    1    2    0    0  0.96683364587E-02  0.76639272079E-02 -0.45864900289E-02  0.10307676142E+01  0.10306835722E+01 0.  0.
     999903    2    3    3    0    0  0.95743676786E-02  0.11818050444E+00 -0.65505103109E-01  0.14176536440E+00  0.41811480036E-01 0.  0.
         14    1    1    2    0    0 -0.96683364587E-02 -0.76639272079E-02  0.45864900289E-02  0.13162385837E-01  0.00000000000E+00 0.  1.
     999901    1    3    3    0    0  0.93968780145E-04 -0.11051657723E+00  0.60918613080E-01  0.88900224977E+00  0.88000000000E+00 0.  1.
        -11    1    4    4    0    0  0.14811015165E-01  0.66747147405E-01 -0.16076210457E-01  0.70237123521E-01  0.51100000000E-03 0. -1.
         11    1    4    4    0    0 -0.52366474866E-02  0.51433357035E-01 -0.49428892652E-01  0.71528240874E-01  0.51100000000E-03 0.  1.
</event>
<event>
 8    1  0.2257781E+004  0.1043930E+01  0.7957747E-01            NaN
         13   -1    0    0    0    0  0.00000000000E+00  0.00000000000E+00  0.74505805969E-08  0.10566000000E+00  0.10566000000E+00 0.  1.
     999900   -1    0    0    0    0 -0.00000000000E+00 -0.00000000000E+00 -0.74505805969E-08  0.93827000000E+00  0.93827000000E+00 0. -1.
     999902    2    1    2    0    0 -0.61154630429E-02 -0.36389648515E-02 -0.11635815395E-01  0.10302906029E+01  0.10302003171E+01 0.  0.
     999903    2    3    3    0    0 -0.39979901631E-01  0.54173126032E-01 -0.11605638082E+00  0.14158778838E+00  0.45220550292E-01 0.  0.
         14    1    1    2    0    0  0.61154630429E-02  0.36389648515E-02  0.11635815395E-01  0.13639397102E-01  0.00000000000E+00 0.  1.
     999901    1    3    3    0    0  0.33864438588E-01 -0.57812090883E-01  0.10442056543E+00  0.88870281452E+00  0.88000000000E+00 0.  1.
        -11    1    4    4    0    0 -0.56756067986E-02  0.42346675115E-01 -0.46609264321E-01  0.63230831462E-01  0.51100000000E-03 0.  1.
         11    1    4    4    0    0 -0.34304294832E-01  0.11826450917E-01 -0.69447116504E-01  0.78356956915E-01  0.51100000000E-03 0. -1.
</event>
<event>
 8    1  0.2257781E+004  0.1043930E+01  0.7957747E-01            NaN
         13   -1    0    0    0    0  0.00000000000E+00  0.00000000000E+00  0.74505805969E-08  0.10566000000E+00  0.10566000000E+00 0.  1.
     999900   -1    0    0    0    0 -0.00000000000E+00 -0.00000000000E+00 -0.74505805969E-08  0.93827000000E+00  0.93827000000E+00 0. -1.
     999902    2    1    2    0    0 -0.13128709833E-01  0.48465413066E-02  0.65729979188E-02  0.10284685548E+01  0.10283523287E+01 0.  0.
     999903    2    3    3    0    0 -0.44409907298E-01 -0.87650762590E-01  0.90077214378E-01  0.13913890916E+00  0.39885278512E-01 0.  0.
         14    1    1    2    0    0  0.13128709833E-01 -0.48465413066E-02 -0.65729979188E-02  0.15461445151E-01  0.00000000000E+00 0. -1.
     999901    1    3    3    0    0  0.31281197464E-01  0.92497303896E-01 -0.83504216460E-01  0.88932964569E+00  0.88000000000E+00 0.  1.
        -11    1    4    4    0    0 -0.22966327234E-01 -0.14098825683E-01  0.11232135941E-01  0.29200189572E-01  0.51100000000E-03 0. -1.
         11    1    4    4    0    0 -0.21443580063E-01 -0.73551936907E-01  0.78845078438E-01  0.10993871958E+00  0.51100000000E-03 0.  1.
</event>
<event>
 8    1  0.2257781E+004  0.1043930E+01  0.7957747E-01            NaN
         13   -1    0    0    0    0  0.00000000000E+00  0.00000000000E+00  0.74505805969E-08  0.10566000000E+00  0.10566000000E+00 0. -1.
     999900   -1    0    0    0    0 -0.00000000000E+00 -0.00000000000E+00 -0.74505805969E-08  0.93827000000E+00  0.93827000000E+00 0.  1.
     999902    2    1    2    0    0  0.65145362156E-02  0.28036739064E-03 -0.12228470174E-01  0.10300716714E+01  0.10299784440E+01 0.  0.
     999903    2    3    3    0    0  0.13318465342E+00 -0.91649259469E-02 -0.73671837016E-02  0.14093829321E+00  0.44577789564E-01 0.  0.
         14    1    1    2    0    0 -0.65145362156E-02 -0.28036739064E-03  0.12228470174E-01  0.13858328570E-01  0.00000000000E+00 0.  1.
     999901    1    3    3    0    0 -0.12667011721E+00  0.94452933375E-02 -0.48612864721E-02  0.88913337822E+00  0.88000000000E+00 0.  1.
        -11    1    4    4    0    0  0.55587394162E-01 -0.42306456724E-03 -0.24886188033E-01  0.60907477777E-01  0.51100000000E-03 0.  1.
         11    1    4    4    0    0  0.77597259260E-01 -0.87418613797E-02  0.17519004331E-01  0.80030815433E-01  0.51100000000E-03 0. -1.
</event>
<event>
 8    1  0.2257781E+004  0.1043930E+01  0.7957747E-01            NaN
         13   -1    0    0    0    0  0.00000000000E+00  0.00000000000E+00  0.74505805969E-08  0.10566000000E+00  0.10566000000E+00 0.  1.
     999900   -1    0    0    0    0 -0.00000000000E+00 -0.00000000000E+00 -0.74505805969E-08  0.93827000000E+00  0.93827000000E+00 0.  1.
     999902    2    1    2    0    0 -0.48761278457E-02  0.98718407883E-02  0.52586093226E-02  0.10317282446E+01  0.10316560899E+01 0.  0.
     999903    2    3    3    0    0 -0.13427328434E+00  0.14526875757E-01  0.22003115220E-02  0.14224825793E+00  0.44602471981E-01 0.  0.
         14    1    1    2    0    0  0.48761278457E-02 -0.98718407883E-02 -0.52586093226E-02  0.12201755420E-01  0.00000000000E+00 0.  1.
     999901    1    3    3    0    0  0.12939715650E+00 -0.46550349685E-02  0.30582978005E-02  0.88947998665E+00  0.88000000000E+00 0.  1.
        -11    1    4    4    0    0 -0.40451862713E-01  0.25300816006E-01 -0.14654111288E-02  0.47737752757E-01  0.51100000000E-03 0.  1.
         11    1    4    4    0    0 -0.93821421629E-01 -0.10773940249E-01  0.36657226508E-02  0.94510505176E-01  0.51100000000E-03 0. -1.
</event>
<event>
 8    1  0.2257781E+004  0.1043930E+01  0.7957747E-01            NaN
         13   -1    0    0    0    0  0.00000000000E+00  0.00000000000E+00  0.74505805969E-08  0.10566000000E+00  0.10566000000E+00 0. -1.
     999900   -1    0    0    0    0 -0.00000000000E+00 -0.00000000000E+00 -0.74505805969E-08  0.93827000000E+00  0.93827000000E+00 0. -1.
     999902    2    1    2    0    0 -0.20634280260E-02  0.63157914209E-02  0.12702787319E-01  0.10295944581E+01  0.10294946529E+01 0.  0.
     999903    2    3    3    0    0 -0.12219914850E+00 -0.41510064385E-01  0.30372314565E-01  0.13996975293E+00  0.44870222898E-01 0.  0.
         14    1    1    2    0    0  0.20634280260E-02 -0.63157914209E-02 -0.12702787319E-01  0.14335541921E-01  0.00000000000E+00 0.  1.
     999901    1    3    3    0    0  0.12013572048E+00  0.47825855806E-01 -0.17669527246E-01  0.88962470515E+00  0.88000000000E+00 0. -1.
        -11    1    4    4    0    0 -0.40790184668E-01 -0.10543999215E-01 -0.10994256742E-01  0.43544803214E-01  0.51100000000E-03 0. -1.
         11    1    4    4    0    0 -0.81408963837E-01 -0.30966065170E-01  0.41366571307E-01  0.96424949716E-01  0.51100000000E-03 0.  1.
</event>
<event>
 8    1  0.2257781E+004  0.1043930E+01  0.7957747E-01            NaN
         13   -1    0    0    0    0  0.00000000000E+00  0.00000000000E+00  0.74505805969E-08  0.10566000000E+00  0.10566000000E+00 0.  1.
     999900   -1    0    0    0    0 -0.00000000000E+00 -0.00000000000E+00 -0.74505805969E-08  0.93827000000E+00  0.93827000000E+00 0.  1.
     999902    2    1    2    0    0 -0.13043514185E-01  0.30656121442E-02  0.25012854208E-02  0.10302996050E+01  0.10302094391E+01 0.  0.
     999903    2    3    3    0    0  0.90741309809E-02  0.49417428583E-01  0.12254314992E+00  0.14066612406E+00  0.47388951927E-01 0.  0.
         14    1    1    2    0    0  0.13043514185E-01 -0.30656121442E-02 -0.25012854208E-02  0.13630395037E-01  0.00000000000E+00 0.  1.
     999901    1    3    3    0    0 -0.22117645166E-01 -0.46351816439E-01 -0.12004186450E+00  0.88963348090E+00  0.88000000000E+00 0.  1.
        -11    1    4    4    0    0  0.60475668008E-02  0.16628728364E-01  0.98022024123E-01  0.99607559981E-01  0.51100000000E-03 0. -1.
         11    1    4    4    0    0  0.30265641801E-02  0.32788700219E-01  0.24521125796E-01  0.41058564077E-01  0.51100000000E-03 0.  1.
</event>
<event>
 8    1  0.2257781E+004  0.1043930E+01  0.7957747E-01            NaN
         13   -1    0    0    0    0  0.00000000000E+00  0.00000000000E+00  0.74505805969E-08  0.10566000000E+00  0.10566000000E+00 0.  1.
     999900   -1    0    0    0    0 -0.00000000000E+00 -0.00000000000E+00 -0.74505805969E-08  0.93827000000E+00  0.93827000000E+00 0.  1.
     999902    2    1    2    0    0  0.11633860813E-01  0.51026182204E-02  0.45324381833E-02  0.10304419895E+01  0.10303537098E+01 0.  0.
     999903    2    3    3    0    0 -0.20806515754E-02  0.20141290019E-01 -0.13166538217E+00  0.13973210649E+00  0.42181607953E-01 0.  0.
         14    1    1    2    0    0 -0.11633860813E-01 -0.51026182204E-02 -0.45324381833E-02  0.13488010454E-01  0.00000000000E+00 0.  1.
     999901    1    3    3    0    0  0.13714512388E-01 -0.15038671798E-01  0.13619782035E+00  0.89070988305E+00  0.88000000000E+00 0. -1.
        -11    1    4    4    0    0  0.59847525210E-02 -0.82013100235E-02 -0.90044307065E-02  0.13580119373E-01  0.51100000000E-03 0. -1.
         11    1    4    4    0    0 -0.80654040964E-02  0.28342600042E-01 -0.12266095146E+00  0.12615198712E+00  0.51100000000E-03 0.  1.
</event>
<event>
 8    1  0.2257781E+004  0.1043930E+01  0.7957747E-01            NaN
         13   -1    0    0    0    0  0.00000000000E+00  0.00000000000E+00  0.74505805969E-08  0.10566000000E+00  0.10566000000E+00 0.  1.
     999900   -1    0    0    0    0 -0.00000000000E+00 -0.00000000000E+00 -0.74505805969E-08  0.93827000000E+00  0.93827000000E+00 0. -1.
     999902    2    1    2    0    0  0.68351148713E-02 -0.79898913911E-03  0.13262841400E-01  0.10289881079E+01  0.10288796168E+01 0.  0.
     999903    2    3    3    0    0  0.44751688564E-01 -0.37566838260E-01  0.11969782485E+00  0.14100277746E+00  0.46262652441E-01 0.  0.
         14    1    1    2    0    0 -0.68351148713E-02  0.79898913911E-03 -0.13262841400E-01  0.14941892147E-01  0.00000000000E+00 0. -1.
     999901    1    3    3    0    0 -0.37916573693E-01  0.36767849121E-01 -0.10643498345E+00  0.88798533039E+00  0.88000000000E+00 0. -1.
        -11    1    4    4    0    0  0.14317315433E-01  0.94722060616E-02  0.17913527274E-01  0.24816603097E-01  0.51100000000E-03 0. -1.
         11    1    4    4    0    0  0.30434373131E-01 -0.47039044321E-01  0.10178429758E+00  0.11618617436E+00  0.51100000000E-03 0.  1.
</event>
<event>
 8    1  0.2257781E+004  0.1043930E+01  0.7957747E-01            NaN
         13   -1    0    0    0    0  0.00000000000E+00  0.00000000000E+00  0.74505805969E-08  0.10566000000E+00  0.10566000000E+00 0. -1.
     999900   -1    0    0    0    0 -0.00000000000E+00 -0.00000000000E+00 -0.74505805969E-08  0.93827000000E+00  0.93827000000E+00 0.  1.
     999902    2    1    2    0    0  0.10783740277E-01 -0.86374450835E-02  0.14711640885E-02  0.10300354386E+01  0.10299417197E+01 0.  0.
     999903    2    3    3    0    0 -0.12924344908E+00  0.19847872126E-01 -0.20095463077E-02  0.13850240929E+00  0.45618767469E-01 0.  0.
         14    1    1    2    0    0 -0.10783740277E-01  0.86374450835E-02 -0.14711640885E-02  0.13894561372E-01  0.00000000000E+00 0.  1.
     999901    1    3    3    0    0  0.14002718936E+00 -0.28485317210E-01  0.34807103963E-02  0.89153302934E+00  0.88000000000E+00 0. -1.
        -11    1    4    4    0    0 -0.99265191630E-01  0.82484148785E-02  0.17155420239E-01  0.10107514127E+00  0.51100000000E-03 0.  1.
         11    1    4    4    0    0 -0.29978257448E-01  0.11599457248E-01 -0.19164966546E-01  0.37427268025E-01  0.51100000000E-03 0. -1.
</event>
<event>
 8    1  0.2257781E+004  0.1043930E+01  0.7957747E-01            NaN
         13   -1    0    0    0    0  0.00000000000E+00  0.00000000000E+00  0.74505805969E-08  0.10566000000E+00  0.10566000000E+00 0.  1.
     999900   -1    0    0    0    0 -0.00000000000E+00 -0.00000000000E+00 -0.74505805969E-08  0.93827000000E+00  0.93827000000E+00 0.  1.
     999902    2    1    2    0    0 -0.11127952033E-01  0.10955901737E-01 -0.91235151530E-03  0.10282872546E+01  0.10281682656E+01 0.  0.
     999903    2    3    3    0    0  0.65543370002E-02 -0.83478679037E-01  0.99118992602E-01  0.13742428913E+00  0.45268215784E-01 0.  0.
         14    1    1    2    0    0  0.11127952033E-01 -0.10955901737E-01  0.91235151530E-03  0.15642745431E-01  0.00000000000E+00 0. -1.
     999901    1    3    3    0    0 -0.17682289033E-01  0.94434580774E-01 -0.10003134412E+00  0.89086296544E+00  0.88000000000E+00 0.  1.
        -11    1    4    4    0    0  0.19768819905E-01 -0.40650804296E-01  0.72063079609E-01  0.85068458867E-01  0.51100000000E-03 0. -1.
         11    1    4    4    0    0 -0.13214482904E-01 -0.42827874741E-01  0.27055912992E-01  0.52355830259E-01  0.51100000000E-03 0.  1.
</event>
<event>
 8    1  0.2257781E+004  0.1043930E+01  0.7957747E-01            NaN
         13   -1    0    0    0    0  0.00000000000E+00  0.00000000000E+00  0.74505805969E-08  0.10566000000E+00  0.10566000000E+00 0. -1.
     999900   -1    0    0    0    0 -0.00000000000E+00 -0.00000000000E+00 -0.74505805969E-08  0.93827000000E+00  0.93827000000E+00 0. -1.
     999902    2    1    2    0    0  0.13792691285E-01 -0.10450829472E-02  0.42713801798E-02  0.10294532870E+01  0.10293514924E+01 0.  0.
     999903    2    3    3    0    0  0.12389578573E+00 -0.20421893104E-02 -0.49188748473E-01  0.14098175058E+00  0.45847407359E-01 0.  0.
         14    1    1    2    0    0 -0.13792691285E-01  0.10450829472E-02 -0.42713801798E-02  0.14476713021E-01  0.00000000000E+00 0. -1.
     999901    1    3    3    0    0 -0.11010309445E+00  0.99710636318E-03  0.53460128652E-01  0.88847153639E+00  0.88000000000E+00 0.  1.
        -11    1    4    4    0    0  0.19468896970E-01 -0.55439590814E-02  0.81126948308E-02  0.21813994818E-01  0.51100000000E-03 0. -1.
         11    1    4    4    0    0  0.10442688876E+00  0.35017697710E-02 -0.57301443303E-01  0.11916775577E+00  0.51100000000E-03 0.  1.
</event>
<event>
 8    1  0.2257781E+004  0.1043930E+01  0.7957747E-01            NaN
         13   -1    0    0    0    0  0.00000000000E+00  0.00000000000E+00  0.74505805969E-08  0.10566000000E+00  0.10566000000E+00 0. -1.
     999900   -1    0    0    0    0 -0.00000000000E+00 -0.00000000000E+00 -0.74505805969E-08  0.93827000000E+00  0.93827000000E+00 0. -1.
     999902    2    1    2    0    0 -0.75080805500E-02 -0.19073491060E-02  0.12115566536E-01  0.10295495895E+01  0.10294491542E+01 0.  0.
     999903    2    3    3    0    0  0.98209231433E-01 -0.35736396122E-01 -0.79135175240E-01  0.13789536707E+00  0.42785665265E-01 0.  0.
         14    1    1    2    0    0  0.75080805500E-02  0.19073491060E-02 -0.12115566536E-01  0.14380410517E-01  0.00000000000E+00 0. -1.
     999901    1    3    3    0    0 -0.10571731198E+00  0.33829047016E-01  0.91250741776E-01  0.89165422241E+00  0.88000000000E+00 0.  1.
        -11    1    4    4    0    0  0.11423138264E-02 -0.10414058873E-01 -0.62265915280E-03  0.10507441578E-01  0.51100000000E-03 0.  1.
         11    1    4    4    0    0  0.97066917606E-01 -0.25322337249E-01 -0.78512516087E-01  0.12738792549E+00  0.51100000000E-03 0. -1.
</event>
<event>
 8    1  0.2257781E+004  0.1043930E+01  0.7957747E-01            NaN
         13   -1    0    0    0    0  0.00000000000E+00  0.00000000000E+00  0.74505805969E-08  0.10566000000E+00  0.10566000000E+00 0.  1.
     999900   -1    0    0    0    0 -0.00000000000E+00 -0.00000000000E+00 -0.74505805969E-08  0.93827000000E+00  0.93827000000E+00 0.  1.
     999902    2    1    2    0    0  0.38381781219E-02  0.63235157036E-02 -0.11918830720E-01  0.10299022779E+01  0.10298067416E+01 0.  0.
     999903    2    3    3    0    0  0.10484327162E+00 -0.21190659995E-01  0.77193451029E-01  0.13922834341E+00  0.44548255322E-01 0.  0.
         14    1    1    2    0    0 -0.38381781219E-02 -0.63235157036E-02  0.11918830720E-01  0.14027722120E-01  0.00000000000E+00 0.  1.
     999901    1    3    3    0    0 -0.10100509350E+00  0.27514175699E-01 -0.89112281749E-01  0.89067393447E+00  0.88000000000E+00 0.  1.
        -11    1    4    4    0    0  0.70233893246E-01 -0.33295320409E-01  0.41754322908E-01  0.88233002466E-01  0.51100000000E-03 0.  1.
         11    1    4    4    0    0  0.34609378378E-01  0.12104660414E-01  0.35439128121E-01  0.50995340949E-01  0.51100000000E-03 0. -1.
</event>
<event>
 8    1  0.2257781E+004  0.1043930E+01  0.7957747E-01            NaN
         13   -1    0    0    0    0  0.00000000000E+00  0.00000000000E+00  0.74505805969E-08  0.10566000000E+00  0.10566000000E+00 0. -1.
     999900   -1    0    0    0    0 -0.00000000000E+00 -0.00000000000E+00 -0.74505805969E-08  0.93827000000E+00  0.93827000000E+00 0. -1.
     999902    2    1    2    0    0 -0.15665736479E-01  0.60889954447E-02  0.14750834733E-02  0.10270579214E+01  0.10269193283E+01 0.  0.
     999903    2    3    3    0    0 -0.30068896113E-01 -0.10596653035E-01  0.12602003313E+00  0.13801500548E+00  0.46375267290E-01 0.  0.
         14    1    1    2    0    0  0.15665736479E-01 -0.60889954447E-02 -0.14750834733E-02  0.16872078598E-01  0.00000000000E+00 0.  1.
     999901    1    3    3    0    0  0.14403159634E-01  0.16685648479E-01 -0.12454494966E+00  0.88904291593E+00  0.88000000000E+00 0. -1.
        -11    1    4    4    0    0 -0.69737116858E-02 -0.15736809932E-01  0.10487340865E+00  0.10627780956E+00  0.51100000000E-03 0.  1.
         11    1    4    4    0    0 -0.23095184427E-01  0.51401568969E-02  0.21146624484E-01  0.31737195917E-01  0.51100000000E-03 0. -1.
</event>
<event>
 8    1  0.2257781E+004  0.1043930E+01  0.7957747E-01            NaN
         13   -1    0    0    0    0  0.00000000000E+00  0.00000000000E+00  0.74505805969E-08  0.10566000000E+00  0.10566000000E+00 0. -1.
     999900   -1    0    0    0    0 -0.00000000000E+00 -0.00000000000E+00 -0.74505805969E-08  0.93827000000E+00  0.93827000000E+00 0. -1.
     999902    2    1    2    0    0  0.16098669768E-02 -0.57206595241E-02  0.13994396587E-01  0.10287260284E+01  0.10286136693E+01 0.  0.
     999903    2    3    3    0    0  0.26106651570E-01 -0.11239921923E+00  0.65893697250E-01  0.14042768607E+00  0.45418211515E-01 0.  0.
         14    1    1    2    0    0 -0.16098669768E-02  0.57206595241E-02 -0.13994396587E-01  0.15203971616E-01  0.00000000000E+00 0.  1.
     999901    1    3    3    0    0 -0.24496784593E-01  0.10667855970E+00 -0.51899300663E-01  0.88829834232E+00  0.88000000000E+00 0. -1.
        -11    1    4    4    0    0  0.56551057001E-02 -0.99736095836E-01  0.51504886503E-01  0.11239343169E+00  0.51100000000E-03 0. -1.
         11    1    4    4    0    0  0.20451545870E-01 -0.12663123392E-01  0.14388810747E-01  0.28034254373E-01  0.51100000000E-03 0.  1.
</event>
<event>
 8    1  0.2257781E+004  0.1043930E+01  0.7957747E-01            NaN
         13   -1    0    0    0    0  0.00000000000E+00  0.00000000000E+00  0.74505805969E-08  0.10566000000E+00  0.10566000000E+00 0. -1.
     999900   -1    0    0    0    0 -0.00000000000E+00 -0.00000000000E+00 -0.74505805969E-08  0.93827000000E+00  0.93827000000E+00 0.  1.
     999902    2    1    2    0    0  0.65962540601E-02  0.80394901697E-02 -0.94205022133E-02  0.10298982563E+01  0.10298026648E+01 0.  0.
     999903    2    3    3    0    0 -0.70037844414E-01  0.38934526139E-01 -0.10497833837E+00  0.14087711573E+00  0.49037875515E-01 0.  0.
         14    1    1    2    0    0 -0.65962540601E-02 -0.80394901697E-02  0.94205022133E-02  0.14031743718E-01  0.00000000000E+00 0.  1.
     999901    1    3    3    0    0  0.76634098474E-01 -0.30895035969E-01  0.95557836152E-01  0.88902114055E+00  0.88000000000E+00 0. -1.
        -11    1    4    4    0    0 -0.10230848717E-01  0.22410039459E-01 -0.58101983994E-01  0.63110869104E-01  0.51100000000E-03 0. -1.
         11    1    4    4    0    0 -0.59806995697E-01  0.16524486680E-01 -0.46876354372E-01  0.77766246628E-01  0.51100000000E-03 0.  1.
</event>
<event>
 8    1  0.2257781E+004  0.1043930E+01  0.7957747E-01            NaN
         13   -1    0    0    0    0  0.00000000000E+00  0.00000000000E+00  0.74505805969E-08  0.10566000000E+00  0.10566000000E+00 0.  1.
     999900   -1    0    0    0    0 -0.00000000000E+00 -0.00000000000E+00 -0.74505805969E-08  0.93827000000E+00  0.93827000000E+00 0. -1.
     999902    2    1    2    0    0  0.71100166588E-02 -0.12948209871E-01  0.22739094913E-02  0.10289841263E+01  0.10288755771E+01 0.  0.
     999903    2    3    3    0    0 -0.76080239136E-01  0.15159545295E-01 -0.10503745105E+00  0.13812701507E+00  0.45035447916E-01 0.  0.
         14    1    1    2    0    0 -0.71100166588E-02  0.12948209871E-01 -0.22739094913E-02  0.14945873682E-01  0.00000000000E+00 0.  1.
     999901    1    3    3    0    0  0.83190255794E-01 -0.28107755166E-01  0.10731136054E+00  0.89085711125E+00  0.88000000000E+00 0.  1.
        -11    1    4    4    0    0 -0.89543503522E-02  0.19494555880E-01 -0.34716921734E-01  0.40813525636E-01  0.51100000000E-03 0.  1.
         11    1    4    4    0    0 -0.67125888783E-01 -0.43350105846E-02 -0.70320529314E-01  0.97313489434E-01  0.51100000000E-03 0. -1.
</event>
<event>
 8    1  0.2257781E+004  0.1043930E+01  0.7957747E-01            NaN
         13   -1    0    0    0    0  0.00000000000E+00  0.00000000000E+00  0.74505805969E-08  0.10566000000E+00  0.10566000000E+00 0.  1.
     999900   -1    0    0    0    0 -0.00000000000E+00 -0.00000000000E+00 -0.74505805969E-08  0.93827000000E+00  0.93827000000E+00 0. -1.
     999902    2    1    2    0    0  0.11279076273E-01 -0.62192864802E-02 -0.55281964315E-02  0.10299136509E+01  0.10298182705E+01 0.  0.
     999903    2    3    3    0    0 -0.82543019107E-01  0.63028507161E-02 -0.10269123579E+00  0.13952045366E+00  0.45468573222E-01 0.  0.
         14    1    1    2    0    0 -0.11279076273E-01  0.62192864802E-02  0.55281964315E-02  0.14016349085E-01  0.00000000000E+00 0. -1.
     999901    1    3    3    0    0  0.93822095380E-01 -0.12522137196E-01  0.97163039358E-01  0.89039319726E+00  0.88000000000E+00 0.  1.
        -11    1    4    4    0    0 -0.10014157235E-01 -0.11278417336E-01 -0.37512405341E-01  0.40434239430E-01  0.51100000000E-03 0. -1.
         11    1    4    4    0    0 -0.72528861872E-01  0.17581268053E-01 -0.65178830448E-01  0.99086214230E-01  0.51100000000E-03 0.  1.
</event>
<event>
 8    1  0.2257781E+004  0.1043930E+01  0.7957747E-01            NaN
         13   -1    0    0    0    0  0.00000000000E+00  0.00000000000E+00  0.74505805969E-08  0.10566000000E+00  0.10566000000E+00 0.  1.
     999900   -1    0    0    0    0 -0.00000000000E+00 -0.00000000000E+00 -0.74505805969E-08  0.93827000000E+00  0.93827000000E+00 0.  1.
     999902    2    1    2    0    0 -0.37233951410E-02  0.11944956513E-01  0.81312129602E-02  0.10290081274E+01  0.10288999290E+01 0.  0.
     999903    2    3    3    0    0  0.75077397320E-01 -0.61267784915E-02  0.10899575124E+00  0.13956458924E+00  0.43863969034E-01 0.  0.
         14    1    1    2    0    0  0.37233951410E-02 -0.11944956513E-01 -0.81312129602E-02  0.14921872593E-01  0.00000000000E+00 0. -1.
     999901    1    3    3    0    0 -0.78800792461E-01  0.18071735005E-01 -0.10086453828E+00  0.88944353816E+00  0.88000000000E+00 0.  1.
        -11    1    4    4    0    0  0.48148582618E-01  0.17272858078E-01  0.58136713114E-01  0.77438854376E-01  0.51100000000E-03 0. -1.
         11    1    4    4    0    0  0.26928814702E-01 -0.23399636569E-01  0.50859038125E-01  0.62125734868E-01  0.51100000000E-03 0.  1.
</event>
<event>
 8    1  0.2257781E+004  0.1043930E+01  0.7957747E-01            NaN
         13   -1    0    0    0    0  0.00000000000E+00  0.00000000000E+00  0.74505805969E-08  0.10566000000E+00  0.10566000000E+00 0.  1.
     999900   -1    0    0    0    0 -0.00000000000E+00 -0.00000000000E+00 -0.74505805969E-08  0.93827000000E+00  0.93827000000E+00 0. -1.
     999902    2    1    2    0    0 -0.11389850186E-01  0.70901625249E-03 -0.12639573838E-01  0.10269009008E+01  0.10267596943E+01 0.  0.
     999903    2    3    3    0    0 -0.99977427674E-01 -0.18853278786E-01  0.80839824040E-01  0.13731175967E+00  0.44367894098E-01 0.  0.
         14    1    1    2    0    0  0.11389850186E-01 -0.70901625249E-03  0.12639573838E-01  0.17029099157E-01  0.00000000000E+00 0.  1.
     999901    1    3    3    0    0  0.88587577488E-01  0.19562295038E-01 -0.93479397878E-01  0.88958914118E+00  0.88000000000E+00 0. -1.
        -11    1    4    4    0    0 -0.51409170455E-01 -0.50418239418E-02  0.67655374819E-01  0.85122462714E-01  0.51100000000E-03 0.  1.
         11    1    4    4    0    0 -0.48568257218E-01 -0.13811454844E-01  0.13184449220E-01  0.52189296952E-01  0.51100000000E-03 0. -1.
</event>
<event>
 8    1  0.2257781E+004  0.1043930E+01  0.7957747E-01            NaN
         13   -1    0    0    0    0  0.00000000000E+00  0.00000000000E+00  0.74505805969E-08  0.10566000000E+00  0.10566000000E+00 0. -1.
     999900   -1    0    0    0    0 -0.00000000000E+00 -0.00000000000E+00 -0.74505805969E-08  0.93827000000E+00  0.93827000000E+00 0. -1.
     999902    2    1    2    0    0 -0.14414234058E-01 -0.68610116338E-03 -0.47332791300E-02  0.10287430052E+01  0.10286308988E+01 0.  0.
     999903    2    3    3    0    0 -0.38830366775E-01 -0.96411595922E-01 -0.82186175153E-01  0.13983442222E+00  0.44677791333E-01 0.  0.
         14    1    1    2    0    0  0.14414234058E-01  0.68610116338E-03  0.47332791300E-02  0.15186994752E-01  0.00000000000E+00 0. -1.
     999901    1    3    3    0    0  0.24416132717E-01  0.95725494759E-01  0.77452896023E-01  0.88890858303E+00  0.88000000000E+00 0.  1.
        -11    1    4    4    0    0 -0.34694743397E-01 -0.74330799937E-01 -0.38303034483E-01  0.90532737782E-01  0.51100000000E-03 0.  1.
         11    1    4    4    0    0 -0.41356233776E-02 -0.22080795985E-01 -0.43883140671E-01  0.49301684435E-01  0.51100000000E-03 0. -1.
</event>
<event>
 8    1  0.2257781E+004  0.1043930E+01  0.7957747E-01            NaN
         13   -1    0    0    0    0  0.00000000000E+00  0.00000000000E+00  0.74505805969E-08  0.10566000000E+00  0.10566000000E+00 0. -1.
     999900   -1    0    0    0    0 -0.00000000000E+00 -0.00000000000E+00 -0.74505805969E-08  0.93827000000E+00  0.93827000000E+00 0.  1.
     999902    2    1    2    0    0  0.84662092531E-02  0.10200930209E-01  0.88594687038E-02  0.10279855382E+01  0.10278618783E+01 0.  0.
     999903    2    3    3    0    0 -0.11165632295E+00  0.31454751947E-01 -0.57219075549E-01  0.13711656821E+00  0.45501591163E-01 0.  0.
         14    1    1    2    0    0 -0.84662092531E-02 -0.10200930209E-01 -0.88594687038E-02  0.15944461796E-01  0.00000000000E+00 0.  1.
     999901    1    3    3    0    0  0.12012253220E+00 -0.21253821739E-01  0.66078544253E-01  0.89086896999E+00  0.88000000000E+00 0. -1.
        -11    1    4    4    0    0 -0.34346898720E-01  0.15369302147E-01 -0.42541044229E-01  0.56797239944E-01  0.51100000000E-03 0.  1.
         11    1    4    4    0    0 -0.77309424226E-01  0.16085449800E-01 -0.14678031320E-01  0.80319328270E-01  0.51100000000E-03 0. -1.
</event>
<event>
 8    1  0.2257781E+004  0.1043930E+01  0.7957747E-01            NaN
         13   -1    0    0    0    0  0.00000000000E+00  0.00000000000E+00  0.74505805969E-08  0.10566000000E+00  0.10566000000E+00 0. -1.
     999900   -1    0    0    0    0 -0.00000000000E+00 -0.00000000000E+00 -0.74505805969E-08  0.93827000000E+00  0.93827000000E+00 0.  1.
     999902    2    1    2    0    0  0.62063879682E-02 -0.13152676076E-01 -0.42907322784E-02  0.10287668037E+01  0.10286550509E+01 0.  0.
     999903    2    3    3    0    0  0.36941969660E-01 -0.12654115700E+00  0.18980827729E-01  0.14065465473E+00  0.45233688095E-01 0.  0.
         14    1    1    2    0    0 -0.62063879682E-02  0.13152676076E-01  0.42907322784E-02  0.15163196334E-01  0.00000000000E+00 0. -1.
     999901    1    3    3    0    0 -0.30735581692E-01  0.11338848092E+00 -0.23271560008E-01  0.88811214894E+00  0.88000000000E+00 0.  1.
        -11    1    4    4    0    0  0.44749166921E-01 -0.89046280240E-01  0.22573974506E-01  0.10218401739E+00  0.51100000000E-03 0.  1.
         11    1    4    4    0    0 -0.78071972614E-02 -0.37494876757E-01 -0.35931467765E-02  0.38470637333E-01  0.51100000000E-03 0. -1.
</event>
<event>
 8    1  0.2257781E+004  0.1043930E+01  0.7957747E-01            NaN
         13   -1    0    0    0    0  0.00000000000E+00  0.00000000000E+00  0.74505805969E-08  0.10566000000E+00  0.10566000000E+00 0. -1.
     999900   -1    0    0    0    0 -0.00000000000E+00 -0.00000000000E+00 -0.74505805969E-08  0.93827000000E+00  0.93827000000E+00 0. -1.
     999902    2    1    2    0    0  0.79593856938E-02  0.10816824316E-01 -0.24902631503E-02  0.10302714159E+01  0.10301808742E+01 0.  0.
     999903    2    3    3    0    0 -0.10545007893E+00 -0.77274839411E-01  0.91987911823E-02  0.13855482311E+00  0.44963332779E-01 0.  0.
         14    1    1    2    0    0 -0.79593856938E-02 -0.10816824316E-01  0.24902631503E-02  0.13658584095E-01  0.00000000000E+00 0.  1.
     999901    1    3    3    0    0  0.11340946462E+00  0.88091663728E-01 -0.11689054333E-01  0.89171659280E+00  0.88000000000E+00 0.  1.
        -11    1    4    4    0    0 -0.67856381118E-01 -0.59310708213E-01  0.25731648284E-01  0.93726343210E-01  0.51100000000E-03 0.  1.
         11    1    4    4    0    0 -0.37593697810E-01 -0.17964131198E-01 -0.16532857102E-01  0.44828479895E-01  0.51100000000E-03 0. -1.
</event>
<event>
 8    1  0.2257781E+004  0.1043930E+01  0.7957747E-01            NaN
         13   -1    0    0    0    0  0.00000000000E+00  0.00000000000E+00  0.74505805969E-08  0.10566000000E+00  0.10566000000E+00 0. -1.
     999900   -1    0    0    0    0 -0.00000000000E+00 -0.00000000000E+00 -0.74505805969E-08  0.93827000000E+00  0.93827000000E+00 0. -1.
     999902    2    1    2    0    0 -0.52283976264E-02  0.99158523063E-02 -0.81984355622E-02  0.10300420695E+01  0.10299484406E+01 0.  0.
     999903    2    3    3    0    0 -0.10972977447E-01 -0.11534468992E+00 -0.63526076394E-01  0.13943309159E+00  0.44510907891E-01 0.  0.
         14    1    1    2    0    0  0.52283976264E-02 -0.99158523063E-02  0.81984355622E-02  0.13887930529E-01  0.00000000000E+00 0. -1.
     999901    1    3    3    0    0  0.57445798207E-02  0.12526054223E+00  0.55327640832E-01  0.89060897788E+00  0.88000000000E+00 0.  1.
        -11    1    4    4    0    0  0.61824398229E-02 -0.50328743212E-01 -0.49253118866E-01  0.70691836831E-01  0.51100000000E-03 0.  1.
         11    1    4    4    0    0 -0.17155417270E-01 -0.65015946713E-01 -0.14272957528E-01  0.68741254762E-01  0.51100000000E-03 0. -1.
</event>
<event>
 8    1  0.2257781E+004  0.1043930E+01  0.7957747E-01            NaN
         13   -1    0    0    0    0  0.00000000000E+00  0.00000000000E+00  0.74505805969E-08  0.10566000000E+00  0.10566000000E+00 0. -1.
     999900   -1    0    0    0    0 -0.00000000000E+00 -0.00000000000E+00 -0.74505805969E-08  0.93827000000E+00  0.93827000000E+00 0.  1.
     999902    2    1    2    0    0  0.75587072675E-02  0.85689903749E-02  0.74988854113E-02  0.10302627057E+01  0.10301720477E+01 0.  0.
     999903    2    3    3    0    0 -0.76900214885E-01  0.86117884765E-01  0.66751866292E-01  0.14084825994E+00  0.45304387740E-01 0.  0.
         14    1    1    2    0    0 -0.75587072675E-02 -0.85689903749E-02 -0.74988854113E-02  0.13667294319E-01  0.00000000000E+00 0.  1.
     999901    1    3    3    0    0  0.84458922152E-01 -0.77548894390E-01 -0.59252980881E-01  0.88941444574E+00  0.88000000000E+00 0.  1.
        -11    1    4    4    0    0 -0.41302331633E-01  0.70958637738E-01  0.29805739838E-01  0.87347891310E-01  0.51100000000E-03 0.  1.
         11    1    4    4    0    0 -0.35597883251E-01  0.15159247026E-01  0.36946126454E-01  0.53500368628E-01  0.51100000000E-03 0. -1.
</event>
<event>
 8    1  0.2257781E+004  0.1043930E+01  0.7957747E-01            NaN
         13   -1    0    0    0    0  0.00000000000E+00  0.00000000000E+00  0.74505805969E-08  0.10566000000E+00  0.10566000000E+00 0.  1.
     999900   -1    0    0    0    0 -0.00000000000E+00 -0.00000000000E+00 -0.74505805969E-08  0.93827000000E+00  0.93827000000E+00 0.  1.
     999902    2    1    2    0    0 -0.41748110633E-02  0.99649041452E-02 -0.74560077498E-02  0.10308029130E+01  0.10307193241E+01 0.  0.
     999903    2    3    3    0    0 -0.65518625773E-01 -0.93743185346E-01  0.64495723306E-01  0.13968256026E+00  0.47655473920E-01 0.  0.
         14    1    1    2    0    0  0.41748110633E-02 -0.99649041452E-02  0.74560077498E-02  0.13127087019E-01  0.00000000000E+00 0.  1.
     999901    1    3    3    0    0  0.61343814709E-01  0.10370808949E+00 -0.71951731056E-01  0.89112035272E+00  0.88000000000E+00 0.  1.
        -11    1    4    4    0    0 -0.35101955315E-01 -0.53520151448E-01  0.89016555565E-02  0.64622399140E-01  0.51100000000E-03 0.  1.
         11    1    4    4    0    0 -0.30416670458E-01 -0.40223033898E-01  0.55594067750E-01  0.75060161122E-01  0.51100000000E-03 0. -1.
</event>
<event>
 8    1  0.2257781E+004  0.1043930E+01  0.7957747E-01            NaN
         13   -1    0    0    0    0  0.00000000000E+00  0.00000000000E+00  0.74505805969E-08  0.10566000000E+00  0.10566000000E+00 0.  1.
     999900   -1    0    0    0    0 -0.00000000000E+00 -0.00000000000E+00 -0.74505805969E-08  0.93827000000E+00  0.93827000000E+00 0. -1.
     999902    2    1    2    0    0  0.11646841996E-01  0.42651721429E-02 -0.64600002620E-02  0.10299452860E+01  0.10298503386E+01 0.  0.
     999903    2    3    3    0    0 -0.80886931740E-01 -0.10290977017E+00 -0.67842680245E-02  0.13862655924E+00  0.45146208179E-01 0.  0.
         14    1    1    2    0    0 -0.11646841996E-01 -0.42651721429E-02  0.64600002620E-02  0.13984713986E-01  0.00000000000E+00 0.  1.
     999901    1    3    3    0    0  0.92533773737E-01  0.10717494231E+00  0.32426776245E-03  0.89131872677E+00  0.88000000000E+00 0.  1.
        -11    1    4    4    0    0 -0.48973767837E-01 -0.66798622512E-01  0.17501986174E-01  0.84658529084E-01  0.51100000000E-03 0.  1.
         11    1    4    4    0    0 -0.31913163904E-01 -0.36111147655E-01 -0.24286254199E-01  0.53968030160E-01  0.51100000000E-03 0. -1.
</event>
<event>
 8    1  0.2257781E+004  0.1043930E+01  0.7957747E-01            NaN
         13   -1    0    0    0    0  0.00000000000E+00  0.00000000000E+00  0.74505805969E-08  0.10566000000E+00  0.10566000000E+00 0. -1.
     999900   -1    0    0    0    0 -0.00000000000E+00 -0.00000000000E+00 -0.74505805969E-08  0.93827000000E+00  0.93827000000E+00 0.  1.
     999902    2    1    2    0    0  0.11021469013E-01  0.69946874302E-02 -0.39103376740E-02  0.10303032186E+01  0.10302131008E+01 0.  0.
     999903    2    3    3    0    0 -0.43289445374E-01 -0.84314372776E-01  0.89290157907E-01  0.13902696943E+00  0.48712179106E-01 0.  0.
         14    1    1    2    0    0 -0.11021469013E-01 -0.69946874302E-02  0.39103376740E-02  0.13626781432E-01  0.00000000000E+00 0. -1.
     999901    1    3    3    0    0  0.54310914387E-01  0.91309060206E-01 -0.93200495581E-01  0.89127624914E+00  0.88000000000E+00 0.  1.
        -11    1    4    4    0    0 -0.28812291023E-01 -0.14615401043E-01  0.13417733702E-01  0.34986493970E-01  0.51100000000E-03 0.  1.
         11    1    4    4    0    0 -0.14477154351E-01 -0.69698971732E-01  0.75872424205E-01  0.10404047546E+00  0.51100000000E-03 0. -1.
</event>
<event>
 8    1  0.2257781E+004  0.1043930E+01  0.7957747E-01            NaN
         13   -1    0    0    0    0  0.00000000000E+00  0.00000000000E+00  0.74505805969E-08  0.10566000000E+00  0.10566000000E+00 0.  1.
     999900   -1    0    0    0    0 -0.00000000000E+00 -0.00000000000E+00 -0.74505805969E-08  0.93827000000E+00  0.93827000000E+00 0. -1.
     999902    2    1    2    0    0 -0.84363973435E-02 -0.11597701666E-01  0.54366620224E-02  0.10285925694E+01  0.10284782142E+01 0.  0.
     999903    2    3    3    0    0 -0.90450841560E-01  0.58743510503E-01 -0.72546728311E-01  0.13856129782E+00  0.48000528115E-01 0.  0.
         14    1    1    2    0    0  0.84363973435E-02  0.11597701666E-01 -0.54366620224E-02  0.15337430620E-01  0.00000000000E+00 0. -1.
     999901    1    3    3    0    0  0.82014444217E-01 -0.70341212169E-01  0.77983390334E-01  0.89003127156E+00  0.88000000000E+00 0.  1.
        -11    1    4    4    0    0 -0.88221937192E-01  0.43673457034E-01 -0.47646255879E-01  0.10936593561E+00  0.51100000000E-03 0. -1.
         11    1    4    4    0    0 -0.22289043684E-02  0.15070053469E-01 -0.24900472432E-01  0.29195362210E-01  0.51100000000E-03 0.  1.
</event>
<event>
 8    1  0.2257781E+004  0.1043930E+01  0.7957747E-01            NaN
         13   -1    0    0    0    0  0.00000000000E+00  0.00000000000E+00  0.74505805969E-08  0.10566000000E+00  0.10566000000E+00 0.  1.
     999900   -1    0    0    0    0 -0.00000000000E+00 -0.00000000000E+00 -0.74505805969E-08  0.93827000000E+00  0.93827000000E+00 0.  1.
     999902    2    1    2    0    0 -0.85813285453E-02  0.45866717469E-02  0.10232318818E-01  0.10298099042E+01  0.10297130968E+01 0.  0.
     999903    2    3    3    0    0  0.79260064610E-01  0.53336929239E-02  0.10701562416E+00  0.14015622068E+00  0.43368378564E-01 0.  0.
         14    1    1    2    0    0  0.85813285453E-02 -0.45866717469E-02 -0.10232318818E-01  0.14120095811E-01  0.00000000000E+00 0. -1.
     999901    1    3    3    0    0 -0.87841393155E-01 -0.74702117701E-03 -0.96783305337E-01  0.88965368351E+00  0.88000000000E+00 0.  1.
        -11    1    4    4    0    0  0.60471817678E-01  0.22762931056E-01  0.81257065282E-01  0.10381697136E+00  0.51100000000E-03 0. -1.
         11    1    4    4    0    0  0.18788246932E-01 -0.17429238132E-01  0.25758558873E-01  0.36339249316E-01  0.51100000000E-03 0.  1.
</event>
<event>
 8    1  0.2257781E+004  0.1043930E+01  0.7957747E-01            NaN
         13   -1    0    0    0    0  0.00000000000E+00  0.00000000000E+00  0.74505805969E-08  0.10566000000E+00  0.10566000000E+00 0. -1.
     999900   -1    0    0    0    0 -0.00000000000E+00 -0.00000000000E+00 -0.74505805969E-08  0.93827000000E+00  0.93827000000E+00 0.  1.
     999902    2    1    2    0    0 -0.71161466379E-02  0.11257262634E-01 -0.26088815113E-02  0.10303590101E+01  0.10302696336E+01 0.  0.
     999903    2    3    3    0    0 -0.41947285915E-03  0.13422376154E+00  0.92771207631E-02  0.14170447520E+00  0.44473578699E-01 0.  0.
         14    1    1    2    0    0  0.71161466379E-02 -0.11257262634E-01  0.26088815113E-02  0.13570989932E-01  0.00000000000E+00 0. -1.
     999901    1    3    3    0    0 -0.66966737787E-02 -0.12296649891E+00 -0.11886002274E-01  0.88865453487E+00  0.88000000000E+00 0.  1.
        -11    1    4    4    0    0  0.25286102314E-03 -0.52811775520E-03 -0.60331450198E-02  0.60829932509E-02  0.51100000000E-03 0. -1.
         11    1    4    4    0    0 -0.67233388228E-03  0.13475187930E+00  0.15310265783E-01  0.13562148195E+00  0.51100000000E-03 0.  1.
</event>
<event>
 8    1  0.2257781E+004  0.1043930E+01  0.7957747E-01            NaN
         13   -1    0    0    0    0  0.00000000000E+00  0.00000000000E+00  0.74505805969E-08  0.10566000000E+00  0.10566000000E+00 0. -1.
     999900   -1    0    0    0    0 -0.00000000000E+00 -0.00000000000E+00 -0.74505805969E-08  0.93827000000E+00  0.93827000000E+00 0.  1.
     999902    2    1    2    0    0  0.10800340748E-01 -0.25432209123E-02 -0.83047016044E-02  0.10300705844E+01  0.10299773422E+01 0.  0.
     999903    2    3    3    0    0  0.10855094713E+00 -0.31930332707E-02 -0.78996545806E-01  0.14184035513E+00  0.45658827275E-01 0.  0.
         14    1    1    2    0    0 -0.10800340748E-01  0.25432209123E-02  0.83047016044E-02  0.13859415630E-01  0.00000000000E+00 0.  1.
     999901    1    3    3    0    0 -0.97750606386E-01  0.64981235835E-03  0.70691844201E-01  0.88823022924E+00  0.88000000000E+00 0. -1.
        -11    1    4    4    0    0  0.19893675946E-01  0.58104167334E-02  0.27477169168E-02  0.20912444968E-01  0.51100000000E-03 0. -1.
         11    1    4    4    0    0  0.88657271187E-01 -0.90034500041E-02 -0.81744262723E-01  0.12092791016E+00  0.51100000000E-03 0.  1.
</event>
<event>
 8    1  0.2257781E+004  0.1043930E+01  0.7957747E-01            NaN
         13   -1    0    0    0    0  0.00000000000E+00  0.00000000000E+00  0.74505805969E-08  0.10566000000E+00  0.10566000000E+00 0. -1.
     999900   -1    0    0    0    0 -0.00000000000E+00 -0.00000000000E+00 -0.74505805969E-08  0.93827000000E+00  0.93827000000E+00 0.  1.
     999902    2    1    2    0    0 -0.16398996662E-02 -0.10990072944E-01  0.75931369796E-02  0.10304716679E+01  0.10303837788E+01 0.  0.
     999903    2    3    3    0    0 -0.78346585923E-01  0.80962460067E-01  0.71213767561E-01  0.14008592637E+00  0.43122599783E-01 0.  0.
         14    1    1    2    0    0  0.16398996662E-02  0.10990072944E-01 -0.75931369796E-02  0.13458332119E-01  0.00000000000E+00 0.  1.
     999901    1    3    3    0    0  0.76706686257E-01 -0.91952533011E-01 -0.63620630581E-01  0.89038574151E+00  0.88000000000E+00 0. -1.
        -11    1    4    4    0    0 -0.51224178141E-01  0.74244113568E-01  0.65720367812E-01  0.11160435785E+00  0.51100000000E-03 0.  1.
         11    1    4    4    0    0 -0.27122407782E-01  0.67183464986E-02  0.54933997493E-02  0.28481568520E-01  0.51100000000E-03 0. -1.
</event>
<event>
 7    1  0.2762750E+004  0.1043930E+01  0.7957747E-01            NaN
         13   -1    0    0    0    0  0.00000000000E+00  0.00000000000E+00  0.74505805969E-08  0.10566000000E+00  0.10566000000E+00 0. -1.
     999900   -1    0    0    0    0 -0.00000000000E+00 -0.00000000000E+00 -0.74505805969E-08  0.93827000000E+00  0.93827000000E+00 0. -1.
     999903    2    1    2    0    0 -0.11395127168E-02  0.33486620982E-01 -0.10256253609E+00  0.11671439737E+00  0.44503083824E-01 0.  0.
         14    1    1    2    0    0  0.25467556756E-01  0.29299564336E-01  0.11736568534E-02  0.38838619798E-01  0.00000000000E+00 0. -1.
     999901    1    1    2    0    0 -0.24328044039E-01 -0.62786185318E-01  0.10138887924E+00  0.88837698283E+00  0.88000000000E+00 0.  1.
        -11    1    3    3    0    0  0.88699212426E-02  0.41231604706E-01 -0.69355449585E-01  0.81173642505E-01  0.51100000000E-03 0. -1.
         11    1    3    3    0    0 -0.10009433959E-01 -0.77449837241E-02 -0.33207086506E-01  0.35540754864E-01  0.51100000000E-03 0.  1.
</event>
<event>
 8    1  0.2257781E+004  0.1043930E+01  0.7957747E-01            NaN
         13   -1    0    0    0    0  0.00000000000E+00  0.00000000000E+00  0.74505805969E-08  0.10566000000E+00  0.10566000000E+00 0.  1.
     999900   -1    0    0    0    0 -0.00000000000E+00 -0.00000000000E+00 -0.74505805969E-08  0.93827000000E+00  0.93827000000E+00 0.  1.
     999902    2    1    2    0    0 -0.42429706844E-02 -0.16323456077E-01 -0.12856136270E-01  0.10227229668E+01  0.10225030702E+01 0.  0.
     999903    2    3    3    0    0  0.54242918806E-01  0.57426602784E-01 -0.98052718496E-01  0.13361210300E+00  0.44696191294E-01 0.  0.
         14    1    1    2    0    0  0.42429706844E-02  0.16323456077E-01  0.12856136270E-01  0.21207033227E-01  0.00000000000E+00 0.  1.
     999901    1    3    3    0    0 -0.58485889491E-01 -0.73750058860E-01  0.85196582226E-01  0.88911086377E+00  0.88000000000E+00 0. -1.
        -11    1    4    4    0    0  0.28134921758E-01  0.24213418240E-01 -0.78955165776E-01  0.87247021548E-01  0.51100000000E-03 0.  1.
         11    1    4    4    0    0  0.26107997048E-01  0.33213184543E-01 -0.19097552721E-01  0.46365081455E-01  0.51100000000E-03 0. -1.
</event>
<event>
 8    1  0.2257781E+004  0.1043930E+01  0.7957747E-01            NaN
         13   -1    0    0    0    0  0.00000000000E+00  0.00000000000E+00  0.74505805969E-08  0.10566000000E+00  0.10566000000E+00 0.  1.
     999900   -1    0    0    0    0 -0.00000000000E+00 -0.00000000000E+00 -0.74505805969E-08  0.93827000000E+00  0.93827000000E+00 0.  1.
     999902    2    1    2    0    0 -0.29059311614E-02 -0.13970845427E-01 -0.74702468414E-03  0.10296405982E+01  0.10295414389E+01 0.  0.
     999903    2    3    3    0    0  0.11114135014E+00  0.27951967396E-01  0.64460815114E-01  0.13890137319E+00  0.44773681945E-01 0.  0.
         14    1    1    2    0    0  0.29059311614E-02  0.13970845427E-01  0.74702468414E-03  0.14289401798E-01  0.00000000000E+00 0. -1.
     999901    1    3    3    0    0 -0.11404728131E+00 -0.41922812823E-01 -0.65207839798E-01  0.89073922501E+00  0.88000000000E+00 0.  1.
        -11    1    4    4    0    0  0.36959592903E-01 -0.88363548092E-02  0.84507819800E-02  0.38932884699E-01  0.51100000000E-03 0. -1.
         11    1    4    4    0    0  0.74181757241E-01  0.36788322205E-01  0.56010033134E-01  0.99968488489E-01  0.51100000000E-03 0.  1.
</event>
<event>
 8    1  0.2257781E+004  0.1043930E+01  0.7957747E-01            NaN
         13   -1    0    0    0    0  0.00000000000E+00  0.00000000000E+00  0.74505805969E-08  0.10566000000E+00  0.10566000000E+00 0. -1.
     999900   -1    0    0    0    0 -0.00000000000E+00 -0.00000000000E+00 -0.74505805969E-08  0.93827000000E+00  0.93827000000E+00 0.  1.
     999902    2    1    2    0    0  0.10983513852E-01  0.94603800049E-02 -0.29579354649E-03  0.10294309014E+01  0.10293287895E+01 0.  0.
     999903    2    3    3    0    0  0.99810583400E-01  0.72797262518E-01  0.52768450631E-01  0.14110797421E+00  0.43189779042E-01 0.  0.
         14    1    1    2    0    0 -0.10983513852E-01 -0.94603800049E-02  0.29579354649E-03  0.14499098599E-01  0.00000000000E+00 0. -1.
     999901    1    3    3    0    0 -0.88827069548E-01 -0.63336882513E-01 -0.53064244177E-01  0.88832292720E+00  0.88000000000E+00 0.  1.
        -11    1    4    4    0    0  0.31830180187E-01  0.16222246322E-01  0.36693290753E-01  0.51215040308E-01  0.51100000000E-03 0.  1.
         11    1    4    4    0    0  0.67980403213E-01  0.56575016196E-01  0.16075159877E-01  0.89892933897E-01  0.51100000000E-03 0. -1.
</event>
<event>
 8    1  0.2257781E+004  0.1043930E+01  0.7957747E-01            NaN
         13   -1    0    0    0    0  0.00000000000E+00  0.00000000000E+00  0.74505805969E-08  0.10566000000E+00  0.10566000000E+00 0. -1.
     999900   -1    0    0    0    0 -0.00000000000E+00 -0.00000000000E+00 -0.74505805969E-08  0.93827000000E+00  0.93827000000E+00 0. -1.
     999902    2    1    2    0    0 -0.95732086565E-02 -0.10471335882E-01 -0.40807051604E-03  0.10297362788E+01  0.10296384522E+01 0.  0.
     999903    2    3    3    0    0 -0.85141098944E-01 -0.65601279037E-01 -0.79802188862E-01  0.14122446534E+00  0.44982504640E-01 0.  0.
         14    1    1    2    0    0  0.95732086565E-02  0.10471335882E-01  0.40807051604E-03  0.14193721171E-01  0.00000000000E+00 0.  1.
     999901    1    3    3    0    0  0.75567890287E-01  0.55129943155E-01  0.79394118346E-01  0.88851181349E+00  0.88000000000E+00 0. -1.
        -11    1    4    4    0    0 -0.19526480519E-01 -0.31668474350E-01 -0.48166248945E-01  0.60863982515E-01  0.51100000000E-03 0. -1.
         11    1    4    4    0    0 -0.65614618425E-01 -0.33932804687E-01 -0.31635939917E-01  0.80360482829E-01  0.51100000000E-03 0.  1.
</event>
<event>
 8    1  0.2257781E+004  0.1043930E+01  0.7957747E-01            NaN
         13   -1    0    0    0    0  0.00000000000E+00  0.00000000000E+00  0.74505805969E-08  0.10566000000E+00  0.10566000000E+00 0.  1.
     999900   -1    0    0    0    0 -0.00000000000E+00 -0.00000000000E+00 -0.74505805969E-08  0.93827000000E+00  0.93827000000E+00 0. -1.
     999902    2    1    2    0    0 -0.45907106954E-02  0.45695331460E-02  0.12760346410E-01  0.10296198044E+01  0.10295203543E+01 0.  0.
     999903    2    3    3    0    0  0.15728396794E-01 -0.12403438432E+00 -0.39167870068E-01  0.13852588488E+00  0.44982082853E-01 0.  0.
         14    1    1    2    0    0  0.45907106954E-02 -0.45695331460E-02 -0.12760346410E-01  0.14310195609E-01  0.00000000000E+00 0. -1.
     999901    1    3    3    0    0 -0.20319107490E-01  0.12860391747E+00  0.51928216477E-01  0.89109391951E+00  0.88000000000E+00 0. -1.
        -11    1    4    4    0    0  0.59393370067E-02 -0.16595449137E-01  0.96592286535E-02  0.20105881610E-01  0.51100000000E-03 0.  1.
         11    1    4    4    0    0  0.97890597877E-02 -0.10743893518E+00 -0.48827098721E-01  0.11842000327E+00  0.51100000000E-03 0. -1.
</event>
<event>
 8    1  0.2257781E+004  0.1043930E+01  0.7957747E-01            NaN
         13   -1    0    0    0    0  0.00000000000E+00  0.00000000000E+00  0.74505805969E-08  0.10566000000E+00  0.10566000000E+00 0. -1.
     999900   -1    0    0    0    0 -0.00000000000E+00 -0.00000000000E+00 -0.74505805969E-08  0.93827000000E+00  0.93827000000E+00 0.  1.
     999902    2    1    2    0    0  0.92075981717E-02 -0.92989999466E-02 -0.28782541505E-02  0.10305309101E+01  0.10304437981E+01 0.  0.
     999903    2    3    3    0    0 -0.12893654662E+00  0.17795689113E-01 -0.31926868149E-01  0.13886855867E+00  0.36384503207E-01 0.  0.
         14    1    1    2    0    0 -0.92075981717E-02  0.92989999466E-02  0.28782541505E-02  0.13399089934E-01  0.00000000000E+00 0.  1.
     999901    1    3    3    0    0  0.13814414479E+00 -0.27094689059E-01  0.29048613999E-01  0.89166235139E+00  0.88000000000E+00 0. -1.
        -11    1    4    4    0    0 -0.51978631766E-01 -0.10533865081E-01 -0.99008240085E-02  0.53953942496E-01  0.51100000000E-03 0.  1.
         11    1    4    4    0    0 -0.76957914852E-01  0.28329554194E-01 -0.22026044141E-01  0.84914616178E-01  0.51100000000E-03 0. -1.
</event>
<event>
 8    1  0.2257781E+004  0.1043930E+01  0.7957747E-01            NaN
         13   -1    0    0    0    0  0.00000000000E+00  0.00000000000E+00  0.74505805969E-08  0.10566000000E+00  0.10566000000E+00 0.  1.
     999900   -1    0    0    0    0 -0.00000000000E+00 -0.00000000000E+00 -0.74505805969E-08  0.93827000000E+00  0.93827000000E+00 0.  1.
     999902    2    1    2    0    0 -0.14441789455E-02 -0.13634713970E-01  0.42422501716E-02  0.10295777262E+01  0.10294776862E+01 0.  0.
     999903    2    3    3    0    0  0.11400381121E+00  0.54942688482E-01  0.34979824961E-01  0.13886121847E+00  0.45202675290E-01 0.  0.
         14    1    1    2    0    0  0.14441789455E-02  0.13634713970E-01 -0.42422501716E-02  0.14352273841E-01  0.00000000000E+00 0. -1.
     999901    1    3    3    0    0 -0.11544799016E+00 -0.68577402452E-01 -0.30737574790E-01  0.89071650768E+00  0.88000000000E+00 0.  1.
        -11    1    4    4    0    0  0.74123161387E-01  0.53912691657E-01  0.11007638695E-01  0.92316036561E-01  0.51100000000E-03 0.  1.
         11    1    4    4    0    0  0.39880649825E-01  0.10299968243E-02  0.23972186266E-01  0.46545181913E-01  0.51100000000E-03 0. -1.
</event>
<event>
 8    1  0.2257781E+004  0.1043930E+01  0.7957747E-01            NaN
         13   -1    0    0    0    0  0.00000000000E+00  0.00000000000E+00  0.74505805969E-08  0.10566000000E+00  0.10566000000E+00 0.  1.
     999900   -1    0    0    0    0 -0.00000000000E+00 -0.00000000000E+00 -0.74505805969E-08  0.93827000000E+00  0.93827000000E+00 0.  1.
     999902    2    1    2    0    0 -0.59219445852E-02  0.14455003948E-02 -0.13363872541E-01  0.10292415015E+01  0.10291366850E+01 0.  0.
     999903    2    3    3    0    0  0.66430554915E-02  0.12403781924E+00  0.43620408954E-01  0.13882925753E+00  0.44060320940E-01 0.  0.
         14    1    1    2    0    0  0.59219445852E-02 -0.14455003948E-02  0.13363872541E-01  0.14688498506E-01  0.00000000000E+00 0.  1.
     999901    1    3    3    0    0 -0.12565000077E-01 -0.12259231884E+00 -0.56984281495E-01  0.89041224397E+00  0.88000000000E+00 0.  1.
        -11    1    4    4    0    0 -0.18934259404E-01  0.51237089838E-01  0.17348415288E-01  0.57314694349E-01  0.51100000000E-03 0.  1.
         11    1    4    4    0    0  0.25577314896E-01  0.72800729399E-01  0.26271993665E-01  0.81514563180E-01  0.51100000000E-03 0. -1.
</event>
<event>
 8    1  0.2257781E+004  0.1043930E+01  0.7957747E-01            NaN
         13   -1    0    0    0    0  0.00000000000E+00  0.00000000000E+00  0.74505805969E-08  0.10566000000E+00  0.10566000000E+00 0. -1.
     999900   -1    0    0    0    0 -0.00000000000E+00 -0.00000000000E+00 -0.74505805969E-08  0.93827000000E+00  0.93827000000E+00 0.  1.
     999902    2    1    2    0    0 -0.41063686775E-02 -0.10199707641E-01 -0.51463410047E-02  0.10317899372E+01  0.10317185146E+01 0.  0.
     999903    2    3    3    0    0 -0.73767262307E-01 -0.26501181843E-01  0.10921752647E+00  0.14151050219E+00  0.44190864609E-01 0.  0.
         14    1    1    2    0    0  0.41063686775E-02  0.10199707641E-01  0.51463410047E-02  0.12140062826E-01  0.00000000000E+00 0. -1.
     999901    1    3    3    0    0  0.69660893630E-01  0.16301474202E-01 -0.11436386748E+00  0.89027943498E+00  0.88000000000E+00 0. -1.
        -11    1    4    4    0    0 -0.52021077321E-01 -0.19152120983E-02  0.88549789596E-01  0.10271897041E+00  0.51100000000E-03 0. -1.
         11    1    4    4    0    0 -0.21746184987E-01 -0.24585969745E-01  0.20667736879E-01  0.38791531788E-01  0.51100000000E-03 0.  1.
</event>
<event>
 8    1  0.2257781E+004  0.1043930E+01  0.7957747E-01            NaN
         13   -1    0    0    0    0  0.00000000000E+00  0.00000000000E+00  0.74505805969E-08  0.10566000000E+00  0.10566000000E+00 0. -1.
     999900   -1    0    0    0    0 -0.00000000000E+00 -0.00000000000E+00 -0.74505805969E-08  0.93827000000E+00  0.93827000000E+00 0. -1.
     999902    2    1    2    0    0 -0.36029751443E-02 -0.13786137762E-02 -0.12195866143E-01  0.10311385514E+01  0.10310592083E+01 0.  0.
     999903    2    3    3    0    0 -0.10959447722E+00 -0.77215785530E-01  0.49707601758E-02  0.14137444325E+00  0.44595938987E-01 0.  0.
         14    1    1    2    0    0  0.36029751443E-02  0.13786137762E-02  0.12195866143E-01  0.12791448582E-01  0.00000000000E+00 0. -1.
     999901    1    3    3    0    0  0.10599150208E+00  0.75837171754E-01 -0.17166626319E-01  0.88976410817E+00  0.88000000000E+00 0. -1.
        -11    1    4    4    0    0 -0.56105501412E-01 -0.49648573502E-01  0.23313412972E-01  0.78463905618E-01  0.51100000000E-03 0.  1.
         11    1    4    4    0    0 -0.53488975809E-01 -0.27567212028E-01 -0.18342652796E-01  0.62910537628E-01  0.51100000000E-03 0. -1.
</event>
<event>
 8    1  0.2257781E+004  0.1043930E+01  0.7957747E-01            NaN
         13   -1    0    0    0    0  0.00000000000E+00  0.00000000000E+00  0.74505805969E-08  0.10566000000E+00  0.10566000000E+00 0.  1.
     999900   -1    0    0    0    0 -0.00000000000E+00 -0.00000000000E+00 -0.74505805969E-08  0.93827000000E+00  0.93827000000E+00 0.  1.
     999902    2    1    2    0    0 -0.49087335776E-02 -0.12594489942E-01 -0.22372529730E-02  0.10302288269E+01  0.10301377159E+01 0.  0.
     999903    2    3    3    0    0  0.77918904272E-01  0.93193720970E-01  0.49356132622E-01  0.13853748988E+00  0.44723405545E-01 0.  0.
         14    1    1    2    0    0  0.49087335776E-02  0.12594489942E-01  0.22372529730E-02  0.13701173056E-01  0.00000000000E+00 0.  1.
     999901    1    3    3    0    0 -0.82827637849E-01 -0.10578821091E+00 -0.51593385595E-01  0.89169133707E+00  0.88000000000E+00 0.  1.
        -11    1    4    4    0    0  0.29998108163E-01  0.54562442330E-01  0.46108930916E-02  0.62437713463E-01  0.51100000000E-03 0. -1.
         11    1    4    4    0    0  0.47920796108E-01  0.38631278640E-01  0.44745239530E-01  0.76099776417E-01  0.51100000000E-03 0.  1.
</event>
<event>
 8    1  0.2257781E+004  0.1043930E+01  0.7957747E-01            NaN
         13   -1    0    0    0    0  0.00000000000E+00  0.00000000000E+00  0.74505805969E-08  0.10566000000E+00  0.10566000000E+00 0. -1.
     999900   -1    0    0    0    0 -0.00000000000E+00 -0.00000000000E+00 -0.74505805969E-08  0.93827000000E+00  0.93827000000E+00 0.  1.
     999902    2    1    2    0    0  0.12330213044E-01 -0.33671732910E-02 -0.16471393094E-02  0.10310426000E+01  0.10309620546E+01 0.  0.
     999903    2    3    3    0    0 -0.37308676362E-02  0.10800594498E+00 -0.82359402175E-01  0.14021354845E+00  0.34605845142E-01 0.  0.
         14    1    1    2    0    0 -0.12330213044E-01  0.33671732910E-02  0.16471393094E-02  0.12887399954E-01  0.00000000000E+00 0. -1.
     999901    1    3    3    0    0  0.16061080680E-01 -0.11137311827E+00  0.80712262866E-01  0.89082905159E+00  0.88000000000E+00 0.  1.
        -11    1    4    4    0    0 -0.10087404368E-01  0.74879227991E-01 -0.73330162185E-01  0.10529115974E+00  0.51100000000E-03 0.  1.
         11    1    4    4    0    0  0.63565367317E-02  0.33126716991E-01 -0.90292399900E-02  0.34922388716E-01  0.51100000000E-03 0. -1.
</event>
<event>
 8    1  0.2257781E+004  0.1043930E+01  0.7957747E-01            NaN
         13   -1    0    0    0    0  0.00000000000E+00  0.00000000000E+00  0.74505805969E-08  0.10566000000E+00  0.10566000000E+00 0.  1.
     999900   -1    0    0    0    0 -0.00000000000E+00 -0.00000000000E+00 -0.74505805969E-08  0.93827000000E+00  0.93827000000E+00 0. -1.
     999902    2    1    2    0    0  0.66621034514E-02  0.74837504228E-02 -0.89815355772E-02  0.10304742160E+01  0.10303863604E+01 0.  0.
     999903    2    3    3    0    0  0.14736494349E-01 -0.12181677336E+00 -0.51094472729E-01  0.13999270536E+00  0.43941118275E-01 0.  0.
         14    1    1    2    0    0 -0.66621034514E-02 -0.74837504228E-02  0.89815355772E-02  0.13455784039E-01  0.00000000000E+00 0.  1.
     999901    1    3    3    0    0 -0.80743908979E-02  0.12930052378E+00  0.42112937152E-01  0.89048151060E+00  0.88000000000E+00 0.  1.
        -11    1    4    4    0    0  0.19636401514E-01 -0.90574206896E-01 -0.18372194517E-01  0.94483193594E-01  0.51100000000E-03 0. -1.
         11    1    4    4    0    0 -0.48999071643E-02 -0.31242566460E-01 -0.32722278213E-01  0.45509511771E-01  0.51100000000E-03 0.  1.
</event>
<event>
 8    1  0.2257781E+004  0.1043930E+01  0.7957747E-01            NaN
         13   -1    0    0    0    0  0.00000000000E+00  0.00000000000E+00  0.74505805969E-08  0.10566000000E+00  0.10566000000E+00 0. -1.
     999900   -1    0    0    0    0 -0.00000000000E+00 -0.00000000000E+00 -0.74505805969E-08  0.93827000000E+00  0.93827000000E+00 0.  1.
     999902    2    1    2    0    0 -0.11536888616E-01  0.46880630405E-02  0.24275754457E-02  0.10312425709E+01  0.10311645209E+01 0.  0.
     999903    2    3    3    0    0 -0.46854639275E-01  0.74105944276E-01 -0.10150122142E+00  0.14171045764E+00  0.45741749609E-01 0.  0.
         14    1    1    2    0    0  0.11536888616E-01 -0.46880630405E-02 -0.24275754457E-02  0.12687429076E-01  0.00000000000E+00 0.  1.
     999901    1    3    3    0    0  0.35317750660E-01 -0.69417881235E-01  0.10392879686E+00  0.88953211328E+00  0.88000000000E+00 0. -1.
        -11    1    4    4    0    0  0.59878648349E-02  0.21636284073E-01 -0.36544665050E-01  0.42892388350E-01  0.51100000000E-03 0.  1.
         11    1    4    4    0    0 -0.52842504110E-01  0.52469660202E-01 -0.64956556365E-01  0.98818069290E-01  0.51100000000E-03 0. -1.
</event>
<event>
 8    1  0.2257781E+004  0.1043930E+01  0.7957747E-01            NaN
         13   -1    0    0    0    0  0.00000000000E+00  0.00000000000E+00  0.74505805969E-08  0.10566000000E+00  0.10566000000E+00 0. -1.
     999900   -1    0    0    0    0 -0.00000000000E+00 -0.00000000000E+00 -0.74505805969E-08  0.93827000000E+00  0.93827000000E+00 0.  1.
     999902    2    1    2    0    0  0.59429852389E-02  0.25655123703E-02  0.10710100971E-01  0.10314157206E+01  0.10313397992E+01 0.  0.
     999903    2    3    3    0    0  0.80116316618E-01 -0.10622673942E+00 -0.13208906618E-01  0.14129800021E+00  0.45693602326E-01 0.  0.
         14    1    1    2    0    0 -0.59429852389E-02 -0.25655123703E-02 -0.10710100971E-01  0.12514279448E-01  0.00000000000E+00 0.  1.
     999901    1    3    3    0    0 -0.74173331379E-01  0.10879225179E+00  0.23919007589E-01  0.89011772034E+00  0.88000000000E+00 0. -1.
        -11    1    4    4    0    0  0.15074166071E-01 -0.43506845918E-01 -0.20990610025E-01  0.50605760094E-01  0.51100000000E-03 0. -1.
         11    1    4    4    0    0  0.65042150547E-01 -0.62719893503E-01  0.77817034072E-02  0.90692240119E-01  0.51100000000E-03 0.  1.
</event>
<event>
 8    1  0.2257781E+004  0.1043930E+01  0.7957747E-01            NaN
         13   -1    0    0    0    0  0.00000000000E+00  0.00000000000E+00  0.74505805969E-08  0.10566000000E+00  0.10566000000E+00 0.  1.
     999900   -1    0    0    0    0 -0.00000000000E+00 -0.00000000000E+00 -0.74505805969E-08  0.93827000000E+00  0.93827000000E+00 0.  1.
     999902    2    1    2    0    0 -0.19640766585E-02 -0.13631465460E-01  0.78742795146E-03  0.10301352731E+01  0.10300429051E+01 0.  0.
     999903    2    3    3    0    0 -0.63527896254E-01 -0.10816718648E+00  0.47661398581E-01  0.14169603738E+00  0.45499717160E-01 0.  0.
         14    1    1    2    0    0  0.19640766585E-02  0.13631465460E-01 -0.78742795146E-03  0.13794726909E-01  0.00000000000E+00 0.  1.
     999901    1    3    3    0    0  0.61563819595E-01  0.94535721016E-01 -0.46873970630E-01  0.88843923571E+00  0.88000000000E+00 0.  1.
        -11    1    4    4    0    0 -0.26758589932E-01 -0.76022337057E-01  0.46057778351E-01  0.92827786435E-01  0.51100000000E-03 0.  1.
         11    1    4    4    0    0 -0.36769306321E-01 -0.32144849419E-01  0.16036202308E-02  0.48868250944E-01  0.51100000000E-03 0. -1.
</event>
<event>
 8    1  0.2257781E+004  0.1043930E+01  0.7957747E-01            NaN
         13   -1    0    0    0    0  0.00000000000E+00  0.00000000000E+00  0.74505805969E-08  0.10566000000E+00  0.10566000000E+00 0. -1.
     999900   -1    0    0    0    0 -0.00000000000E+00 -0.00000000000E+00 -0.74505805969E-08  0.93827000000E+00  0.93827000000E+00 0.  1.
     999902    2    1    2    0    0  0.79315218642E-03  0.11756354634E-01  0.81443449735E-02  0.10296061974E+01  0.10295065568E+01 0.  0.
     999903    2    3    3    0    0  0.51333818926E-01 -0.40955115200E-01  0.11497236538E+00  0.14014282889E+00  0.45922600780E-01 0.  0.
         14    1    1    2    0    0 -0.79315218642E-03 -0.11756354634E-01 -0.81443449735E-02  0.14323802558E-01  0.00000000000E+00 0.  1.
     999901    1    3    3    0    0 -0.50540666739E-01  0.52711469834E-01 -0.10682802041E+00  0.88946336855E+00  0.88000000000E+00 0.  1.
        -11    1    4    4    0    0  0.12787202717E-01 -0.39489887953E-01  0.57273422408E-01  0.70735209332E-01  0.51100000000E-03 0. -1.
         11    1    4    4    0    0  0.38546616208E-01 -0.14652272464E-02  0.57698942973E-01  0.69407619561E-01  0.51100000000E-03 0.  1.
</event>
<event>
 8    1  0.2257781E+004  0.1043930E+01  0.7957747E-01            NaN
         13   -1    0    0    0    0  0.00000000000E+00  0.00000000000E+00  0.74505805969E-08  0.10566000000E+00  0.10566000000E+00 0. -1.
     999900   -1    0    0    0    0 -0.00000000000E+00 -0.00000000000E+00 -0.74505805969E-08  0.93827000000E+00  0.93827000000E+00 0.  1.
     999902    2    1    2    0    0  0.74027367573E-02  0.96996845735E-02  0.65455907219E-02  0.10300833704E+01  0.10299903014E+01 0.  0.
     999903    2    3    3    0    0  0.12909589737E+00  0.32500249090E-01 -0.12663117054E-01  0.14120876424E+00  0.45360154935E-01 0.  0.
         14    1    1    2    0    0 -0.74027367573E-02 -0.96996845735E-02 -0.65455907219E-02  0.13846629562E-01  0.00000000000E+00 0.  1.
     999901    1    3    3    0    0 -0.12169316062E+00 -0.22800564516E-01  0.19208707776E-01  0.88887460619E+00  0.88000000000E+00 0. -1.
        -11    1    4    4    0    0  0.68535923067E-01  0.14351827990E-02  0.10411783756E-01  0.69339013999E-01  0.51100000000E-03 0.  1.
         11    1    4    4    0    0  0.60559974308E-01  0.31065066291E-01 -0.23074900811E-01  0.71869750245E-01  0.51100000000E-03 0. -1.
</event>
<event>
 7    1  0.2257781E+004  0.1043930E+01  0.7957747E-01            NaN
         13   -1    0    0    0    0  0.00000000000E+00  0.00000000000E+00  0.74505805969E-08  0.10566000000E+00  0.10566000000E+00 0.  1.
     999900   -1    0    0    0    0 -0.00000000000E+00 -0.00000000000E+00 -0.74505805969E-08  0.93827000000E+00  0.93827000000E+00 0. -1.
     999903    2    1    2    0    0 -0.88027150583E-01 -0.10909461299E-01  0.14344204321E-01  0.10052833292E+00  0.45082080004E-01 0.  0.
         14    1    1    2    0    0  0.59978889609E-01 -0.17006672051E-01 -0.35912606939E-02  0.62446707249E-01  0.00000000000E+00 0. -1.
     999901    1    1    2    0    0  0.28048260974E-01  0.27916133350E-01 -0.10752943628E-01  0.88095495983E+00  0.88000000000E+00 0. -1.
        -11    1    3    3    0    0 -0.49586343763E-02 -0.15341905719E-01  0.11461135113E-03  0.16131843748E-01  0.51100000000E-03 0.  1.
         11    1    3    3    0    0 -0.83068516206E-01  0.44324444197E-02  0.14229592970E-01  0.84396489177E-01  0.51100000000E-03 0. -1.
</event>
<event>
 7    1  0.2257781E+004  0.1043930E+01  0.7957747E-01            NaN
         13   -1    0    0    0    0  0.00000000000E+00  0.00000000000E+00  0.74505805969E-08  0.10566000000E+00  0.10566000000E+00 0.  1.
     999900   -1    0    0    0    0 -0.00000000000E+00 -0.00000000000E+00 -0.74505805969E-08  0.93827000000E+00  0.93827000000E+00 0.  1.
     999903    2    1    2    0    0 -0.55831588118E-01 -0.99844184515E-01  0.39306222729E-01  0.12916652950E+00  0.45309886177E-01 0.  0.
         14    1    1    2    0    0 -0.81969039598E-02  0.20074352664E-01 -0.18645666463E-01  0.28597722763E-01  0.00000000000E+00 0. -1.
     999901    1    1    2    0    0  0.64028492077E-01  0.79769831851E-01 -0.20660556267E-01  0.88616574773E+00  0.88000000000E+00 0. -1.
        -11    1    3    3    0    0 -0.56499154783E-01 -0.60489910755E-01  0.19224168173E-01  0.84976547101E-01  0.51100000000E-03 0.  1.
         11    1    3    3    0    0  0.66756666511E-03 -0.39354273760E-01  0.20082054557E-01  0.44189982402E-01  0.51100000000E-03 0. -1.
</event>
<event>
 8    1  0.2257781E+004  0.1043930E+01  0.7957747E-01            NaN
         13   -1    0    0    0    0  0.00000000000E+00  0.00000000000E+00  0.74505805969E-08  0.10566000000E+00  0.10566000000E+00 0. -1.
     999900   -1    0    0    0    0 -0.00000000000E+00 -0.00000000000E+00 -0.74505805969E-08  0.93827000000E+00  0.93827000000E+00 0. -1.
     999902    2    1    2    0    0  0.13353559964E-01 -0.67139258284E-02 -0.76300366240E-02  0.10271487062E+01  0.10270116128E+01 0.  0.
     999903    2    3    3    0    0  0.74932448300E-02 -0.10762095692E+00 -0.73798318220E-01  0.13889490589E+00  0.46980677127E-01 0.  0.
         14    1    1    2    0    0 -0.13353559964E-01  0.67139258284E-02  0.76300366240E-02  0.16781293830E-01  0.00000000000E+00 0.  1.
     999901    1    3    3    0    0  0.58603151338E-02  0.10090703110E+00  0.66168281596E-01  0.88825380028E+00  0.88000000000E+00 0.  1.
        -11    1    4    4    0    0  0.69705160687E-02 -0.11083835544E+00 -0.63171925592E-01  0.12776808066E+00  0.51100000000E-03 0. -1.
         11    1    4    4    0    0  0.52272876132E-03  0.32173985136E-02 -0.10626392628E-01  0.11126825237E-01  0.51100000000E-03 0.  1.
</event>
<event>
 8    1  0.2257781E+004  0.1043930E+01  0.7957747E-01            NaN
         13   -1    0    0    0    0  0.00000000000E+00  0.00000000000E+00  0.74505805969E-08  0.10566000000E+00  0.10566000000E+00 0. -1.
     999900   -1    0    0    0    0 -0.00000000000E+00 -0.00000000000E+00 -0.74505805969E-08  0.93827000000E+00  0.93827000000E+00 0.  1.
     999902    2    1    2    0    0  0.75550652029E-02  0.10167131601E-01  0.23822676699E-02  0.10310410600E+01  0.10309604952E+01 0.  0.
     999903    2    3    3    0    0  0.17606113673E-01  0.30514938490E-01 -0.12911777383E+00  0.14098077117E+00  0.44306225445E-01 0.  0.
         14    1    1    2    0    0 -0.75550652029E-02 -0.10167131601E-01 -0.23822676699E-02  0.12888940006E-01  0.00000000000E+00 0.  1.
     999901    1    3    3    0    0 -0.10051048470E-01 -0.20347806889E-01  0.13150004150E+00  0.89006028882E+00  0.88000000000E+00 0. -1.
        -11    1    4    4    0    0 -0.14358907103E-01  0.61468434712E-02 -0.47432317941E-01  0.49940442570E-01  0.51100000000E-03 0.  1.
         11    1    4    4    0    0  0.31965020776E-01  0.24368095019E-01 -0.81685455886E-01  0.91040328604E-01  0.51100000000E-03 0. -1.
</event>
<event>
 8    1  0.2257781E+004  0.1043930E+01  0.7957747E-01            NaN
         13   -1    0    0    0    0  0.00000000000E+00  0.00000000000E+00  0.74505805969E-08  0.10566000000E+00  0.10566000000E+00 0. -1.
     999900   -1    0    0    0    0 -0.00000000000E+00 -0.00000000000E+00 -0.74505805969E-08  0.93827000000E+00  0.93827000000E+00 0. -1.
     999902    2    1    2    0    0 -0.11888956439E-02  0.12152298345E-01  0.83784788800E-02  0.10291215316E+01  0.10290149834E+01 0.  0.
     999903    2    3    3    0    0  0.83579710385E-01  0.40028106018E-01  0.95515800883E-01  0.14032701648E+00  0.44503775989E-01 0.  0.
         14    1    1    2    0    0  0.11888956439E-02 -0.12152298345E-01 -0.83784788800E-02  0.14808468397E-01  0.00000000000E+00 0.  1.
     999901    1    3    3    0    0 -0.84768606029E-01 -0.27875807673E-01 -0.87137322003E-01  0.88879451512E+00  0.88000000000E+00 0. -1.
        -11    1    4    4    0    0  0.39445761458E-01  0.70110555999E-02  0.15066518136E-01  0.42806355689E-01  0.51100000000E-03 0. -1.
         11    1    4    4    0    0  0.44133948927E-01  0.33017050418E-01  0.80449282747E-01  0.97520660794E-01  0.51100000000E-03 0.  1.
</event>
<event>
 8    1  0.2257781E+004  0.1043930E+01  0.7957747E-01            NaN
         13   -1    0    0    0    0  0.00000000000E+00  0.00000000000E+00  0.74505805969E-08  0.10566000000E+00  0.10566000000E+00 0.  1.
     999900   -1    0    0    0    0 -0.00000000000E+00 -0.00000000000E+00 -0.74505805969E-08  0.93827000000E+00  0.93827000000E+00 0. -1.
     999902    2    1    2    0    0 -0.34840203644E-02  0.12750912461E-01 -0.43145985674E-02  0.10300253271E+01  0.10299314708E+01 0.  0.
     999903    2    3    3    0    0  0.43403338643E-01  0.60678721356E-01  0.11016915335E+00  0.14008036887E+00  0.43812217050E-01 0.  0.
         14    1    1    2    0    0  0.34840203644E-02 -0.12750912461E-01  0.43145985674E-02  0.13904672858E-01  0.00000000000E+00 0. -1.
     999901    1    3    3    0    0 -0.46887359007E-01 -0.47927808895E-01 -0.11448375192E+00  0.88994495827E+00  0.88000000000E+00 0. -1.
        -11    1    4    4    0    0 -0.12245778357E-02  0.20696476877E-01  0.54413876944E-01  0.58232077681E-01  0.51100000000E-03 0.  1.
         11    1    4    4    0    0  0.44627916478E-01  0.39982244479E-01  0.55755276404E-01  0.81848291189E-01  0.51100000000E-03 0. -1.
</event>
<event>
 8    1  0.2257781E+004  0.1043930E+01  0.7957747E-01            NaN
         13   -1    0    0    0    0  0.00000000000E+00  0.00000000000E+00  0.74505805969E-08  0.10566000000E+00  0.10566000000E+00 0. -1.
     999900   -1    0    0    0    0 -0.00000000000E+00 -0.00000000000E+00 -0.74505805969E-08  0.93827000000E+00  0.93827000000E+00 0.  1.
     999902    2    1    2    0    0  0.31243773630E-02  0.20224009123E-02  0.12740265441E-01  0.10306572383E+01  0.10305717717E+01 0.  0.
     999903    2    3    3    0    0 -0.35715310438E-01  0.69102905249E-01  0.10967895785E+00  0.14194726003E+00  0.45483578582E-01 0.  0.
         14    1    1    2    0    0 -0.31243773630E-02 -0.20224009123E-02 -0.12740265441E-01  0.13272761689E-01  0.00000000000E+00 0.  1.
     999901    1    3    3    0    0  0.38839687801E-01 -0.67080504337E-01 -0.96938692413E-01  0.88870997828E+00  0.88000000000E+00 0.  1.
        -11    1    4    4    0    0 -0.24351394403E-01  0.13413726116E-01  0.61280950726E-01  0.67294386843E-01  0.51100000000E-03 0. -1.
         11    1    4    4    0    0 -0.11363916035E-01  0.55689179133E-01  0.48398007127E-01  0.74652873186E-01  0.51100000000E-03 0.  1.
</event>
<event>
 8    1  0.2257781E+004  0.1043930E+01  0.7957747E-01            NaN
         13   -1    0    0    0    0  0.00000000000E+00  0.00000000000E+00  0.74505805969E-08  0.10566000000E+00  0.10566000000E+00 0. -1.
     999900   -1    0    0    0    0 -0.00000000000E+00 -0.00000000000E+00 -0.74505805969E-08  0.93827000000E+00  0.93827000000E+00 0. -1.
     999902    2    1    2    0    0 -0.51192094001E-03 -0.13592178320E-01  0.18896076202E-02  0.10301975570E+01  0.10301060268E+01 0.  0.
     999903    2    3    3    0    0  0.10065291193E+00  0.34915231613E-02 -0.85870106453E-01  0.13990100881E+00  0.45336714362E-01 0.  0.
         14    1    1    2    0    0  0.51192094001E-03  0.13592178320E-01 -0.18896076202E-02  0.13732443027E-01  0.00000000000E+00 0. -1.
     999901    1    3    3    0    0 -0.10116483287E+00 -0.17083701481E-01  0.87759714073E-01  0.89029654817E+00  0.88000000000E+00 0.  1.
        -11    1    4    4    0    0  0.20570372761E-02 -0.98833425803E-02 -0.13503267962E-01  0.16867460673E-01  0.51100000000E-03 0. -1.
         11    1    4    4    0    0  0.98595874651E-01  0.13374865742E-01 -0.72366838491E-01  0.12303354813E+00  0.51100000000E-03 0.  1.
</event>
<event>
 8    1  0.2257781E+004  0.1043930E+01  0.7957747E-01            NaN
         13   -1    0    0    0    0  0.00000000000E+00  0.00000000000E+00  0.74505805969E-08  0.10566000000E+00  0.10566000000E+00 0.  1.
     999900   -1    0    0    0    0 -0.00000000000E+00 -0.00000000000E+00 -0.74505805969E-08  0.93827000000E+00  0.93827000000E+00 0. -1.
     999902    2    1    2    0    0 -0.19309224967E-02  0.12536571082E-01 -0.38616537509E-02  0.10306707977E+01  0.10305855068E+01 0.  0.
     999903    2    3    3    0    0  0.72481621762E-04  0.16800664648E-01  0.13193230901E+00  0.14024270040E+00  0.44492845150E-01 0.  0.
         14    1    1    2    0    0  0.19309224967E-02 -0.12536571082E-01  0.38616537509E-02  0.13259202309E-01  0.00000000000E+00 0.  1.
     999901    1    3    3    0    0 -0.20034041184E-02 -0.42640935658E-02 -0.13579396276E+00  0.89042809729E+00  0.88000000000E+00 0. -1.
        -11    1    4    4    0    0 -0.19065034138E-01 -0.93622862406E-03  0.35130438838E-01  0.39984508308E-01  0.51100000000E-03 0. -1.
         11    1    4    4    0    0  0.19137515759E-01  0.17736893272E-01  0.96801870170E-01  0.10025819209E+00  0.51100000000E-03 0.  1.
</event>
<event>
 8    1  0.2257781E+004  0.1043930E+01  0.7957747E-01            NaN
         13   -1    0    0    0    0  0.00000000000E+00  0.00000000000E+00  0.74505805969E-08  0.10566000000E+00  0.10566000000E+00 0. -1.
     999900   -1    0    0    0    0 -0.00000000000E+00 -0.00000000000E+00 -0.74505805969E-08  0.93827000000E+00  0.93827000000E+00 0. -1.
     999902    2    1    2    0    0 -0.12444822960E-01 -0.11855410807E-02  0.40976450228E-02  0.10307743996E+01  0.10306904449E+01 0.  0.
     999903    2    3    3    0    0  0.48865061602E-01  0.69903365161E-02 -0.12263227125E+00  0.13954703325E+00  0.44699457347E-01 0.  0.
         14    1    1    2    0    0  0.12444822960E-01  0.11855410807E-02 -0.40976450228E-02  0.13155600362E-01  0.00000000000E+00 0.  1.
     999901    1    3    3    0    0 -0.61309884562E-01 -0.81758775968E-02  0.12672991627E+00  0.89122736639E+00  0.88000000000E+00 0.  1.
        -11    1    4    4    0    0  0.23227789100E-01 -0.19011198004E-01 -0.52525337006E-01  0.60498991600E-01  0.51100000000E-03 0.  1.
         11    1    4    4    0    0  0.25637272502E-01  0.26001534520E-01 -0.70106934244E-01  0.79048041651E-01  0.51100000000E-03 0. -1.
</event>
<event>
 8    1  0.2257781E+004  0.1043930E+01  0.7957747E-01            NaN
         13   -1    0    0    0    0  0.00000000000E+00  0.00000000000E+00  0.74505805969E-08  0.10566000000E+00  0.10566000000E+00 0. -1.
     999900   -1    0    0    0    0 -0.00000000000E+00 -0.00000000000E+00 -0.74505805969E-08  0.93827000000E+00  0.93827000000E+00 0. -1.
     999902    2    1    2    0    0  0.13510586199E-01 -0.39323208124E-02 -0.12966019248E-02  0.10297991733E+01  0.10297022177E+01 0.  0.
     999903    2    3    3    0    0  0.56058862163E-01  0.76926343934E-01  0.92428622256E-01  0.14011782749E+00  0.45052158106E-01 0.  0.
         14    1    1    2    0    0 -0.13510586199E-01  0.39323208124E-02  0.12966019248E-02  0.14130826691E-01  0.00000000000E+00 0.  1.
     999901    1    3    3    0    0 -0.42548275964E-01 -0.80858664746E-01 -0.93725224181E-01  0.88968134582E+00  0.88000000000E+00 0. -1.
        -11    1    4    4    0    0  0.41083699262E-01  0.69904820371E-01  0.51723035234E-01  0.96177376503E-01  0.51100000000E-03 0. -1.
         11    1    4    4    0    0  0.14975162901E-01  0.70215235630E-02  0.40705587022E-01  0.43940450986E-01  0.51100000000E-03 0.  1.
</event>
<event>
 8    1  0.2257781E+004  0.1043930E+01  0.7957747E-01            NaN
         13   -1    0    0    0    0  0.00000000000E+00  0.00000000000E+00  0.74505805969E-08  0.10566000000E+00  0.10566000000E+00 0. -1.
     999900   -1    0    0    0    0 -0.00000000000E+00 -0.00000000000E+00 -0.74505805969E-08  0.93827000000E+00  0.93827000000E+00 0. -1.
     999902    2    1    2    0    0 -0.26881800462E-02  0.54696356706E-03 -0.13312574486E-01  0.10303377183E+01  0.10302480593E+01 0.  0.
     999903    2    3    3    0    0  0.13499932183E-01 -0.10934844508E+00 -0.76367720331E-01  0.14111614459E+00  0.44072746064E-01 0.  0.
         14    1    1    2    0    0  0.26881800462E-02 -0.54696356706E-03  0.13312574486E-01  0.13592281654E-01  0.00000000000E+00 0. -1.
     999901    1    3    3    0    0 -0.16188112230E-01  0.10989540864E+00  0.63055145845E-01  0.88922157376E+00  0.88000000000E+00 0. -1.
        -11    1    4    4    0    0 -0.53137450626E-02 -0.16071673086E-01 -0.31824996380E-01  0.36050327016E-01  0.51100000000E-03 0.  1.
         11    1    4    4    0    0  0.18813677246E-01 -0.93276771989E-01 -0.44542723951E-01  0.10506581757E+00  0.51100000000E-03 0. -1.
</event>
<event>
 8    1  0.2257781E+004  0.1043930E+01  0.7957747E-01            NaN
         13   -1    0    0    0    0  0.00000000000E+00  0.00000000000E+00  0.74505805969E-08  0.10566000000E+00  0.10566000000E+00 0. -1.
     999900   -1    0    0    0    0 -0.00000000000E+00 -0.00000000000E+00 -0.74505805969E-08  0.93827000000E+00  0.93827000000E+00 0.  1.
     999902    2    1    2    0    0  0.30409940236E-04 -0.13578375330E-01  0.17526135903E-02  0.10302389498E+01  0.10301479742E+01 0.  0.
     999903    2    3    3    0    0 -0.63349893205E-01  0.10707942865E+00 -0.40941980856E-01  0.13872439754E+00  0.45705575869E-01 0.  0.
         14    1    1    2    0    0 -0.30409940236E-04  0.13578375330E-01 -0.17526135903E-02  0.13691050206E-01  0.00000000000E+00 0. -1.
     999901    1    3    3    0    0  0.63380303145E-01 -0.12065780398E+00  0.42694594447E-01  0.89151455226E+00  0.88000000000E+00 0.  1.
        -11    1    4    4    0    0 -0.23159504148E-01  0.74869053682E-01 -0.38092405921E-01  0.87137995969E-01  0.51100000000E-03 0.  1.
         11    1    4    4    0    0 -0.40190389058E-01  0.32210374973E-01 -0.28495749352E-02  0.51586401569E-01  0.51100000000E-03 0. -1.
</event>
<event>
 8    1  0.2257781E+004  0.1043930E+01  0.7957747E-01            NaN
         13   -1    0    0    0    0  0.00000000000E+00  0.00000000000E+00  0.74505805969E-08  0.10566000000E+00  0.10566000000E+00 0.  1.
     999900   -1    0    0    0    0 -0.00000000000E+00 -0.00000000000E+00 -0.74505805969E-08  0.93827000000E+00  0.93827000000E+00 0.  1.
     999902    2    1    2    0    0  0.19174088884E-02 -0.99126958476E-02 -0.96844634188E-02  0.10299397596E+01  0.10298447366E+01 0.  0.
     999903    2    3    3    0    0  0.39910193736E-01  0.12528344775E+00 -0.12659687438E-01  0.13879987105E+00  0.42618900398E-01 0.  0.
         14    1    1    2    0    0 -0.19174088884E-02  0.99126958476E-02  0.96844634188E-02  0.13990240438E-01  0.00000000000E+00 0.  1.
     999901    1    3    3    0    0 -0.37992784847E-01 -0.13519614360E+00  0.29752240194E-02  0.89113988852E+00  0.88000000000E+00 0. -1.
        -11    1    4    4    0    0  0.10871830301E-01  0.61884649184E-01 -0.25645740192E-01  0.67866572108E-01  0.51100000000E-03 0.  1.
         11    1    4    4    0    0  0.29038363435E-01  0.63398798571E-01  0.12986052753E-01  0.70933298938E-01  0.51100000000E-03 0. -1.
</event>
<event>
 8    1  0.2257781E+004  0.1043930E+01  0.7957747E-01            NaN
         13   -1    0    0    0    0  0.00000000000E+00  0.00000000000E+00  0.74505805969E-08  0.10566000000E+00  0.10566000000E+00 0.  1.
     999900   -1    0    0    0    0 -0.00000000000E+00 -0.00000000000E+00 -0.74505805969E-08  0.93827000000E+00  0.93827000000E+00 0. -1.
     999902    2    1    2    0    0 -0.10267283909E-01  0.43398146699E-02 -0.87651842026E-02  0.10297497474E+01  0.10296521076E+01 0.  0.
     999903    2    3    3    0    0  0.11762566000E+00  0.53321580833E-01  0.20802455960E-01  0.13866610155E+00  0.46006072121E-01 0.  0.
         14    1    1    2    0    0  0.10267283909E-01 -0.43398146699E-02  0.87651842026E-02  0.14180252619E-01  0.00000000000E+00 0.  1.
     999901    1    3    3    0    0 -0.12789294391E+00 -0.48981766163E-01 -0.29567640163E-01  0.89108364583E+00  0.88000000000E+00 0.  1.
        -11    1    4    4    0    0  0.65442467611E-01  0.49869483455E-01  0.25539549105E-01  0.86152258453E-01  0.51100000000E-03 0.  1.
         11    1    4    4    0    0  0.52183192392E-01  0.34520973776E-02 -0.47370931453E-02  0.52513843099E-01  0.51100000000E-03 0. -1.
</event>
<event>
 8    1  0.2257781E+004  0.1043930E+01  0.7957747E-01            NaN
         13   -1    0    0    0    0  0.00000000000E+00  0.00000000000E+00  0.74505805969E-08  0.10566000000E+00  0.10566000000E+00 0.  1.
     999900   -1    0    0    0    0 -0.00000000000E+00 -0.00000000000E+00 -0.74505805969E-08  0.93827000000E+00  0.93827000000E+00 0.  1.
     999902    2    1    2    0    0  0.85368236645E-02  0.35515015003E-02  0.97410881056E-02  0.10304994632E+01  0.10304119391E+01 0.  0.
     999903    2    3    3    0    0  0.30538838903E-01 -0.83524266907E-01  0.99786538688E-01  0.14135692047E+00  0.45994584668E-01 0.  0.
         14    1    1    2    0    0 -0.85368236645E-02 -0.35515015003E-02 -0.97410881056E-02  0.13430536797E-01  0.00000000000E+00 0. -1.
     999901    1    3    3    0    0 -0.22002015239E-01  0.87075768407E-01 -0.90045450583E-01  0.88914254273E+00  0.88000000000E+00 0.  1.
        -11    1    4    4    0    0  0.39263550040E-01 -0.42340000123E-01  0.62838411122E-01  0.85341836197E-01  0.51100000000E-03 0.  1.
         11    1    4    4    0    0 -0.87247111371E-02 -0.41184266784E-01  0.36948127566E-01  0.56015084277E-01  0.51100000000E-03 0. -1.
</event>
<event>
 8    1  0.2257781E+004  0.1043930E+01  0.7957747E-01            NaN
         13   -1    0    0    0    0  0.00000000000E+00  0.00000000000E+00  0.74505805969E-08  0.10566000000E+00  0.10566000000E+00 0.  1.
     999900   -1    0    0    0    0 -0.00000000000E+00 -0.00000000000E+00 -0.74505805969E-08  0.93827000000E+00  0.93827000000E+00 0. -1.
     999902    2    1    2    0    0  0.13925532623E-01 -0.55383271687E-02  0.16050988272E-02  0.10288578446E+01  0.10287474396E+01 0.  0.
     999903    2    3    3    0    0  0.68727721109E-02  0.55848282871E-02  0.13148608581E+00  0.13922728261E+00  0.44913474121E-01 0.  0.
         14    1    1    2    0    0 -0.13925532623E-01  0.55383271687E-02 -0.16050988272E-02  0.15072155417E-01  0.00000000000E+00 0. -1.
     999901    1    3    3    0    0  0.70527605126E-02 -0.11123155456E-01 -0.12988098698E+00  0.88963056197E+00  0.88000000000E+00 0. -1.
        -11    1    4    4    0    0 -0.15854756385E-01 -0.65872124056E-02  0.77743737729E-01  0.79618556533E-01  0.51100000000E-03 0.  1.
         11    1    4    4    0    0  0.22727528496E-01  0.12172040693E-01  0.53742348081E-01  0.59608726076E-01  0.51100000000E-03 0. -1.
</event>
<event>
 8    1  0.2257781E+004  0.1043930E+01  0.7957747E-01            NaN
         13   -1    0    0    0    0  0.00000000000E+00  0.00000000000E+00  0.74505805969E-08  0.10566000000E+00  0.10566000000E+00 0.  1.
     999900   -1    0    0    0    0 -0.00000000000E+00 -0.00000000000E+00 -0.74505805969E-08  0.93827000000E+00  0.93827000000E+00 0.  1.
     999902    2    1    2    0    0  0.88239863471E-02  0.10966254184E-01 -0.24348765522E-02  0.10296453898E+01  0.10295462974E+01 0.  0.
     999903    2    3    3    0    0 -0.32011090192E-01  0.12387947238E+00  0.36935805885E-01  0.14061954708E+00  0.45152737371E-01 0.  0.
         14    1    1    2    0    0 -0.88239863471E-02 -0.10966254184E-01  0.24348765522E-02  0.14284610240E-01  0.00000000000E+00 0. -1.
     999901    1    3    3    0    0  0.40835076539E-01 -0.11291321820E+00 -0.39370682437E-01  0.88902584268E+00  0.88000000000E+00 0. -1.
        -11    1    4    4    0    0  0.93636016937E-03  0.77943716106E-01  0.12148798335E-01  0.78892040617E-01  0.51100000000E-03 0.  1.
         11    1    4    4    0    0 -0.32947450361E-01  0.45935756274E-01  0.24787007551E-01  0.61727506462E-01  0.51100000000E-03 0. -1.
</event>
<event>
 8    1  0.2257781E+004  0.1043930E+01  0.7957747E-01            NaN
         13   -1    0    0    0    0  0.00000000000E+00  0.00000000000E+00  0.74505805969E-08  0.10566000000E+00  0.10566000000E+00 0. -1.
     999900   -1    0    0    0    0 -0.00000000000E+00 -0.00000000000E+00 -0.74505805969E-08  0.93827000000E+00  0.93827000000E+00 0.  1.
     999902    2    1    2    0    0  0.90525414109E-02 -0.79336140669E-02  0.56977684212E-02  0.10306125189E+01  0.10305264717E+01 0.  0.
     999903    2    3    3    0    0 -0.57634658813E-01  0.65951045639E-02  0.11924394636E+00  0.14069623021E+00  0.47021922014E-01 0.  0.
         14    1    1    2    0    0 -0.90525414109E-02  0.79336140669E-02 -0.56977684212E-02  0.13317481111E-01  0.00000000000E+00 0.  1.
     999901    1    3    3    0    0  0.66687200224E-01 -0.14528718631E-01 -0.11354617794E+00  0.88991628868E+00  0.88000000000E+00 0.  1.
        -11    1    4    4    0    0 -0.38812963184E-01 -0.18624986641E-01  0.64476959478E-01  0.77529837244E-01  0.51100000000E-03 0. -1.
         11    1    4    4    0    0 -0.18821695630E-01  0.25220091205E-01  0.54766986882E-01  0.63166392963E-01  0.51100000000E-03 0.  1.
</event>
<event>
 8    1  0.2257781E+004  0.1043930E+01  0.7957747E-01            NaN
         13   -1    0    0    0    0  0.00000000000E+00  0.00000000000E+00  0.74505805969E-08  0.10566000000E+00  0.10566000000E+00 0. -1.
     999900   -1    0    0    0    0 -0.00000000000E+00 -0.00000000000E+00 -0.74505805969E-08  0.93827000000E+00  0.93827000000E+00 0.  1.
     999902    2    1    2    0    0 -0.10651234531E-01 -0.21501883752E-02  0.84801940308E-02  0.10301464664E+01  0.10300542493E+01 0.  0.
     999903    2    3    3    0    0 -0.95985712709E-01 -0.88612503350E-01  0.31400270870E-01  0.14150534932E+00  0.44411193206E-01 0.  0.
         14    1    1    2    0    0  0.10651234531E-01  0.21501883752E-02 -0.84801940308E-02  0.13783533578E-01  0.00000000000E+00 0.  1.
     999901    1    3    3    0    0  0.85334478178E-01  0.86462314975E-01 -0.22920076839E-01  0.88864111710E+00  0.88000000000E+00 0.  1.
        -11    1    4    4    0    0 -0.32524572184E-01 -0.18038738315E-01  0.27958014521E-01  0.46531232228E-01  0.51100000000E-03 0. -1.
         11    1    4    4    0    0 -0.63461140526E-01 -0.70573765036E-01  0.34422563485E-02  0.94974117095E-01  0.51100000000E-03 0.  1.
</event>
<event>
 8    1  0.2257781E+004  0.1043930E+01  0.7957747E-01            NaN
         13   -1    0    0    0    0  0.00000000000E+00  0.00000000000E+00  0.74505805969E-08  0.10566000000E+00  0.10566000000E+00 0. -1.
     999900   -1    0    0    0    0 -0.00000000000E+00 -0.00000000000E+00 -0.74505805969E-08  0.93827000000E+00  0.93827000000E+00 0. -1.
     999902    2    1    2    0    0  0.31004628197E-02 -0.81232786947E-02 -0.11003290077E-01  0.10299059878E+01  0.10298105023E+01 0.  0.
     999903    2    3    3    0    0 -0.12303801288E+00 -0.35645276219E-01  0.33392234439E-01  0.13937842616E+00  0.43616121174E-01 0.  0.
         14    1    1    2    0    0 -0.31004628197E-02  0.81232786947E-02  0.11003290077E-01  0.14024012228E-01  0.00000000000E+00 0. -1.
     999901    1    3    3    0    0  0.12613847570E+00  0.27521997524E-01 -0.44395524516E-01  0.89052756162E+00  0.88000000000E+00 0. -1.
        -11    1    4    4    0    0 -0.61658625596E-01  0.37357477180E-02  0.21951010700E-01  0.65557988935E-01  0.51100000000E-03 0.  1.
         11    1    4    4    0    0 -0.61379387286E-01 -0.39381023937E-01  0.11441223739E-01  0.73820437222E-01  0.51100000000E-03 0. -1.
</event>
<event>
 8    1  0.2257781E+004  0.1043930E+01  0.7957747E-01            NaN
         13   -1    0    0    0    0  0.00000000000E+00  0.00000000000E+00  0.74505805969E-08  0.10566000000E+00  0.10566000000E+00 0.  1.
     999900   -1    0    0    0    0 -0.00000000000E+00 -0.00000000000E+00 -0.74505805969E-08  0.93827000000E+00  0.93827000000E+00 0. -1.
     999902    2    1    2    0    0 -0.16315608754E-02 -0.99094078415E-02 -0.10657457810E-01  0.10292862381E+01  0.10291820637E+01 0.  0.
     999903    2    3    3    0    0  0.37076902022E-01  0.60681491400E-01 -0.11159919405E+00  0.13986471024E+00  0.45285947009E-01 0.  0.
         14    1    1    2    0    0  0.16315608754E-02  0.99094078415E-02  0.10657457810E-01  0.14643761867E-01  0.00000000000E+00 0.  1.
     999901    1    3    3    0    0 -0.38708462898E-01 -0.70590899241E-01  0.10094173624E+00  0.88942152789E+00  0.88000000000E+00 0.  1.
        -11    1    4    4    0    0  0.75312425677E-02 -0.70787792526E-02 -0.12402549540E-01  0.16152804290E-01  0.51100000000E-03 0.  1.
         11    1    4    4    0    0  0.29545659454E-01  0.67760270652E-01 -0.99196644512E-01  0.12371190595E+00  0.51100000000E-03 0. -1.
</event>
<event>
 8    1  0.2257781E+004  0.1043930E+01  0.7957747E-01            NaN
         13   -1    0    0    0    0  0.00000000000E+00  0.00000000000E+00  0.74505805969E-08  0.10566000000E+00  0.10566000000E+00 0.  1.
     999900   -1    0    0    0    0 -0.00000000000E+00 -0.00000000000E+00 -0.74505805969E-08  0.93827000000E+00  0.93827000000E+00 0. -1.
     999902    2    1    2    0    0  0.10306602853E-01  0.68906005194E-02 -0.58697792090E-02  0.10302128303E+01  0.10301215049E+01 0.  0.
     999903    2    3    3    0    0 -0.96586601664E-01  0.32289358638E-01 -0.84596161046E-01  0.13989317009E+00  0.45188652011E-01 0.  0.
         14    1    1    2    0    0 -0.10306602853E-01 -0.68906005194E-02  0.58697792090E-02  0.13717169746E-01  0.00000000000E+00 0.  1.
     999901    1    3    3    0    0  0.10689320452E+00 -0.25398758119E-01  0.78726381837E-01  0.89031966017E+00  0.88000000000E+00 0.  1.
        -11    1    4    4    0    0 -0.21389186182E-01  0.22591163694E-01 -0.43992409731E-01  0.53883682108E-01  0.51100000000E-03 0.  1.
         11    1    4    4    0    0 -0.75197415482E-01  0.96981949446E-02 -0.40603751315E-01  0.86009487977E-01  0.51100000000E-03 0. -1.
</event>
<event>
 8    1  0.2257781E+004  0.1043930E+01  0.7957747E-01            NaN
         13   -1    0    0    0    0  0.00000000000E+00  0.00000000000E+00  0.74505805969E-08  0.10566000000E+00  0.10566000000E+00 0. -1.
     999900   -1    0    0    0    0 -0.00000000000E+00 -0.00000000000E+00 -0.74505805969E-08  0.93827000000E+00  0.93827000000E+00 0. -1.
     999902    2    1    2    0    0  0.47774093525E-03  0.27963325992E-02  0.13009075449E-01  0.10306152054E+01  0.10305291931E+01 0.  0.
     999903    2    3    3    0    0 -0.51096388602E-01 -0.60186181441E-01 -0.10552296872E+00  0.13894456358E+00  0.44014514155E-01 0.  0.
         14    1    1    2    0    0 -0.47774093525E-03 -0.27963325992E-02 -0.13009075449E-01  0.13314794645E-01  0.00000000000E+00 0.  1.
     999901    1    3    3    0    0  0.51574129538E-01  0.62982514040E-01  0.11853204417E+00  0.89167064178E+00  0.88000000000E+00 0.  1.
        -11    1    4    4    0    0 -0.38945664445E-01 -0.66108220770E-01 -0.92313086025E-01  0.12003761329E+00  0.51100000000E-03 0. -1.
         11    1    4    4    0    0 -0.12150724157E-01  0.59220393292E-02 -0.13209882692E-01  0.18906950286E-01  0.51100000000E-03 0.  1.
</event>
<event>
 8    1  0.2257781E+004  0.1043930E+01  0.7957747E-01            NaN
         13   -1    0    0    0    0  0.00000000000E+00  0.00000000000E+00  0.74505805969E-08  0.10566000000E+00  0.10566000000E+00 0.  1.
     999900   -1    0    0    0    0 -0.00000000000E+00 -0.00000000000E+00 -0.74505805969E-08  0.93827000000E+00  0.93827000000E+00 0. -1.
     999902    2    1    2    0    0  0.11983680212E-01 -0.66813172701E-02  0.46321715052E-02  0.10294487844E+01  0.10293469260E+01 0.  0.
     999903    2    3    3    0    0 -0.11960481071E+00 -0.53918226797E-02 -0.52907038307E-01  0.13780538350E+00  0.43090445834E-01 0.  0.
         14    1    1    2    0    0 -0.11983680212E-01  0.66813172701E-02 -0.46321715052E-02  0.14481215583E-01  0.00000000000E+00 0.  1.
     999901    1    3    3    0    0  0.13158849092E+00 -0.12894945904E-02  0.57539209812E-01  0.89164340092E+00  0.88000000000E+00 0.  1.
        -11    1    4    4    0    0 -0.11740982668E+00  0.18818734890E-02 -0.42436875664E-01  0.12485895397E+00  0.51100000000E-03 0.  1.
         11    1    4    4    0    0 -0.21949840305E-02 -0.72736961687E-02 -0.10470162643E-01  0.12946429532E-01  0.51100000000E-03 0. -1.
</event>
<event>
 7    1  0.2257781E+004  0.1043930E+01  0.7957747E-01            NaN
         13   -1    0    0    0    0  0.00000000000E+00  0.00000000000E+00  0.74505805969E-08  0.10566000000E+00  0.10566000000E+00 0.  1.
     999900   -1    0    0    0    0 -0.00000000000E+00 -0.00000000000E+00 -0.74505805969E-08  0.93827000000E+00  0.93827000000E+00 0.  1.
     999903    2    1    2    0    0  0.63854398755E-01  0.99645828927E-01  0.43596464392E-02  0.12488308375E+00  0.39624520536E-01 0.  0.
         14    1    1    2    0    0 -0.21656037244E-01 -0.16884307954E-01  0.19756014369E-01  0.33828448205E-01  0.00000000000E+00 0.  1.
     999901    1    1    2    0    0 -0.42198361511E-01 -0.82761520973E-01 -0.24115660808E-01  0.88521846804E+00  0.88000000000E+00 0. -1.
        -11    1    3    3    0    0  0.13775623978E-01  0.48627317233E-01 -0.11079232527E-01  0.51743543671E-01  0.51100000000E-03 0. -1.
         11    1    3    3    0    0  0.50078774777E-01  0.51018511693E-01  0.15438878967E-01  0.73139540081E-01  0.51100000000E-03 0.  1.
</event>
<event>
 8    1  0.2257781E+004  0.1043930E+01  0.7957747E-01            NaN
         13   -1    0    0    0    0  0.00000000000E+00  0.00000000000E+00  0.74505805969E-08  0.10566000000E+00  0.10566000000E+00 0.  1.
     999900   -1    0    0    0    0 -0.00000000000E+00 -0.00000000000E+00 -0.74505805969E-08  0.93827000000E+00  0.93827000000E+00 0.  1.
     999902    2    1    2    0    0  0.34532097604E-02 -0.12435258940E-01 -0.14575166047E-02  0.10309421335E+01  0.10308603193E+01 0.  0.
     999903    2    3    3    0    0  0.68902086779E-01 -0.10252634201E+00  0.53965462559E-01  0.14219488853E+00  0.45254467262E-01 0.  0.
         14    1    1    2    0    0 -0.34532097604E-02  0.12435258940E-01  0.14575166047E-02  0.12987866538E-01  0.00000000000E+00 0.  1.
     999901    1    3    3    0    0 -0.65448877018E-01  0.90091083069E-01 -0.55422979163E-01  0.88874724493E+00  0.88000000000E+00 0.  1.
        -11    1    4    4    0    0  0.24188640651E-01 -0.11511509902E-01  0.25213786383E-01  0.36791321552E-01  0.51100000000E-03 0.  1.
         11    1    4    4    0    0  0.44713446128E-01 -0.91014832107E-01  0.28751676175E-01  0.10540356698E+00  0.51100000000E-03 0. -1.
</event>
<event>
 8    1  0.2257781E+004  0.1043930E+01  0.7957747E-01            NaN
         13   -1    0    0    0    0  0.00000000000E+00  0.00000000000E+00  0.74505805969E-08  0.10566000000E+00  0.10566000000E+00 0.  1.
     999900   -1    0    0    0    0 -0.00000000000E+00 -0.00000000000E+00 -0.74505805969E-08  0.93827000000E+00  0.93827000000E+00 0. -1.
     999902    2    1    2    0    0 -0.44556018255E-02  0.52907138689E-02  0.11541586422E-01  0.10304744339E+01  0.10303865812E+01 0.  0.
     999903    2    3    3    0    0 -0.19447996005E-01 -0.13047752412E+00 -0.13606592657E-01  0.13958150140E+00  0.43534438335E-01 0.  0.
         14    1    1    2    0    0  0.44556018255E-02 -0.52907138689E-02 -0.11541586422E-01  0.13455566061E-01  0.00000000000E+00 0. -1.
     999901    1    3    3    0    0  0.14992394179E-01  0.13576823799E+00  0.25148179079E-01  0.89089293254E+00  0.88000000000E+00 0.  1.
        -11    1    4    4    0    0  0.16344710654E-02 -0.10752025953E+00 -0.13739101963E-01  0.10840803360E+00  0.51100000000E-03 0.  1.
         11    1    4    4    0    0 -0.21082467070E-01 -0.22957264590E-01  0.13250930595E-03  0.31173467804E-01  0.51100000000E-03 0. -1.
</event>
<event>
 8    1  0.2257781E+004  0.1043930E+01  0.7957747E-01            NaN
         13   -1    0    0    0    0  0.00000000000E+00  0.00000000000E+00  0.74505805969E-08  0.10566000000E+00  0.10566000000E+00 0.  1.
     999900   -1    0    0    0    0 -0.00000000000E+00 -0.00000000000E+00 -0.74505805969E-08  0.93827000000E+00  0.93827000000E+00 0.  1.
     999902    2    1    2    0    0 -0.75169333621E-02 -0.11423270782E-01  0.34561768092E-03  0.10302510068E+01  0.10301601925E+01 0.  0.
     999903    2    3    3    0    0  0.76682755162E-01 -0.10868652831E+00  0.84655782227E-02  0.14086039379E+00  0.45573875729E-01 0.  0.
         14    1    1    2    0    0  0.75169333621E-02  0.11423270782E-01 -0.34561768092E-03  0.13678993169E-01  0.00000000000E+00 0.  1.
     999901    1    3    3    0    0 -0.84199688524E-01  0.97263257524E-01 -0.81199605418E-02  0.88939061304E+00  0.88000000000E+00 0. -1.
        -11    1    4    4    0    0  0.71714442887E-01 -0.69760086726E-01  0.14700432435E-01  0.10112267230E+00  0.51100000000E-03 0.  1.
         11    1    4    4    0    0  0.49683122755E-02 -0.38926441579E-01 -0.62348542118E-02  0.39737721486E-01  0.51100000000E-03 0. -1.
</event>
<event>
 8    1  0.2257781E+004  0.1043930E+01  0.7957747E-01            NaN
         13   -1    0    0    0    0  0.00000000000E+00  0.00000000000E+00  0.74505805969E-08  0.10566000000E+00  0.10566000000E+00 0. -1.
     999900   -1    0    0    0    0 -0.00000000000E+00 -0.00000000000E+00 -0.74505805969E-08  0.93827000000E+00  0.93827000000E+00 0. -1.
     999902    2    1    2    0    0  0.11851926285E-01  0.93308294459E-02 -0.98731014177E-02  0.10259019478E+01  0.10257435332E+01 0.  0.
     999903    2    3    3    0    0  0.63355180514E-01  0.54751646432E-01 -0.10091057359E+00  0.13854437773E+00  0.44721125342E-01 0.  0.
         14    1    1    2    0    0 -0.11851926285E-01 -0.93308294459E-02  0.98731014177E-02  0.18028052208E-01  0.00000000000E+00 0.  1.
     999901    1    3    3    0    0 -0.51503254230E-01 -0.45420816986E-01  0.91037472175E-01  0.88735757007E+00  0.88000000000E+00 0.  1.
        -11    1    4    4    0    0  0.60312757363E-01  0.62078274456E-01 -0.95720783245E-01  0.12905065024E+00  0.51100000000E-03 0.  1.
         11    1    4    4    0    0  0.30424231509E-02 -0.73266280236E-02 -0.51897903477E-02  0.94937274912E-02  0.51100000000E-03 0. -1.
</event>
<event>
 8    1  0.2257781E+004  0.1043930E+01  0.7957747E-01            NaN
         13   -1    0    0    0    0  0.00000000000E+00  0.00000000000E+00  0.74505805969E-08  0.10566000000E+00  0.10566000000E+00 0. -1.
     999900   -1    0    0    0    0 -0.00000000000E+00 -0.00000000000E+00 -0.74505805969E-08  0.93827000000E+00  0.93827000000E+00 0. -1.
     999902    2    1    2    0    0 -0.12825974745E-01 -0.42680733452E-02  0.13308565591E-02  0.10303471705E+01  0.10302576369E+01 0.  0.
     999903    2    3    3    0    0  0.72927528056E-02 -0.12597456992E+00  0.43108826617E-01  0.14076151790E+00  0.45085002825E-01 0.  0.
         14    1    1    2    0    0  0.12825974745E-01  0.42680733452E-02 -0.13308565591E-02  0.13582829507E-01  0.00000000000E+00 0.  1.
     999901    1    3    3    0    0 -0.20118727551E-01  0.12170649658E+00 -0.41777970058E-01  0.88958565259E+00  0.88000000000E+00 0.  1.
        -11    1    4    4    0    0  0.10875071849E-01 -0.32304347178E-01  0.31301963918E-01  0.46280796238E-01  0.51100000000E-03 0.  1.
         11    1    4    4    0    0 -0.35823190432E-02 -0.93670222746E-01  0.11806862700E-01  0.94480721667E-01  0.51100000000E-03 0. -1.
</event>
<event>
 8    1  0.2257781E+004  0.1043930E+01  0.7957747E-01            NaN
         13   -1    0    0    0    0  0.00000000000E+00  0.00000000000E+00  0.74505805969E-08  0.10566000000E+00  0.10566000000E+00 0.  1.
     999900   -1    0    0    0    0 -0.00000000000E+00 -0.00000000000E+00 -0.74505805969E-08  0.93827000000E+00  0.93827000000E+00 0.  1.
     999902    2    1    2    0    0 -0.67885129021E-02 -0.90058138014E-02 -0.79713075513E-02  0.10301194847E+01  0.10300269037E+01 0.  0.
     999903    2    3    3    0    0 -0.13084903462E+00  0.24804473304E-01  0.27437219691E-02  0.14071015235E+00  0.45333069677E-01 0.  0.
         14    1    1    2    0    0  0.67885129021E-02  0.90058138014E-02  0.79713075513E-02  0.13810515332E-01  0.00000000000E+00 0.  1.
     999901    1    3    3    0    0  0.12406052172E+00 -0.33810287105E-01 -0.10715029520E-01  0.88940933232E+00  0.88000000000E+00 0.  1.
        -11    1    4    4    0    0 -0.63319299860E-01  0.18216621341E-01 -0.20471160024E-01  0.68996438615E-01  0.51100000000E-03 0. -1.
         11    1    4    4    0    0 -0.67529734760E-01  0.65878519629E-02  0.23214881993E-01  0.71713713731E-01  0.51100000000E-03 0.  1.
</event>
<event>
 8    1  0.2257781E+004  0.1043930E+01  0.7957747E-01            NaN
         13   -1    0    0    0    0  0.00000000000E+00  0.00000000000E+00  0.74505805969E-08  0.10566000000E+00  0.10566000000E+00 0.  1.
     999900   -1    0    0    0    0 -0.00000000000E+00 -0.00000000000E+00 -0.74505805969E-08  0.93827000000E+00  0.93827000000E+00 0.  1.
     999902    2    1    2    0    0  0.11270470213E-01 -0.41681286416E-02  0.52581742912E-02  0.10308134001E+01  0.10307299456E+01 0.  0.
     999903    2    3    3    0    0 -0.12770055129E+00  0.29513494719E-01 -0.69564264987E-02  0.13918758566E+00  0.46328338648E-01 0.  0.
         14    1    1    2    0    0 -0.11270470213E-01  0.41681286416E-02 -0.52581742912E-02  0.13116599867E-01  0.00000000000E+00 0. -1.
     999901    1    3    3    0    0  0.13897102150E+00 -0.33681623361E-01  0.12214600790E-01  0.89162581448E+00  0.88000000000E+00 0.  1.
        -11    1    4    4    0    0 -0.59981697469E-01 -0.22711619897E-02 -0.19957022552E-01  0.63257458677E-01  0.51100000000E-03 0.  1.
         11    1    4    4    0    0 -0.67718853817E-01  0.31784656709E-01  0.13000596054E-01  0.75930126980E-01  0.51100000000E-03 0. -1.
</event>
<event>
 8    1  0.2257781E+004  0.1043930E+01  0.7957747E-01            NaN
         13   -1    0    0    0    0  0.00000000000E+00  0.00000000000E+00  0.74505805969E-08  0.10566000000E+00  0.10566000000E+00 0. -1.
     999900   -1    0    0    0    0 -0.00000000000E+00 -0.00000000000E+00 -0.74505805969E-08  0.93827000000E+00  0.93827000000E+00 0.  1.
     999902    2    1    2    0    0 -0.93991910899E-02 -0.24773320747E-02  0.92554054304E-02  0.10305082081E+01  0.10304207988E+01 0.  0.
     999903    2    3    3    0    0  0.61246839456E-01 -0.23423732459E-01  0.11600433028E+00  0.14099994719E+00  0.46088326917E-01 0.  0.
         14    1    1    2    0    0  0.93991910899E-02  0.24773320747E-02 -0.92554054304E-02  0.13421791871E-01  0.00000000000E+00 0.  1.
     999901    1    3    3    0    0 -0.70646030546E-01  0.20946400384E-01 -0.10674892485E+00  0.88950826094E+00  0.88000000000E+00 0.  1.
        -11    1    4    4    0    0  0.50895147370E-01  0.34236389949E-02  0.67620956256E-01  0.84704735262E-01  0.51100000000E-03 0.  1.
         11    1    4    4    0    0  0.10351692086E-01 -0.26847371454E-01  0.48383374025E-01  0.56295211929E-01  0.51100000000E-03 0. -1.
</event>
<event>
 8    1  0.2257781E+004  0.1043930E+01  0.7957747E-01            NaN
         13   -1    0    0    0    0  0.00000000000E+00  0.00000000000E+00  0.74505805969E-08  0.10566000000E+00  0.10566000000E+00 0. -1.
     999900   -1    0    0    0    0 -0.00000000000E+00 -0.00000000000E+00 -0.74505805969E-08  0.93827000000E+00  0.93827000000E+00 0. -1.
     999902    2    1    2    0    0  0.10367332352E-01 -0.85181468926E-02  0.24183297908E-02  0.10302958984E+01  0.10302056832E+01 0.  0.
     999903    2    3    3    0    0 -0.24416410537E-01  0.11416661882E+00  0.61165202690E-01  0.13916591039E+00  0.44674272681E-01 0.  0.
         14    1    1    2    0    0 -0.10367332352E-01  0.85181468926E-02 -0.24183297908E-02  0.13634101567E-01  0.00000000000E+00 0. -1.
     999901    1    3    3    0    0  0.34783742889E-01 -0.12268476571E+00 -0.58746872899E-01  0.89112998804E+00  0.88000000000E+00 0. -1.
        -11    1    4    4    0    0 -0.32829468321E-01  0.11030311380E+00  0.60097823110E-01  0.12983281699E+00  0.51100000000E-03 0.  1.
         11    1    4    4    0    0  0.84130577836E-02  0.38635050189E-02  0.10673795799E-02  0.93330934030E-02  0.51100000000E-03 0. -1.
</event>
<event>
 8    1  0.2257781E+004  0.1043930E+01  0.7957747E-01            NaN
         13   -1    0    0    0    0  0.00000000000E+00  0.00000000000E+00  0.74505805969E-08  0.10566000000E+00  0.10566000000E+00 0.  1.
     999900   -1    0    0    0    0 -0.00000000000E+00 -0.00000000000E+00 -0.74505805969E-08  0.93827000000E+00  0.93827000000E+00 0.  1.
     999902    2    1    2    0    0 -0.44671996779E-03 -0.41369121633E-03  0.17843643244E-01  0.10260759723E+01  0.10259206279E+01 0.  0.
     999903    2    3    3    0    0  0.12433240711E+00  0.34096034562E-01  0.42957875149E-02  0.13650062640E+00  0.44641686651E-01 0.  0.
         14    1    1    2    0    0  0.44671996779E-03  0.41369121633E-03 -0.17843643244E-01  0.17854027651E-01  0.00000000000E+00 0. -1.
     999901    1    3    3    0    0 -0.12477912708E+00 -0.34509725778E-01  0.13547855729E-01  0.88957534595E+00  0.88000000000E+00 0.  1.
        -11    1    4    4    0    0  0.53810966067E-01  0.31908124013E-01  0.16950248989E-01  0.64817594131E-01  0.51100000000E-03 0.  1.
         11    1    4    4    0    0  0.70521441040E-01  0.21879105486E-02 -0.12654461474E-01  0.71683032268E-01  0.51100000000E-03 0. -1.
</event>
<event>
 8    1  0.2257781E+004  0.1043930E+01  0.7957747E-01            NaN
         13   -1    0    0    0    0  0.00000000000E+00  0.00000000000E+00  0.74505805969E-08  0.10566000000E+00  0.10566000000E+00 0.  1.
     999900   -1    0    0    0    0 -0.00000000000E+00 -0.00000000000E+00 -0.74505805969E-08  0.93827000000E+00  0.93827000000E+00 0.  1.
     999902    2    1    2    0    0  0.19797755271E-02 -0.36057484723E-02  0.13784268947E-01  0.10295450425E+01  0.10294445432E+01 0.  0.
     999903    2    3    3    0    0  0.83727118721E-01  0.59255037020E-01  0.85091690427E-01  0.14065874217E+00  0.44976617792E-01 0.  0.
         14    1    1    2    0    0 -0.19797755271E-02  0.36057484723E-02 -0.13784268947E-01  0.14384957546E-01  0.00000000000E+00 0. -1.
     999901    1    3    3    0    0 -0.81747343194E-01 -0.62860785492E-01 -0.71307421479E-01  0.88888630028E+00  0.88000000000E+00 0.  1.
        -11    1    4    4    0    0  0.29527354554E-01  0.46646483663E-01  0.32358177300E-01  0.63992748529E-01  0.51100000000E-03 0.  1.
         11    1    4    4    0    0  0.54199764167E-01  0.12608553356E-01  0.52733513127E-01  0.76665993643E-01  0.51100000000E-03 0. -1.
</event>
<event>
 8    1  0.2257781E+004  0.1043930E+01  0.7957747E-01            NaN
         13   -1    0    0    0    0  0.00000000000E+00  0.00000000000E+00  0.74505805969E-08  0.10566000000E+00  0.10566000000E+00 0.  1.
     999900   -1    0    0    0    0 -0.00000000000E+00 -0.00000000000E+00 -0.74505805969E-08  0.93827000000E+00  0.93827000000E+00 0.  1.
     999902    2    1    2    0    0 -0.38488212931E-02 -0.11352717383E-01  0.52338567516E-02  0.10308498290E+01  0.10307668403E+01 0.  0.
     999903    2    3    3    0    0  0.25741605842E-01 -0.12624819763E+00 -0.38535704044E-01  0.14180970660E+00  0.44986161454E-01 0.  0.
         14    1    1    2    0    0  0.38488212931E-02  0.11352717383E-01 -0.52338567516E-02  0.13080171017E-01  0.00000000000E+00 0.  1.
     999901    1    3    3    0    0 -0.29590427135E-01  0.11489548025E+00  0.43769560796E-01  0.88904012239E+00  0.88000000000E+00 0. -1.
        -11    1    4    4    0    0  0.33384857249E-01 -0.10432917812E+00 -0.43846394448E-01  0.11799107393E+00  0.51100000000E-03 0.  1.
         11    1    4    4    0    0 -0.76432514069E-02 -0.21919019511E-01  0.53106904037E-02  0.23818632664E-01  0.51100000000E-03 0. -1.
</event>
<event>
 8    1  0.2257781E+004  0.1043930E+01  0.7957747E-01            NaN
         13   -1    0    0    0    0  0.00000000000E+00  0.00000000000E+00  0.74505805969E-08  0.10566000000E+00  0.10566000000E+00 0.  1.
     999900   -1    0    0    0    0 -0.00000000000E+00 -0.00000000000E+00 -0.74505805969E-08  0.93827000000E+00  0.93827000000E+00 0.  1.
     999902    2    1    2    0    0  0.20487160709E-03 -0.58608683888E-02 -0.12657778276E-01  0.10299796917E+01  0.10298852141E+01 0.  0.
     999903    2    3    3    0    0 -0.37802551403E-01 -0.11851058488E+00 -0.49349673866E-01  0.14122729760E+00  0.45121698257E-01 0.  0.
         14    1    1    2    0    0 -0.20487160709E-03  0.58608683888E-02  0.12657778276E-01  0.13950308296E-01  0.00000000000E+00 0.  1.
     999901    1    3    3    0    0  0.38007423010E-01  0.11264971650E+00  0.36691895589E-01  0.88875239411E+00  0.88000000000E+00 0. -1.
        -11    1    4    4    0    0  0.67899648478E-02 -0.48328685541E-01 -0.23359612523E-01  0.54108207205E-01  0.51100000000E-03 0. -1.
         11    1    4    4    0    0 -0.44592516250E-01 -0.70181899343E-01 -0.25990061343E-01  0.87119090391E-01  0.51100000000E-03 0.  1.
</event>
<event>
 8    1  0.2257781E+004  0.1043930E+01  0.7957747E-01            NaN
         13   -1    0    0    0    0  0.00000000000E+00  0.00000000000E+00  0.74505805969E-08  0.10566000000E+00  0.10566000000E+00 0. -1.
     999900   -1    0    0    0    0 -0.00000000000E+00 -0.00000000000E+00 -0.74505805969E-08  0.93827000000E+00  0.93827000000E+00 0. -1.
     999902    2    1    2    0    0 -0.10701493624E-01  0.90488022148E-02 -0.48128022719E-03  0.10299073605E+01  0.10298118939E+01 0.  0.
     999903    2    3    3    0    0 -0.50128847466E-03 -0.72324015435E-01  0.10965996429E+00  0.13925778107E+00  0.46221286441E-01 0.  0.
         14    1    1    2    0    0  0.10701493624E-01 -0.90488022148E-02  0.48128022719E-03  0.14022639479E-01  0.00000000000E+00 0. -1.
     999901    1    3    3    0    0 -0.10200205149E-01  0.81372817650E-01 -0.11014124452E+00  0.89064957945E+00  0.88000000000E+00 0. -1.
        -11    1    4    4    0    0 -0.30290217918E-02  0.61093021670E-02  0.51305516585E-02  0.85488143799E-02  0.51100000000E-03 0. -1.
         11    1    4    4    0    0  0.25277333172E-02 -0.78433317602E-01  0.10452941263E+00  0.13070896669E+00  0.51100000000E-03 0.  1.
</event>
<event>
 8    1  0.2257781E+004  0.1043930E+01  0.7957747E-01            NaN
         13   -1    0    0    0    0  0.00000000000E+00  0.00000000000E+00  0.74505805969E-08  0.10566000000E+00  0.10566000000E+00 0.  1.
     999900   -1    0    0    0    0 -0.00000000000E+00 -0.00000000000E+00 -0.74505805969E-08  0.93827000000E+00  0.93827000000E+00 0.  1.
     999902    2    1    2    0    0 -0.16984143950E-02  0.57675722916E-02 -0.88742547135E-02  0.10332107697E+01  0.10331551639E+01 0.  0.
     999903    2    3    3    0    0  0.11954294893E+00 -0.62210287295E-01  0.47532573662E-02  0.14219664710E+00  0.45129330895E-01 0.  0.
         14    1    1    2    0    0  0.16984143950E-02 -0.57675722916E-02  0.88742547135E-02  0.10719230304E-01  0.00000000000E+00 0.  1.
     999901    1    3    3    0    0 -0.12124136333E+00  0.67977859586E-01 -0.13627512080E-01  0.89101412259E+00  0.88000000000E+00 0. -1.
        -11    1    4    4    0    0  0.41810526926E-01 -0.43018901703E-01  0.13978800638E-01  0.61598815361E-01  0.51100000000E-03 0. -1.
         11    1    4    4    0    0  0.77732422005E-01 -0.19191385591E-01 -0.92255432721E-02  0.80597831741E-01  0.51100000000E-03 0.  1.
</event>
<event>
 8    1  0.2257781E+004  0.1043930E+01  0.7957747E-01            NaN
         13   -1    0    0    0    0  0.00000000000E+00  0.00000000000E+00  0.74505805969E-08  0.10566000000E+00  0.10566000000E+00 0.  1.
     999900   -1    0    0    0    0 -0.00000000000E+00 -0.00000000000E+00 -0.74505805969E-08  0.93827000000E+00  0.93827000000E+00 0.  1.
     999902    2    1    2    0    0  0.75368663589E-02 -0.11149581570E-01 -0.81614419418E-03  0.10304472846E+01  0.10303590746E+01 0.  0.
     999903    2    3    3    0    0  0.65204492260E-01  0.11351947383E+00 -0.17519772604E-01  0.13963476803E+00  0.45305951700E-01 0.  0.
         14    1    1    2    0    0 -0.75368663589E-02  0.11149581570E-01  0.81614419418E-03  0.13482715418E-01  0.00000000000E+00 0.  1.
     999901    1    3    3    0    0 -0.57667625901E-01 -0.12466905540E+00  0.16703628410E-01  0.89081251656E+00  0.88000000000E+00 0.  1.
        -11    1    4    4    0    0  0.36550543829E-01  0.39209497046E-01  0.11576523232E-01  0.54841625833E-01  0.51100000000E-03 0. -1.
         11    1    4    4    0    0  0.28653948431E-01  0.74309976785E-01 -0.29096295836E-01  0.84793142192E-01  0.51100000000E-03 0.  1.
</event>
<event>
 8    1  0.2257781E+004  0.1043930E+01  0.7957747E-01            NaN
         13   -1    0    0    0    0  0.00000000000E+00  0.00000000000E+00  0.74505805969E-08  0.10566000000E+00  0.10566000000E+00 0. -1.
     999900   -1    0    0    0    0 -0.00000000000E+00 -0.00000000000E+00 -0.74505805969E-08  0.93827000000E+00  0.93827000000E+00 0. -1.
     999902    2    1    2    0    0 -0.45399517074E-02  0.92807531989E-02  0.98365181803E-02  0.10296646353E+01  0.10295658116E+01 0.  0.
     999903    2    3    3    0    0  0.74213650751E-01 -0.38296727410E-01  0.10271160827E+00  0.14000653861E+00  0.45583451946E-01 0.  0.
         14    1    1    2    0    0  0.45399517074E-02 -0.92807531989E-02 -0.98365181803E-02  0.14265364747E-01  0.00000000000E+00 0.  1.
     999901    1    3    3    0    0 -0.78753602459E-01  0.47577480609E-01 -0.92875090094E-01  0.88965809664E+00  0.88000000000E+00 0.  1.
        -11    1    4    4    0    0  0.62665967890E-01 -0.29154657631E-01  0.50088774613E-01  0.85359030316E-01  0.51100000000E-03 0.  1.
         11    1    4    4    0    0  0.11547682861E-01 -0.91420697784E-02  0.52622833662E-01  0.54647508295E-01  0.51100000000E-03 0. -1.
</event>
<event>
 8    1  0.2257781E+004  0.1043930E+01  0.7957747E-01            NaN
         13   -1    0    0    0    0  0.00000000000E+00  0.00000000000E+00  0.74505805969E-08  0.10566000000E+00  0.10566000000E+00 0.  1.
     999900   -1    0    0    0    0 -0.00000000000E+00 -0.00000000000E+00 -0.74505805969E-08  0.93827000000E+00  0.93827000000E+00 0. -1.
     999902    2    1    2    0    0  0.88939375309E-03 -0.71703606398E-02  0.11768187350E-01  0.10301207521E+01  0.10300281883E+01 0.  0.
     999903    2    3    3    0    0 -0.86002453743E-01  0.98343210664E-01 -0.13334034102E-01  0.13921479279E+00  0.46207715065E-01 0.  0.
         14    1    1    2    0    0 -0.88939375309E-03  0.71703606398E-02 -0.11768187350E-01  0.13809247860E-01  0.00000000000E+00 0. -1.
     999901    1    3    3    0    0  0.86891847496E-01 -0.10551357130E+00  0.25102221452E-01  0.89090595935E+00  0.88000000000E+00 0.  1.
        -11    1    4    4    0    0 -0.29606518412E-01  0.65565306145E-01 -0.16849556180E-01  0.73888591588E-01  0.51100000000E-03 0. -1.
         11    1    4    4    0    0 -0.56395935331E-01  0.32777904518E-01  0.35155220780E-02  0.65326201198E-01  0.51100000000E-03 0.  1.
</event>
<event>
 8    1  0.2257781E+004  0.1043930E+01  0.7957747E-01            NaN
         13   -1    0    0    0    0  0.00000000000E+00  0.00000000000E+00  0.74505805969E-08  0.10566000000E+00  0.10566000000E+00 0. -1.
     999900   -1    0    0    0    0 -0.00000000000E+00 -0.00000000000E+00 -0.74505805969E-08  0.93827000000E+00  0.93827000000E+00 0. -1.
     999902    2    1    2    0    0  0.11415741709E-01  0.42004009213E-02 -0.49429601880E-02  0.10308000578E+01  0.10307164323E+01 0.  0.
     999903    2    3    3    0    0 -0.10603728753E+00 -0.12769466809E-01  0.79761666448E-01  0.13880338502E+00  0.38697424038E-01 0.  0.
         14    1    1    2    0    0 -0.11415741709E-01 -0.42004009213E-02  0.49429601880E-02  0.13129942196E-01  0.00000000000E+00 0.  1.
     999901    1    3    3    0    0  0.11745302924E+00  0.16969867731E-01 -0.84704626636E-01  0.89199667279E+00  0.88000000000E+00 0. -1.
        -11    1    4    4    0    0 -0.63058469254E-01 -0.19669650259E-01  0.29598561967E-01  0.72385092923E-01  0.51100000000E-03 0.  1.
         11    1    4    4    0    0 -0.42978818281E-01  0.69001834497E-02  0.50163104481E-01  0.66418292094E-01  0.51100000000E-03 0. -1.
</event>
<event>
 8    1  0.2257781E+004  0.1043930E+01  0.7957747E-01            NaN
         13   -1    0    0    0    0  0.00000000000E+00  0.00000000000E+00  0.74505805969E-08  0.10566000000E+00  0.10566000000E+00 0.  1.
     999900   -1    0    0    0    0 -0.00000000000E+00 -0.00000000000E+00 -0.74505805969E-08  0.93827000000E+00  0.93827000000E+00 0.  1.
     999902    2    1    2    0    0  0.14450183598E-01 -0.54012803610E-03  0.49723071927E-02  0.10286387155E+01  0.10285250525E+01 0.  0.
     999903    2    3    3    0    0 -0.10640157856E+00  0.42251684483E-01  0.67161267487E-01  0.13717713220E+00  0.34647207486E-01 0.  0.
         14    1    1    2    0    0 -0.14450183598E-01  0.54012803610E-03 -0.49723071927E-02  0.15291284548E-01  0.00000000000E+00 0. -1.
     999901    1    3    3    0    0  0.12085176216E+00 -0.42791812519E-01 -0.62188960294E-01  0.89146158325E+00  0.88000000000E+00 0.  1.
        -11    1    4    4    0    0 -0.50186896340E-01  0.99939032748E-02  0.13224938006E-01  0.52856057109E-01  0.51100000000E-03 0. -1.
         11    1    4    4    0    0 -0.56214682218E-01  0.32257781208E-01  0.53936329481E-01  0.84321075089E-01  0.51100000000E-03 0.  1.
</event>
<event>
 8    1  0.2257781E+004  0.1043930E+01  0.7957747E-01            NaN
         13   -1    0    0    0    0  0.00000000000E+00  0.00000000000E+00  0.74505805969E-08  0.10566000000E+00  0.10566000000E+00 0.  1.
     999900   -1    0    0    0    0 -0.00000000000E+00 -0.00000000000E+00 -0.74505805969E-08  0.93827000000E+00  0.93827000000E+00 0. -1.
     999902    2    1    2    0    0 -0.84562067573E-02 -0.47503214810E-02  0.99898672804E-02  0.10300062636E+01  0.10299121480E+01 0.  0.
     999903    2    3    3    0    0  0.64533457105E-02 -0.12256447724E+00  0.53073811247E-01  0.14098506235E+00  0.44679543570E-01 0.  0.
         14    1    1    2    0    0  0.84562067573E-02  0.47503214810E-02 -0.99898672804E-02  0.13923736394E-01  0.00000000000E+00 0. -1.
     999901    1    3    3    0    0 -0.14909552468E-01  0.11781415576E+00 -0.43083943967E-01  0.88902120125E+00  0.88000000000E+00 0.  1.
        -11    1    4    4    0    0  0.34255985426E-02 -0.80538709778E-01  0.56903431638E-01  0.98673604126E-01  0.51100000000E-03 0. -1.
         11    1    4    4    0    0  0.30277471680E-02 -0.42025767464E-01 -0.38296203908E-02  0.42311458225E-01  0.51100000000E-03 0.  1.
</event>
<event>
 8    1  0.2257781E+004  0.1043930E+01  0.7957747E-01            NaN
         13   -1    0    0    0    0  0.00000000000E+00  0.00000000000E+00  0.74505805969E-08  0.10566000000E+00  0.10566000000E+00 0.  1.
     999900   -1    0    0    0    0 -0.00000000000E+00 -0.00000000000E+00 -0.74505805969E-08  0.93827000000E+00  0.93827000000E+00 0.  1.
     999902    2    1    2    0    0 -0.76938423141E-03 -0.20923165914E-02 -0.25271684560E-02  0.10405600859E+01  0.10405546290E+01 0.  0.
     999903    2    3    3    0    0 -0.79573470702E-01 -0.81846037837E-01 -0.86694710038E-01  0.14946249573E+00  0.42336198852E-01 0.  0.
         14    1    1    2    0    0  0.76938423141E-03  0.20923165914E-02  0.25271684560E-02  0.33699141263E-02  0.00000000000E+00 0.  1.
     999901    1    3    3    0    0  0.78804086471E-01  0.79753721245E-01  0.84167541582E-01  0.89109759014E+00  0.88000000000E+00 0. -1.
        -11    1    4    4    0    0 -0.20371820865E-01 -0.13452671802E-01 -0.41958046455E-01  0.48546104347E-01  0.51100000000E-03 0.  1.
         11    1    4    4    0    0 -0.59201649837E-01 -0.68393366035E-01 -0.44736663583E-01  0.10091639139E+00  0.51100000000E-03 0. -1.
</event>
<event>
 8    1  0.2257781E+004  0.1043930E+01  0.7957747E-01            NaN
         13   -1    0    0    0    0  0.00000000000E+00  0.00000000000E+00  0.74505805969E-08  0.10566000000E+00  0.10566000000E+00 0. -1.
     999900   -1    0    0    0    0 -0.00000000000E+00 -0.00000000000E+00 -0.74505805969E-08  0.93827000000E+00  0.93827000000E+00 0.  1.
     999902    2    1    2    0    0  0.11249585132E-01 -0.58731530482E-02  0.28880108107E-02  0.10309150970E+01  0.10308329397E+01 0.  0.
     999903    2    3    3    0    0 -0.70573737635E-01  0.48605721481E-01  0.10159194501E+00  0.13995748271E+00  0.43863482202E-01 0.  0.
         14    1    1    2    0    0 -0.11249585132E-01  0.58731530482E-02 -0.28880108107E-02  0.13014902950E-01  0.00000000000E+00 0. -1.
     999901    1    3    3    0    0  0.81823322767E-01 -0.54478874529E-01 -0.98703934204E-01  0.89095761434E+00  0.88000000000E+00 0.  1.
        -11    1    4    4    0    0 -0.37342538774E-01  0.38996459470E-02  0.58567070702E-01  0.69570362456E-01  0.51100000000E-03 0.  1.
         11    1    4    4    0    0 -0.33231198861E-01  0.44706075534E-01  0.43024874312E-01  0.70387120256E-01  0.51100000000E-03 0. -1.
</event>
<event>
 8    1  0.2257781E+004  0.1043930E+01  0.7957747E-01            NaN
         13   -1    0    0    0    0  0.00000000000E+00  0.00000000000E+00  0.74505805969E-08  0.10566000000E+00  0.10566000000E+00 0. -1.
     999900   -1    0    0    0    0 -0.00000000000E+00 -0.00000000000E+00 -0.74505805969E-08  0.93827000000E+00  0.93827000000E+00 0.  1.
     999902    2    1    2    0    0 -0.16257635271E-01  0.39625990172E-02  0.54819751503E-03  0.10271874370E+01  0.10270509809E+01 0.  0.
     999903    2    3    3    0    0 -0.89924596767E-03 -0.12763853646E+00 -0.23277260813E-01  0.13695017005E+00  0.43830509633E-01 0.  0.
         14    1    1    2    0    0  0.16257635271E-01 -0.39625990172E-02 -0.54819751503E-03  0.16742563009E-01  0.00000000000E+00 0.  1.
     999901    1    3    3    0    0 -0.15358389304E-01  0.13160113547E+00  0.23825458328E-01  0.89023726694E+00  0.88000000000E+00 0. -1.
        -11    1    4    4    0    0  0.10476515774E-01 -0.31436947461E-01  0.98432958028E-02  0.34571529352E-01  0.51100000000E-03 0. -1.
         11    1    4    4    0    0 -0.11375761742E-01 -0.96201588995E-01 -0.33120556616E-01  0.10237864070E+00  0.51100000000E-03 0.  1.
</event>
<event>
 8    1  0.2257781E+004  0.1043930E+01  0.7957747E-01            NaN
         13   -1    0    0    0    0  0.00000000000E+00  0.00000000000E+00  0.74505805969E-08  0.10566000000E+00  0.10566000000E+00 0.  1.
     999900   -1    0    0    0    0 -0.00000000000E+00 -0.00000000000E+00 -0.74505805969E-08  0.93827000000E+00  0.93827000000E+00 0.  1.
     999902    2    1    2    0    0  0.82439654921E-02  0.94947649136E-02  0.28890105429E-02  0.10310280657E+01  0.10309473373E+01 0.  0.
     999903    2    3    3    0    0  0.12963450019E+00  0.18975001613E-01  0.31137349421E-01  0.14219540118E+00  0.45660083894E-01 0.  0.
         14    1    1    2    0    0 -0.82439654921E-02 -0.94947649136E-02 -0.28890105429E-02  0.12901934340E-01  0.00000000000E+00 0.  1.
     999901    1    3    3    0    0 -0.12139053470E+00 -0.94802366996E-02 -0.28248338878E-01  0.88883266448E+00  0.88000000000E+00 0.  1.
        -11    1    4    4    0    0  0.85225974219E-01  0.27784568178E-01  0.46999875590E-02  0.89765248925E-01  0.51100000000E-03 0. -1.
         11    1    4    4    0    0  0.44408525971E-01 -0.88095665653E-02  0.26437361862E-01  0.52430152252E-01  0.51100000000E-03 0.  1.
</event>
<event>
 8    1  0.2257781E+004  0.1043930E+01  0.7957747E-01            NaN
         13   -1    0    0    0    0  0.00000000000E+00  0.00000000000E+00  0.74505805969E-08  0.10566000000E+00  0.10566000000E+00 0. -1.
     999900   -1    0    0    0    0 -0.00000000000E+00 -0.00000000000E+00 -0.74505805969E-08  0.93827000000E+00  0.93827000000E+00 0.  1.
     999902    2    1    2    0    0 -0.53541464545E-02  0.18730516198E-01  0.17555289670E-01  0.10177062070E+01  0.10173682895E+01 0.  0.
     999903    2    3    3    0    0 -0.10922718616E+00  0.19691429196E-01 -0.48262154842E-01  0.12915543881E+00  0.45095024168E-01 0.  0.
         14    1    1    2    0    0  0.53541464545E-02 -0.18730516198E-01 -0.17555289670E-01  0.26223792950E-01  0.00000000000E+00 0.  1.
     999901    1    3    3    0    0  0.10387303971E+00 -0.96091299759E-03  0.65817444512E-01  0.88855076824E+00  0.88000000000E+00 0. -1.
        -11    1    4    4    0    0 -0.50767740703E-01 -0.13223786334E-01 -0.25282419205E-01  0.58238250857E-01  0.51100000000E-03 0. -1.
         11    1    4    4    0    0 -0.58459445458E-01  0.32915215530E-01 -0.22979735637E-01  0.70917187956E-01  0.51100000000E-03 0.  1.
</event>
<event>
 8    1  0.2257781E+004  0.1043930E+01  0.7957747E-01            NaN
         13   -1    0    0    0    0  0.00000000000E+00  0.00000000000E+00  0.74505805969E-08  0.10566000000E+00  0.10566000000E+00 0.  1.
     999900   -1    0    0    0    0 -0.00000000000E+00 -0.00000000000E+00 -0.74505805969E-08  0.93827000000E+00  0.93827000000E+00 0. -1.
     999902    2    1    2    0    0 -0.29696658723E-02  0.24331971819E-02  0.13246863844E-01  0.10301380181E+01  0.10300456871E+01 0.  0.
     999903    2    3    3    0    0 -0.13742737332E-02 -0.54934130340E-01 -0.12006632701E+00  0.13824903260E+00  0.40953935454E-01 0.  0.
         14    1    1    2    0    0  0.29696658723E-02 -0.24331971819E-02 -0.13246863844E-01  0.13791981933E-01  0.00000000000E+00 0. -1.
     999901    1    3    3    0    0 -0.15953921390E-02  0.57367327522E-01  0.13331319085E+00  0.89188898547E+00  0.88000000000E+00 0.  1.
        -11    1    4    4    0    0  0.13858053369E-01 -0.43685268743E-01 -0.61533069189E-01  0.76726970963E-01  0.51100000000E-03 0. -1.
         11    1    4    4    0    0 -0.15232327102E-01 -0.11248861597E-01 -0.58533257819E-01  0.61522061637E-01  0.51100000000E-03 0.  1.
</event>
<event>
 8    1  0.2257781E+004  0.1043930E+01  0.7957747E-01            NaN
         13   -1    0    0    0    0  0.00000000000E+00  0.00000000000E+00  0.74505805969E-08  0.10566000000E+00  0.10566000000E+00 0. -1.
     999900   -1    0    0    0    0 -0.00000000000E+00 -0.00000000000E+00 -0.74505805969E-08  0.93827000000E+00  0.93827000000E+00 0. -1.
     999902    2    1    2    0    0  0.67935479569E-02  0.10244588545E-01  0.40535169325E-03  0.10316308863E+01  0.10315575686E+01 0.  0.
     999903    2    3    3    0    0  0.23421407919E-01  0.77731359454E-01  0.10809403043E+00  0.14234589175E+00  0.44579220397E-01 0.  0.
         14    1    1    2    0    0 -0.67935479569E-02 -0.10244588545E-01 -0.40535169325E-03  0.12299113720E-01  0.00000000000E+00 0.  1.
     999901    1    3    3    0    0 -0.16627859962E-01 -0.67486770910E-01 -0.10768867874E+00  0.88928499453E+00  0.88000000000E+00 0. -1.
        -11    1    4    4    0    0 -0.11484802099E-01  0.68242264075E-02  0.19223256619E-01  0.23415069109E-01  0.51100000000E-03 0. -1.
         11    1    4    4    0    0  0.34906210018E-01  0.70907133047E-01  0.88870773810E-01  0.11893082264E+00  0.51100000000E-03 0.  1.
</event>
<event>
 8    1  0.2257781E+004  0.1043930E+01  0.7957747E-01            NaN
         13   -1    0    0    0    0  0.00000000000E+00  0.00000000000E+00  0.74505805969E-08  0.10566000000E+00  0.10566000000E+00 0.  1.
     999900   -1    0    0    0    0 -0.00000000000E+00 -0.00000000000E+00 -0.74505805969E-08  0.93827000000E+00  0.93827000000E+00 0.  1.
     999902    2    1    2    0    0  0.10908473177E-01 -0.77027116947E-02 -0.66905149345E-02  0.10289938176E+01  0.10288854101E+01 0.  0.
     999903    2    3    3    0    0  0.78292182589E-01  0.10517538578E+00 -0.11282177879E-01  0.13921681602E+00  0.45414829019E-01 0.  0.
         14    1    1    2    0    0 -0.10908473177E-01  0.77027116947E-02  0.66905149345E-02  0.14936182397E-01  0.00000000000E+00 0.  1.
     999901    1    3    3    0    0 -0.67383709412E-01 -0.11287809748E+00  0.45916629440E-02  0.88977700159E+00  0.88000000000E+00 0. -1.
        -11    1    4    4    0    0  0.50791216456E-01  0.34950926018E-01 -0.15843316903E-01  0.63659930177E-01  0.51100000000E-03 0. -1.
         11    1    4    4    0    0  0.27500966133E-01  0.70224459766E-01  0.45611390247E-02  0.75556885840E-01  0.51100000000E-03 0.  1.
</event>
<event>
 8    1  0.2257781E+004  0.1043930E+01  0.7957747E-01            NaN
         13   -1    0    0    0    0  0.00000000000E+00  0.00000000000E+00  0.74505805969E-08  0.10566000000E+00  0.10566000000E+00 0.  1.
     999900   -1    0    0    0    0 -0.00000000000E+00 -0.00000000000E+00 -0.74505805969E-08  0.93827000000E+00  0.93827000000E+00 0. -1.
     999902    2    1    2    0    0 -0.37894341974E-02  0.68272512723E-02 -0.10807321560E-01  0.10305969819E+01  0.10305107325E+01 0.  0.
     999903    2    3    3    0    0 -0.74113409131E-01  0.10981599282E+00 -0.23157560544E-01  0.14171866026E+00  0.44671650563E-01 0.  0.
         14    1    1    2    0    0  0.37894341974E-02 -0.68272512723E-02  0.10807321560E-01  0.13333018067E-01  0.00000000000E+00 0.  1.
     999901    1    3    3    0    0  0.70323974933E-01 -0.10298874155E+00  0.12350238985E-01  0.88887832167E+00  0.88000000000E+00 0.  1.
        -11    1    4    4    0    0 -0.45243680329E-01  0.72853563978E-01  0.68558880696E-02  0.86034276403E-01  0.51100000000E-03 0. -1.
         11    1    4    4    0    0 -0.28869728802E-01  0.36962428841E-01 -0.30013448614E-01  0.55684383858E-01  0.51100000000E-03 0.  1.
</event>
<event>
 8    1  0.2257781E+004  0.1043930E+01  0.7957747E-01            NaN
         13   -1    0    0    0    0  0.00000000000E+00  0.00000000000E+00  0.74505805969E-08  0.10566000000E+00  0.10566000000E+00 0. -1.
     999900   -1    0    0    0    0 -0.00000000000E+00 -0.00000000000E+00 -0.74505805969E-08  0.93827000000E+00  0.93827000000E+00 0. -1.
     999902    2    1    2    0    0 -0.10166684141E-01 -0.63700051482E-02  0.34880642705E-02  0.10314358004E+01  0.10313601239E+01 0.  0.
     999903    2    3    3    0    0 -0.13318548553E+00  0.16973537419E-01 -0.15360036439E-01  0.14237236204E+00  0.44804957597E-01 0.  0.
         14    1    1    2    0    0  0.10166684141E-01  0.63700051482E-02 -0.34880642705E-02  0.12494199629E-01  0.00000000000E+00 0.  1.
     999901    1    3    3    0    0  0.12301880139E+00 -0.23343542567E-01  0.18848100709E-01  0.88906343833E+00  0.88000000000E+00 0. -1.
        -11    1    4    4    0    0 -0.89255752573E-01 -0.80550482274E-02 -0.19239303582E-01  0.91661797346E-01  0.51100000000E-03 0.  1.
         11    1    4    4    0    0 -0.43929732957E-01  0.25028585646E-01  0.38792671431E-02  0.50710564695E-01  0.51100000000E-03 0. -1.
</event>
<event>
 8    1  0.2257781E+004  0.1043930E+01  0.7957747E-01            NaN
         13   -1    0    0    0    0  0.00000000000E+00  0.00000000000E+00  0.74505805969E-08  0.10566000000E+00  0.10566000000E+00 0. -1.
     999900   -1    0    0    0    0 -0.00000000000E+00 -0.00000000000E+00 -0.74505805969E-08  0.93827000000E+00  0.93827000000E+00 0. -1.
     999902    2    1    2    0    0  0.69911338138E-02 -0.97744323960E-02  0.79928267707E-02  0.10294973717E+01  0.10293962005E+01 0.  0.
     999903    2    3    3    0    0  0.40949200214E-02 -0.45540357147E-01  0.12571493087E+00  0.14093331477E+00  0.44353837133E-01 0.  0.
         14    1    1    2    0    0 -0.69911338138E-02  0.97744323960E-02 -0.79928267707E-02  0.14432628328E-01  0.00000000000E+00 0.  1.
     999901    1    3    3    0    0  0.28962137924E-02  0.35765924751E-01 -0.11772210410E+00  0.88856405690E+00  0.88000000000E+00 0. -1.
        -11    1    4    4    0    0  0.44998369493E-02  0.12807581388E-02 -0.18413632476E-02  0.50537722139E-02  0.51100000000E-03 0. -1.
         11    1    4    4    0    0 -0.40491692786E-03 -0.46821115286E-01  0.12755629412E+00  0.13587954255E+00  0.51100000000E-03 0.  1.
</event>
<event>
 8    1  0.2257781E+004  0.1043930E+01  0.7957747E-01            NaN
         13   -1    0    0    0    0  0.00000000000E+00  0.00000000000E+00  0.74505805969E-08  0.10566000000E+00  0.10566000000E+00 0.  1.
     999900   -1    0    0    0    0 -0.00000000000E+00 -0.00000000000E+00 -0.74505805969E-08  0.93827000000E+00  0.93827000000E+00 0.  1.
     999902    2    1    2    0    0 -0.91994990161E-02  0.98020801263E-02  0.36980256542E-02  0.10299877279E+01  0.10298933599E+01 0.  0.
     999903    2    3    3    0    0 -0.10889136182E+00 -0.79752575992E-02 -0.76875433769E-01  0.14052351638E+00  0.43773198718E-01 0.  0.
         14    1    1    2    0    0  0.91994990161E-02 -0.98020801263E-02 -0.36980256542E-02  0.13942272078E-01  0.00000000000E+00 0. -1.
     999901    1    3    3    0    0  0.99691862806E-01  0.17777337725E-01  0.80573459423E-01  0.88946421154E+00  0.88000000000E+00 0. -1.
        -11    1    4    4    0    0 -0.64567713444E-01  0.16203653924E-01 -0.36842118818E-01  0.76086469624E-01  0.51100000000E-03 0. -1.
         11    1    4    4    0    0 -0.44323648379E-01 -0.24178911523E-01 -0.40033314951E-01  0.64437046759E-01  0.51100000000E-03 0.  1.
</event>
<event>
 8    1  0.2257781E+004  0.1043930E+01  0.7957747E-01            NaN
         13   -1    0    0    0    0  0.00000000000E+00  0.00000000000E+00  0.74505805969E-08  0.10566000000E+00  0.10566000000E+00 0. -1.
     999900   -1    0    0    0    0 -0.00000000000E+00 -0.00000000000E+00 -0.74505805969E-08  0.93827000000E+00  0.93827000000E+00 0. -1.
     999902    2    1    2    0    0 -0.56001582081E-02  0.10330225634E-01 -0.18286911972E-02  0.10320380092E+01  0.10319694923E+01 0.  0.
     999903    2    3    3    0    0  0.24066020714E-01 -0.11075238066E+00 -0.70030038567E-01  0.14063882618E+00  0.45053412196E-01 0.  0.
         14    1    1    2    0    0  0.56001582081E-02 -0.10330225634E-01  0.18286911972E-02  0.11891990797E-01  0.00000000000E+00 0. -1.
     999901    1    3    3    0    0 -0.29666178922E-01  0.12108260630E+00  0.68201347370E-01  0.89139918303E+00  0.88000000000E+00 0.  1.
        -11    1    4    4    0    0  0.32573373829E-01 -0.79531425272E-01 -0.34587838537E-01  0.92643682915E-01  0.51100000000E-03 0.  1.
         11    1    4    4    0    0 -0.85073531149E-02 -0.31220955392E-01 -0.35442200030E-01  0.47995143260E-01  0.51100000000E-03 0. -1.
</event>
<event>
 8    1  0.2257781E+004  0.1043930E+01  0.7957747E-01            NaN
         13   -1    0    0    0    0  0.00000000000E+00  0.00000000000E+00  0.74505805969E-08  0.10566000000E+00  0.10566000000E+00 0.  1.
     999900   -1    0    0    0    0 -0.00000000000E+00 -0.00000000000E+00 -0.74505805969E-08  0.93827000000E+00  0.93827000000E+00 0.  1.
     999902    2    1    2    0    0 -0.12586455155E-01 -0.68001509550E-02  0.79953759433E-02  0.10275413776E+01  0.10274106753E+01 0.  0.
     999903    2    3    3    0    0 -0.28944009043E-02  0.24102122862E-02  0.13168050030E+00  0.13879125714E+00  0.43692930987E-01 0.  0.
         14    1    1    2    0    0  0.12586455155E-01  0.68001509550E-02 -0.79953759433E-02  0.16388622360E-01  0.00000000000E+00 0. -1.
     999901    1    3    3    0    0 -0.96920542506E-02 -0.92103632412E-02 -0.12368512436E+00  0.88875012050E+00  0.88000000000E+00 0.  1.
        -11    1    4    4    0    0  0.17066254499E-01  0.80650442389E-02  0.33629702708E-01  0.38568380915E-01  0.51100000000E-03 0. -1.
         11    1    4    4    0    0 -0.19960655403E-01 -0.56548319527E-02  0.98050797593E-01  0.10022287622E+00  0.51100000000E-03 0.  1.
</event>
<event>
 8    1  0.2257781E+004  0.1043930E+01  0.7957747E-01            NaN
         13   -1    0    0    0    0  0.00000000000E+00  0.00000000000E+00  0.74505805969E-08  0.10566000000E+00  0.10566000000E+00 0. -1.
     999900   -1    0    0    0    0 -0.00000000000E+00 -0.00000000000E+00 -0.74505805969E-08  0.93827000000E+00  0.93827000000E+00 0.  1.
     999902    2    1    2    0    0  0.83622543760E-02 -0.86437739752E-02 -0.68185660788E-02  0.10301048429E+01  0.10300120642E+01 0.  0.
     999903    2    3    3    0    0 -0.66302332048E-01 -0.11526754014E+00 -0.31027454009E-02  0.14052222426E+00  0.45323983018E-01 0.  0.
         14    1    1    2    0    0 -0.83622543760E-02  0.86437739752E-02  0.68185660788E-02  0.13825157148E-01  0.00000000000E+00 0. -1.
     999901    1    3    3    0    0  0.74664586424E-01  0.10662376617E+00 -0.37158206779E-02  0.88958261859E+00  0.88000000000E+00 0. -1.
        -11    1    4    4    0    0 -0.23496431023E-01 -0.67665032172E-01  0.16619198769E-01  0.73532970417E-01  0.51100000000E-03 0.  1.
         11    1    4    4    0    0 -0.42805901025E-01 -0.47602507970E-01 -0.19721944170E-01  0.66989253843E-01  0.51100000000E-03 0. -1.
</event>
<event>
 8    1  0.2257781E+004  0.1043930E+01  0.7957747E-01            NaN
         13   -1    0    0    0    0  0.00000000000E+00  0.00000000000E+00  0.74505805969E-08  0.10566000000E+00  0.10566000000E+00 0.  1.
     999900   -1    0    0    0    0 -0.00000000000E+00 -0.00000000000E+00 -0.74505805969E-08  0.93827000000E+00  0.93827000000E+00 0.  1.
     999902    2    1    2    0    0 -0.83111415791E-02 -0.10238486053E-01  0.17223642286E-03  0.10307416970E+01  0.10306573216E+01 0.  0.
     999903    2    3    3    0    0  0.82642764220E-01  0.64761170149E-01  0.79744370563E-01  0.13932188234E+00  0.45028731110E-01 0.  0.
         14    1    1    2    0    0  0.83111415791E-02  0.10238486053E-01 -0.17223642286E-03  0.13188303014E-01  0.00000000000E+00 0. -1.
     999901    1    3    3    0    0 -0.90953905800E-01 -0.74999656202E-01 -0.79572134140E-01  0.89141981465E+00  0.88000000000E+00 0. -1.
        -11    1    4    4    0    0  0.63129386380E-01  0.54542273296E-01  0.82238765992E-01  0.11714800363E+00  0.51100000000E-03 0. -1.
         11    1    4    4    0    0  0.19513377841E-01  0.10218896853E-01 -0.24943954287E-02  0.22173878713E-01  0.51100000000E-03 0.  1.
</event>
<event>
 8    1  0.2257781E+004  0.1043930E+01  0.7957747E-01            NaN
         13   -1    0    0    0    0  0.00000000000E+00  0.00000000000E+00  0.74505805969E-08  0.10566000000E+00  0.10566000000E+00 0.  1.
     999900   -1    0    0    0    0 -0.00000000000E+00 -0.00000000000E+00 -0.74505805969E-08  0.93827000000E+00  0.93827000000E+00 0.  1.
     999902    2    1    2    0    0 -0.85448720603E-02 -0.56999964828E-02 -0.88144880042E-02  0.10303948607E+01  0.10303059589E+01 0.  0.
     999903    2    3    3    0    0 -0.68594326148E-01 -0.22847661007E-01 -0.11272620168E+00  0.14208319036E+00  0.47468297265E-01 0.  0.
         14    1    1    2    0    0  0.85448720603E-02  0.56999964828E-02  0.88144880042E-02  0.13535139349E-01  0.00000000000E+00 0. -1.
     999901    1    3    3    0    0  0.60049454087E-01  0.17147664525E-01  0.10391171367E+00  0.88831167029E+00  0.88000000000E+00 0. -1.
        -11    1    4    4    0    0 -0.23050996056E-01 -0.30267411138E-01 -0.67407771873E-01  0.77404996131E-01  0.51100000000E-03 0.  1.
         11    1    4    4    0    0 -0.45543330092E-01  0.74197501310E-02 -0.45318429805E-01  0.64678194230E-01  0.51100000000E-03 0. -1.
</event>
<event>
 8    1  0.2257781E+004  0.1043930E+01  0.7957747E-01            NaN
         13   -1    0    0    0    0  0.00000000000E+00  0.00000000000E+00  0.74505805969E-08  0.10566000000E+00  0.10566000000E+00 0. -1.
     999900   -1    0    0    0    0 -0.00000000000E+00 -0.00000000000E+00 -0.74505805969E-08  0.93827000000E+00  0.93827000000E+00 0. -1.
     999902    2    1    2    0    0  0.29629992642E-02  0.13670476945E-01 -0.57648687581E-03  0.10299302271E+01  0.10298350737E+01 0.  0.
     999903    2    3    3    0    0  0.14982965461E-01 -0.49883506278E-01  0.12109690757E+00  0.13920692365E+00  0.44735367625E-01 0.  0.
         14    1    1    2    0    0 -0.29629992642E-02 -0.13670476945E-01  0.57648687581E-03  0.13999772914E-01  0.00000000000E+00 0. -1.
     999901    1    3    3    0    0 -0.12019966196E-01  0.63553983222E-01 -0.12167339444E+00  0.89072330344E+00  0.88000000000E+00 0. -1.
        -11    1    4    4    0    0  0.11196460821E-01  0.39013114035E-02  0.40759330792E-01  0.42451915542E-01  0.51100000000E-03 0. -1.
         11    1    4    4    0    0  0.37865046394E-02 -0.53784817681E-01  0.80337576776E-01  0.96755008106E-01  0.51100000000E-03 0.  1.
</event>
<event>
 8    1  0.2257781E+004  0.1043930E+01  0.7957747E-01            NaN
         13   -1    0    0    0    0  0.00000000000E+00  0.00000000000E+00  0.74505805969E-08  0.10566000000E+00  0.10566000000E+00 0.  1.
     999900   -1    0    0    0    0 -0.00000000000E+00 -0.00000000000E+00 -0.74505805969E-08  0.93827000000E+00  0.93827000000E+00 0.  1.
     999902    2    1    2    0    0 -0.24515654873E-02  0.13504447538E-01  0.13251529845E-03  0.10302041908E+01  0.10301127497E+01 0.  0.
     999903    2    3    3    0    0  0.66761962404E-02 -0.12934303878E+00 -0.17597897154E-01  0.13846258707E+00  0.45694734450E-01 0.  0.
         14    1    1    2    0    0  0.24515654873E-02 -0.13504447538E-01 -0.13251529845E-03  0.13725809155E-01  0.00000000000E+00 0. -1.
     999901    1    3    3    0    0 -0.91277617277E-02  0.14284748632E+00  0.17730412452E-01  0.89174160378E+00  0.88000000000E+00 0. -1.
        -11    1    4    4    0    0  0.17388587785E-01 -0.74797940021E-01 -0.28317819402E-01  0.81848975762E-01  0.51100000000E-03 0.  1.
         11    1    4    4    0    0 -0.10712391545E-01 -0.54545098758E-01  0.10719922248E-01  0.56613611306E-01  0.51100000000E-03 0. -1.
</event>
<event>
 8    1  0.2257781E+004  0.1043930E+01  0.7957747E-01            NaN
         13   -1    0    0    0    0  0.00000000000E+00  0.00000000000E+00  0.74505805969E-08  0.10566000000E+00  0.10566000000E+00 0. -1.
     999900   -1    0    0    0    0 -0.00000000000E+00 -0.00000000000E+00 -0.74505805969E-08  0.93827000000E+00  0.93827000000E+00 0.  1.
     999902    2    1    2    0    0 -0.16364371868E-02  0.11763719534E-02  0.13849624490E-01  0.10299345051E+01  0.10298394103E+01 0.  0.
     999903    2    3    3    0    0 -0.83337430583E-01 -0.60703065261E-01 -0.82431862397E-01  0.13876996266E+00  0.42803050475E-01 0.  0.
         14    1    1    2    0    0  0.16364371868E-02 -0.11763719534E-02 -0.13849624490E-01  0.13995494852E-01  0.00000000000E+00 0.  1.
     999901    1    3    3    0    0  0.81700993396E-01  0.61879437215E-01  0.96281486887E-01  0.89116454249E+00  0.88000000000E+00 0. -1.
        -11    1    4    4    0    0 -0.55504187586E-01 -0.30969588208E-01 -0.24868383025E-01  0.68253408916E-01  0.51100000000E-03 0.  1.
         11    1    4    4    0    0 -0.27833242997E-01 -0.29733477053E-01 -0.57563479373E-01  0.70516553743E-01  0.51100000000E-03 0. -1.
</event>
<event>
 8    1  0.2639861E+004  0.1043930E+01  0.7957747E-01            NaN
         13   -1    0    0    0    0  0.00000000000E+00  0.00000000000E+00  0.74505805969E-08  0.10566000000E+00  0.10566000000E+00 0.  1.
     999900   -1    0    0    0    0 -0.00000000000E+00 -0.00000000000E+00 -0.74505805969E-08  0.93827000000E+00  0.93827000000E+00 0. -1.
     999902    2    1    2    0    0 -0.34225790207E-03  0.12744034867E-01 -0.50213412007E-02  0.10302281230E+01  0.10301370026E+01 0.  0.
     999903    2    3    3    0    0  0.58076557891E-01 -0.69815855660E-01  0.95097357859E-01  0.13879520493E+00  0.44423655429E-01 0.  0.
         14    1    1    2    0    0  0.34225790207E-03 -0.12744034867E-01  0.50213412007E-02  0.13701876975E-01  0.00000000000E+00 0.  1.
     999901    1    3    3    0    0 -0.58418815793E-01  0.82559890527E-01 -0.10011869906E+00  0.89143291810E+00  0.88000000000E+00 0. -1.
        -11    1    4    4    0    0  0.54363041913E-01 -0.37257631283E-01  0.48509848258E-01  0.81834820913E-01  0.51100000000E-03 0.  1.
         11    1    4    4    0    0  0.37135159785E-02 -0.32558224376E-01  0.46587509602E-01  0.56960384017E-01  0.51100000000E-03 0. -1.
</event>
<event>
 8    1  0.2257781E+004  0.1043930E+01  0.7957747E-01            NaN
         13   -1    0    0    0    0  0.00000000000E+00  0.00000000000E+00  0.74505805969E-08  0.10566000000E+00  0.10566000000E+00 0.  1.
     999900   -1    0    0    0    0 -0.00000000000E+00 -0.00000000000E+00 -0.74505805969E-08  0.93827000000E+00  0.93827000000E+00 0. -1.
     999902    2    1    2    0    0  0.71144909250E-02  0.57174700575E-02 -0.94471816135E-02  0.10307939928E+01  0.10307102895E+01 0.  0.
     999903    2    3    3    0    0  0.93037277823E-01  0.76109916849E-01 -0.62123708550E-01  0.14224875570E+00  0.43894177581E-01 0.  0.
         14    1    1    2    0    0 -0.71144909250E-02 -0.57174700575E-02  0.94471816135E-02  0.13136007210E-01  0.00000000000E+00 0.  1.
     999901    1    3    3    0    0 -0.85922786898E-01 -0.70392446791E-01  0.52676526937E-01  0.88854523709E+00  0.88000000000E+00 0. -1.
        -11    1    4    4    0    0  0.52749146843E-01  0.43907300925E-01 -0.59114328559E-01  0.90581943725E-01  0.51100000000E-03 0.  1.
         11    1    4    4    0    0  0.40288130980E-01  0.32202615924E-01 -0.30093799914E-02  0.51666811970E-01  0.51100000000E-03 0. -1.
</event>
<event>
 8    1  0.2257781E+004  0.1043930E+01  0.7957747E-01            NaN
         13   -1    0    0    0    0  0.00000000000E+00  0.00000000000E+00  0.74505805969E-08  0.10566000000E+00  0.10566000000E+00 0. -1.
     999900   -1    0    0    0    0 -0.00000000000E+00 -0.00000000000E+00 -0.74505805969E-08  0.93827000000E+00  0.93827000000E+00 0.  1.
     999902    2    1    2    0    0  0.80940497250E-02  0.11235400179E-02  0.11445950441E-01  0.10298663673E+01  0.10297703379E+01 0.  0.
     999903    2    3    3    0    0  0.28533552821E-01 -0.12831145885E+00  0.18991739921E-01  0.14013150165E+00  0.44700754588E-01 0.  0.
         14    1    1    2    0    0 -0.80940497250E-02 -0.11235400179E-02 -0.11445950441E-01  0.14063632696E-01  0.00000000000E+00 0.  1.
     999901    1    3    3    0    0 -0.20439503096E-01  0.12943499887E+00 -0.75457894805E-02  0.88973486565E+00  0.88000000000E+00 0.  1.
        -11    1    4    4    0    0 -0.34272553560E-02 -0.82933223110E-01  0.66629550606E-02  0.83272574512E-01  0.51100000000E-03 0. -1.
         11    1    4    4    0    0  0.31960808177E-01 -0.45378235741E-01  0.12328784861E-01  0.56858927139E-01  0.51100000000E-03 0.  1.
</event>
<event>
 8    1  0.2257781E+004  0.1043930E+01  0.7957747E-01            NaN
         13   -1    0    0    0    0  0.00000000000E+00  0.00000000000E+00  0.74505805969E-08  0.10566000000E+00  0.10566000000E+00 0.  1.
     999900   -1    0    0    0    0 -0.00000000000E+00 -0.00000000000E+00 -0.74505805969E-08  0.93827000000E+00  0.93827000000E+00 0.  1.
     999902    2    1    2    0    0  0.37493820517E-02 -0.14768710371E-01  0.11930322107E-02  0.10286461524E+01  0.10285326008E+01 0.  0.
     999903    2    3    3    0    0  0.57739965339E-01 -0.63578082428E-01  0.10099982276E+00  0.14001870890E+00  0.45035524671E-01 0.  0.
         14    1    1    2    0    0 -0.37493820517E-02  0.14768710371E-01 -0.11930322107E-02  0.15283847606E-01  0.00000000000E+00 0. -1.
     999901    1    3    3    0    0 -0.53990583287E-01  0.48809372056E-01 -0.99806790552E-01  0.88862744349E+00  0.88000000000E+00 0.  1.
        -11    1    4    4    0    0  0.19913540432E-01 -0.45504726821E-02  0.48130530007E-02  0.20992438981E-01  0.51100000000E-03 0. -1.
         11    1    4    4    0    0  0.37826424907E-01 -0.59027609745E-01  0.96186769762E-01  0.11902626992E+00  0.51100000000E-03 0.  1.
</event>
<event>
 8    1  0.2257781E+004  0.1043930E+01  0.7957747E-01            NaN
         13   -1    0    0    0    0  0.00000000000E+00  0.00000000000E+00  0.74505805969E-08  0.10566000000E+00  0.10566000000E+00 0.  1.
     999900   -1    0    0    0    0 -0.00000000000E+00 -0.00000000000E+00 -0.74505805969E-08  0.93827000000E+00  0.93827000000E+00 0.  1.
     999902    2    1    2    0    0  0.28958069884E-02 -0.85561613091E-03 -0.14586255104E-01  0.10290344767E+01  0.10289266629E+01 0.  0.
     999903    2    3    3    0    0 -0.12785845467E+00 -0.46329559805E-03  0.27743278653E-01  0.13836696280E+00  0.45030298808E-01 0.  0.
         14    1    1    2    0    0 -0.28958069884E-02  0.85561613091E-03  0.14586255104E-01  0.14895523322E-01  0.00000000000E+00 0.  1.
     999901    1    3    3    0    0  0.13075426165E+00 -0.39232053286E-03 -0.42329533757E-01  0.89066751388E+00  0.88000000000E+00 0. -1.
        -11    1    4    4    0    0 -0.10908690015E+00 -0.11165471417E-01  0.94746329747E-02  0.11006656771E+00  0.51100000000E-03 0. -1.
         11    1    4    4    0    0 -0.18771554517E-01  0.10702175819E-01  0.18268645678E-01  0.28300395089E-01  0.51100000000E-03 0.  1.
</event>
<event>
 8    1  0.2257781E+004  0.1043930E+01  0.7957747E-01            NaN
         13   -1    0    0    0    0  0.00000000000E+00  0.00000000000E+00  0.74505805969E-08  0.10566000000E+00  0.10566000000E+00 0.  1.
     999900   -1    0    0    0    0 -0.00000000000E+00 -0.00000000000E+00 -0.74505805969E-08  0.93827000000E+00  0.93827000000E+00 0.  1.
     999902    2    1    2    0    0  0.91145260706E-02  0.54708169845E-02 -0.97640702082E-02  0.10294959607E+01  0.10293947695E+01 0.  0.
     999903    2    3    3    0    0 -0.92479343748E-01  0.11203542385E-01  0.92400523464E-01  0.13776069575E+00  0.41978615688E-01 0.  0.
         14    1    1    2    0    0 -0.91145260706E-02 -0.54708169845E-02  0.97640702082E-02  0.14434039317E-01  0.00000000000E+00 0.  1.
     999901    1    3    3    0    0  0.10159386982E+00 -0.57327254007E-02 -0.10216459367E+00  0.89173526493E+00  0.88000000000E+00 0.  1.
        -11    1    4    4    0    0 -0.55714367822E-01  0.24624446325E-01  0.69479469370E-01  0.92401904329E-01  0.51100000000E-03 0. -1.
         11    1    4    4    0    0 -0.36764975926E-01 -0.13420903940E-01  0.22921054094E-01  0.45358791421E-01  0.51100000000E-03 0.  1.
</event>
<event>
 8    1  0.2257781E+004  0.1043930E+01  0.7957747E-01            NaN
         13   -1    0    0    0    0  0.00000000000E+00  0.00000000000E+00  0.74505805969E-08  0.10566000000E+00  0.10566000000E+00 0. -1.
     999900   -1    0    0    0    0 -0.00000000000E+00 -0.00000000000E+00 -0.74505805969E-08  0.93827000000E+00  0.93827000000E+00 0.  1.
     999902    2    1    2    0    0 -0.92767914843E-03 -0.13931415373E-01  0.11075719635E-01  0.10261082019E+01  0.10259534227E+01 0.  0.
     999903    2    3    3    0    0  0.57901550865E-01 -0.11121484898E+00  0.37126922848E-01  0.13841252770E+00  0.45368350183E-01 0.  0.
         14    1    1    2    0    0  0.92767914843E-03  0.13931415373E-01 -0.11075719635E-01  0.17821798123E-01  0.00000000000E+00 0.  1.
     999901    1    3    3    0    0 -0.58829230013E-01  0.97283433608E-01 -0.26051203213E-01  0.88769567417E+00  0.88000000000E+00 0. -1.
        -11    1    4    4    0    0  0.30752409719E-01 -0.29869541671E-01  0.30064476957E-01  0.52364435630E-01  0.51100000000E-03 0. -1.
         11    1    4    4    0    0  0.27149141146E-01 -0.81345307310E-01  0.70624458916E-02  0.86048092073E-01  0.51100000000E-03 0.  1.
</event>
<event>
 7    1  0.2257781E+004  0.1043930E+01  0.7957747E-01            NaN
         13   -1    0    0    0    0  0.00000000000E+00  0.00000000000E+00  0.74505805969E-08  0.10566000000E+00  0.10566000000E+00 0. -1.
     999900   -1    0    0    0    0 -0.00000000000E+00 -0.00000000000E+00 -0.74505805969E-08  0.93827000000E+00  0.93827000000E+00 0. -1.
     999902    2    1    2    0    0 -0.12687482022E-01 -0.96891626995E-02  0.67179352501E-02  0.10266099905E+01  0.10264638766E+01 0.  0.
         14    1    1    2    0    0  0.12687482022E-01  0.96891626995E-02 -0.67179352501E-02  0.17320009466E-01  0.00000000000E+00 0.  1.
     999901    1    3    3    0    0  0.83166276331E-01  0.66693278352E-01  0.23955658928E-01  0.88675729289E+00  0.88000000000E+00 0.  1.
        -11    1    3    3    0    0 -0.19369903556E-01 -0.56526807354E-01 -0.82487797572E-02  0.60322272851E-01  0.51100000000E-03 0. -1.
         11    1    3    3    0    0 -0.76483854798E-01 -0.19855633697E-01 -0.89889439208E-02  0.79530424795E-01  0.51100000000E-03 0.  1.
</event>
<event>
 8    1  0.2257781E+004  0.1043930E+01  0.7957747E-01            NaN
         13   -1    0    0    0    0  0.00000000000E+00  0.00000000000E+00  0.74505805969E-08  0.10566000000E+00  0.10566000000E+00 0.  1.
     999900   -1    0    0    0    0 -0.00000000000E+00 -0.00000000000E+00 -0.74505805969E-08  0.93827000000E+00  0.93827000000E+00 0.  1.
     999902    2    1    2    0    0  0.67510122473E-02  0.96712267979E-02  0.72816305632E-02  0.10300688695E+01  0.10299756041E+01 0.  0.
     999903    2    3    3    0    0  0.72643998315E-01 -0.10839205232E+00 -0.19989334923E-01  0.13932506291E+00  0.44563574214E-01 0.  0.
         14    1    1    2    0    0 -0.67510122473E-02 -0.96712267979E-02 -0.72816305632E-02  0.13861130466E-01  0.00000000000E+00 0. -1.
     999901    1    3    3    0    0 -0.65892986067E-01  0.11806327911E+00  0.27270965487E-01  0.89074380663E+00  0.88000000000E+00 0. -1.
        -11    1    4    4    0    0  0.28594205428E-01 -0.81225702274E-01 -0.11503480130E-01  0.86878273867E-01  0.51100000000E-03 0.  1.
         11    1    4    4    0    0  0.44049792886E-01 -0.27166350041E-01 -0.84858547937E-02  0.52446789039E-01  0.51100000000E-03 0. -1.
</event>
<event>
 8    1  0.2257781E+004  0.1043930E+01  0.7957747E-01            NaN
         13   -1    0    0    0    0  0.00000000000E+00  0.00000000000E+00  0.74505805969E-08  0.10566000000E+00  0.10566000000E+00 0. -1.
     999900   -1    0    0    0    0 -0.00000000000E+00 -0.00000000000E+00 -0.74505805969E-08  0.93827000000E+00  0.93827000000E+00 0.  1.
     999902    2    1    2    0    0 -0.29652496279E-02  0.15217008868E-01  0.35316868072E-02  0.10280295951E+01  0.10279066230E+01 0.  0.
     999903    2    3    3    0    0 -0.12079595364E+00  0.40742409967E-01 -0.32832182086E-01  0.13906505595E+00  0.44827795183E-01 0.  0.
         14    1    1    2    0    0  0.29652496279E-02 -0.15217008868E-01 -0.35316868072E-02  0.15900404899E-01  0.00000000000E+00 0.  1.
     999901    1    3    3    0    0  0.11783070401E+00 -0.25525401099E-01  0.36363868893E-01  0.88896453915E+00  0.88000000000E+00 0.  1.
        -11    1    4    4    0    0 -0.90615381619E-01  0.47754095306E-01 -0.15610259286E-01  0.10361246219E+00  0.51100000000E-03 0. -1.
         11    1    4    4    0    0 -0.30180572017E-01 -0.70116853392E-02 -0.17221922800E-01  0.35452593762E-01  0.51100000000E-03 0.  1.
</event>
<event>
 8    1  0.2257781E+004  0.1043930E+01  0.7957747E-01            NaN
         13   -1    0    0    0    0  0.00000000000E+00  0.00000000000E+00  0.74505805969E-08  0.10566000000E+00  0.10566000000E+00 0.  1.
     999900   -1    0    0    0    0 -0.00000000000E+00 -0.00000000000E+00 -0.74505805969E-08  0.93827000000E+00  0.93827000000E+00 0.  1.
     999902    2    1    2    0    0 -0.73852471979E-02 -0.37316374023E-02  0.11385604794E-01  0.10298552357E+01  0.10297590531E+01 0.  0.
     999903    2    3    3    0    0 -0.10656277835E+00  0.47360888610E-01  0.61217612185E-01  0.14141285835E+00  0.51490979456E-01 0.  0.
         14    1    1    2    0    0  0.73852471979E-02  0.37316374023E-02 -0.11385604794E-01  0.14074764311E-01  0.00000000000E+00 0. -1.
     999901    1    3    3    0    0  0.99177531147E-01 -0.51092526012E-01 -0.49832007391E-01  0.88844237734E+00  0.88000000000E+00 0.  1.
        -11    1    4    4    0    0 -0.10401774794E+00  0.36450791961E-01  0.39707903848E-01  0.11715515725E+00  0.51100000000E-03 0.  1.
         11    1    4    4    0    0 -0.25450304030E-02  0.10910096649E-01  0.21509708337E-01  0.24257701095E-01  0.51100000000E-03 0. -1.
</event>
<event>
 8    1  0.2257781E+004  0.1043930E+01  0.7957747E-01            NaN
         13   -1    0    0    0    0  0.00000000000E+00  0.00000000000E+00  0.74505805969E-08  0.10566000000E+00  0.10566000000E+00 0. -1.
     999900   -1    0    0    0    0 -0.00000000000E+00 -0.00000000000E+00 -0.74505805969E-08  0.93827000000E+00  0.93827000000E+00 0. -1.
     999902    2    1    2    0    0 -0.12990485290E-01 -0.21277664749E-02 -0.17557588296E-03  0.10307652393E+01  0.10306811668E+01 0.  0.
     999903    2    3    3    0    0  0.15565331852E-01 -0.13042465779E+00  0.24657663786E-01  0.14065725885E+00  0.43858786666E-01 0.  0.
         14    1    1    2    0    0  0.12990485290E-01  0.21277664749E-02  0.17557588296E-03  0.13164760733E-01  0.00000000000E+00 0. -1.
     999901    1    3    3    0    0 -0.28555817142E-01  0.12829689132E+00 -0.24833239669E-01  0.89010798042E+00  0.88000000000E+00 0.  1.
        -11    1    4    4    0    0  0.10077028486E-01 -0.34365012560E-01  0.26284855568E-01  0.44425840955E-01  0.51100000000E-03 0.  1.
         11    1    4    4    0    0  0.54883033662E-02 -0.96059645230E-01 -0.16271917812E-02  0.96231417893E-01  0.51100000000E-03 0. -1.
</event>
<event>
 8    1  0.2511337E+004  0.1043930E+01  0.7957747E-01            NaN
         13   -1    0    0    0    0  0.00000000000E+00  0.00000000000E+00  0.74505805969E-08  0.10566000000E+00  0.10566000000E+00 0. -1.
     999900   -1    0    0    0    0 -0.00000000000E+00 -0.00000000000E+00 -0.74505805969E-08  0.93827000000E+00  0.93827000000E+00 0.  1.
     999902    2    1    2    0    0  0.22302605840E-02  0.22146079375E-01 -0.10262638223E-01  0.10194199074E+01  0.10191252146E+01 0.  0.
     999903    2    3    3    0    0 -0.10283453343E+00  0.30639677287E-02 -0.66963730781E-01  0.13115319534E+00  0.46181059375E-01 0.  0.
         14    1    1    2    0    0 -0.22302605840E-02 -0.22146079375E-01  0.10262638223E-01  0.24510092559E-01  0.00000000000E+00 0. -1.
     999901    1    3    3    0    0  0.10506479401E+00  0.19082111646E-01  0.56701092558E-01  0.88826671210E+00  0.88000000000E+00 0. -1.
        -11    1    4    4    0    0 -0.67125260279E-01 -0.73743536820E-03 -0.16353097177E-01  0.69094350614E-01  0.51100000000E-03 0.  1.
         11    1    4    4    0    0 -0.35709273148E-01  0.38014030969E-02 -0.50610633604E-01  0.62058844728E-01  0.51100000000E-03 0. -1.
</event>
<event>
 8    1  0.2257781E+004  0.1043930E+01  0.7957747E-01            NaN
         13   -1    0    0    0    0  0.00000000000E+00  0.00000000000E+00  0.74505805969E-08  0.10566000000E+00  0.10566000000E+00 0.  1.
     999900   -1    0    0    0    0 -0.00000000000E+00 -0.00000000000E+00 -0.74505805969E-08  0.93827000000E+00  0.93827000000E+00 0. -1.
     999902    2    1    2    0    0  0.11369701173E-01  0.62974866789E-02  0.79804014545E-02  0.10286782706E+01  0.10285651992E+01 0.  0.
     999903    2    3    3    0    0  0.11338909281E+00  0.19489099729E-01  0.67702270225E-01  0.14067563739E+00  0.44374837297E-01 0.  0.
         14    1    1    2    0    0 -0.11369701173E-01 -0.62974866789E-02 -0.79804014545E-02  0.15251729430E-01  0.00000000000E+00 0.  1.
     999901    1    3    3    0    0 -0.10201939164E+00 -0.13191613050E-01 -0.59721868770E-01  0.88800263318E+00  0.88000000000E+00 0. -1.
        -11    1    4    4    0    0  0.21422344866E-01  0.20194727548E-01  0.27543804677E-01  0.40319550808E-01  0.51100000000E-03 0.  1.
         11    1    4    4    0    0  0.91966747943E-01 -0.70562781867E-03  0.40158465548E-01  0.10035608658E+00  0.51100000000E-03 0. -1.
</event>
<event>
 8    1  0.2257781E+004  0.1043930E+01  0.7957747E-01            NaN
         13   -1    0    0    0    0  0.00000000000E+00  0.00000000000E+00  0.74505805969E-08  0.10566000000E+00  0.10566000000E+00 0. -1.
     999900   -1    0    0    0    0 -0.00000000000E+00 -0.00000000000E+00 -0.74505805969E-08  0.93827000000E+00  0.93827000000E+00 0.  1.
     999902    2    1    2    0    0 -0.30307343297E-02 -0.99868542128E-02 -0.73156256919E-02  0.10311847661E+01  0.10311059989E+01 0.  0.
     999903    2    3    3    0    0  0.10583226968E+00 -0.29121245251E-01  0.75032035341E-01  0.14045561769E+00  0.45270939730E-01 0.  0.
         14    1    1    2    0    0  0.30307343297E-02  0.99868542128E-02  0.73156256919E-02  0.12745233890E-01  0.00000000000E+00 0. -1.
     999901    1    3    3    0    0 -0.10886300401E+00  0.19134391039E-01 -0.82347661033E-01  0.89072914842E+00  0.88000000000E+00 0.  1.
        -11    1    4    4    0    0  0.28160298588E-01 -0.12122529427E-01  0.47057505307E-01  0.56166075731E-01  0.51100000000E-03 0.  1.
         11    1    4    4    0    0  0.77671971090E-01 -0.16998715824E-01  0.27974530034E-01  0.84289541962E-01  0.51100000000E-03 0. -1.
</event>
<event>
 8    1  0.2257781E+004  0.1043930E+01  0.7957747E-01            NaN
         13   -1    0    0    0    0  0.00000000000E+00  0.00000000000E+00  0.74505805969E-08  0.10566000000E+00  0.10566000000E+00 0. -1.
     999900   -1    0    0    0    0 -0.00000000000E+00 -0.00000000000E+00 -0.74505805969E-08  0.93827000000E+00  0.93827000000E+00 0. -1.
     999902    2    1    2    0    0  0.32024466309E-02  0.33267758136E-02 -0.15886427566E-01  0.10273860681E+01  0.10272528565E+01 0.  0.
     999903    2    3    3    0    0 -0.34692970985E-01  0.22395280642E-01 -0.12596333289E+00  0.13951412033E+00  0.43500318483E-01 0.  0.
         14    1    1    2    0    0 -0.32024466309E-02 -0.33267758136E-02  0.15886427566E-01  0.16543931895E-01  0.00000000000E+00 0. -1.
     999901    1    3    3    0    0  0.37895417615E-01 -0.19068504828E-01  0.11007690533E+00  0.88787194777E+00  0.88000000000E+00 0.  1.
        -11    1    4    4    0    0 -0.15162171029E-01 -0.12402348374E-01 -0.50075839044E-01  0.53773231746E-01  0.51100000000E-03 0.  1.
         11    1    4    4    0    0 -0.19530799956E-01  0.34797629015E-01 -0.75887493850E-01  0.85740888588E-01  0.51100000000E-03 0. -1.
</event>
<event>
 8    1  0.2257781E+004  0.1043930E+01  0.7957747E-01            NaN
         13   -1    0    0    0    0  0.00000000000E+00  0.00000000000E+00  0.74505805969E-08  0.10566000000E+00  0.10566000000E+00 0.  1.
     999900   -1    0    0    0    0 -0.00000000000E+00 -0.00000000000E+00 -0.74505805969E-08  0.93827000000E+00  0.93827000000E+00 0.  1.
     999902    2    1    2    0    0 -0.22643001281E-02 -0.69868296523E-02 -0.11571168370E-01  0.10302247170E+01  0.10301335510E+01 0.  0.
     999903    2    3    3    0    0 -0.52022309204E-01 -0.11581158005E+00  0.40077791810E-01  0.14062576197E+00  0.45285017440E-01 0.  0.
         14    1    1    2    0    0  0.22643001281E-02  0.69868296523E-02  0.11571168370E-01  0.13705282964E-01  0.00000000000E+00 0.  1.
     999901    1    3    3    0    0  0.49758009076E-01  0.10882475040E+00 -0.51648960181E-01  0.88959895507E+00  0.88000000000E+00 0.  1.
        -11    1    4    4    0    0 -0.17067083475E-01 -0.89165374482E-01  0.25165222948E-01  0.94208804853E-01  0.51100000000E-03 0. -1.
         11    1    4    4    0    0 -0.34955225728E-01 -0.26646205570E-01  0.14912568863E-01  0.46416957118E-01  0.51100000000E-03 0.  1.
</event>
<event>
 8    1  0.2257781E+004  0.1043930E+01  0.7957747E-01            NaN
         13   -1    0    0    0    0  0.00000000000E+00  0.00000000000E+00  0.74505805969E-08  0.10566000000E+00  0.10566000000E+00 0. -1.
     999900   -1    0    0    0    0 -0.00000000000E+00 -0.00000000000E+00 -0.74505805969E-08  0.93827000000E+00  0.93827000000E+00 0. -1.
     999902    2    1    2    0    0  0.10948496254E-01 -0.14946391565E-02  0.60458116583E-02  0.10313341533E+01  0.10312572329E+01 0.  0.
     999903    2    3    3    0    0 -0.57119907224E-01 -0.28799517219E-01  0.11717757646E+00  0.14131778652E+00  0.46346913256E-01 0.  0.
         14    1    1    2    0    0 -0.10948496254E-01  0.14946391565E-02 -0.60458116583E-02  0.12595846737E-01  0.00000000000E+00 0. -1.
     999901    1    3    3    0    0  0.68068403478E-01  0.27304878062E-01 -0.11113176480E+00  0.89001636674E+00  0.88000000000E+00 0. -1.
        -11    1    4    4    0    0 -0.17198356162E-01 -0.34453710429E-01  0.52750570903E-01  0.65312521530E-01  0.51100000000E-03 0. -1.
         11    1    4    4    0    0 -0.39921551062E-01  0.56541932100E-02  0.64427005560E-01  0.76005264992E-01  0.51100000000E-03 0.  1.
</event>
<event>
 8    1  0.2257781E+004  0.1043930E+01  0.7957747E-01            NaN
         13   -1    0    0    0    0  0.00000000000E+00  0.00000000000E+00  0.74505805969E-08  0.10566000000E+00  0.10566000000E+00 0. -1.
     999900   -1    0    0    0    0 -0.00000000000E+00 -0.00000000000E+00 -0.74505805969E-08  0.93827000000E+00  0.93827000000E+00 0.  1.
     999902    2    1    2    0    0 -0.99636913563E-02  0.73610049355E-02 -0.57733070849E-02  0.10302628637E+01  0.10301722078E+01 0.  0.
     999903    2    3    3    0    0  0.43588763307E-01 -0.23463948767E-01 -0.12332439073E+00  0.14029865072E+00  0.44991875576E-01 0.  0.
         14    1    1    2    0    0  0.99636913563E-02 -0.73610049355E-02  0.57733070849E-02  0.13667136269E-01  0.00000000000E+00 0. -1.
     999901    1    3    3    0    0 -0.53552454663E-01  0.30824953702E-01  0.11755108364E+00  0.88996421301E+00  0.88000000000E+00 0. -1.
        -11    1    4    4    0    0  0.45977928112E-01 -0.42396948962E-02 -0.73071572773E-01  0.86438768818E-01  0.51100000000E-03 0. -1.
         11    1    4    4    0    0 -0.23891648051E-02 -0.19224253871E-01 -0.50252817954E-01  0.53859881904E-01  0.51100000000E-03 0.  1.
</event>
<event>
 8    1  0.2257781E+004  0.1043930E+01  0.7957747E-01            NaN
         13   -1    0    0    0    0  0.00000000000E+00  0.00000000000E+00  0.74505805969E-08  0.10566000000E+00  0.10566000000E+00 0.  1.
     999900   -1    0    0    0    0 -0.00000000000E+00 -0.00000000000E+00 -0.74505805969E-08  0.93827000000E+00  0.93827000000E+00 0. -1.
     999902    2    1    2    0    0  0.12328673600E-04  0.11048211997E-01 -0.41476074085E-02  0.10321289074E+01  0.10320614398E+01 0.  0.
     999903    2    3    3    0    0 -0.20449620464E-01 -0.12476590470E+00 -0.42247831498E-01  0.14066057212E+00  0.44897653945E-01 0.  0.
         14    1    1    2    0    0 -0.12328673600E-04 -0.11048211997E-01  0.41476074085E-02  0.11801092642E-01  0.00000000000E+00 0.  1.
     999901    1    3    3    0    0  0.20461949137E-01  0.13581411670E+00  0.38100224089E-01  0.89146833524E+00  0.88000000000E+00 0.  1.
        -11    1    4    4    0    0 -0.31047325911E-01 -0.11691156638E+00 -0.38165184460E-01  0.12684278941E+00  0.51100000000E-03 0.  1.
         11    1    4    4    0    0  0.10597705447E-01 -0.78543383253E-02 -0.40826470377E-02  0.13817782713E-01  0.51100000000E-03 0. -1.
</event>
<event>
 8    1  0.2257781E+004  0.1043930E+01  0.7957747E-01            NaN
         13   -1    0    0    0    0  0.00000000000E+00  0.00000000000E+00  0.74505805969E-08  0.10566000000E+00  0.10566000000E+00 0. -1.
     999900   -1    0    0    0    0 -0.00000000000E+00 -0.00000000000E+00 -0.74505805969E-08  0.93827000000E+00  0.93827000000E+00 0. -1.
     999902    2    1    2    0    0 -0.88577282696E-02 -0.10272418520E-01  0.14073363673E-02  0.10302931922E+01  0.10302029408E+01 0.  0.
     999903    2    3    3    0    0  0.10691286023E+00  0.11938260618E-01  0.76008363153E-01  0.13930415933E+00  0.45337575902E-01 0.  0.
         14    1    1    2    0    0  0.88577282696E-02  0.10272418520E-01 -0.14073363673E-02  0.13636807838E-01  0.00000000000E+00 0.  1.
     999901    1    3    3    0    0 -0.11577058850E+00 -0.22210679138E-01 -0.74601026786E-01  0.89098903283E+00  0.88000000000E+00 0. -1.
        -11    1    4    4    0    0  0.58394118173E-01 -0.71854283941E-02  0.18518028411E-01  0.61682103690E-01  0.51100000000E-03 0. -1.
         11    1    4    4    0    0  0.48518742056E-01  0.19123689012E-01  0.57490334742E-01  0.77622055641E-01  0.51100000000E-03 0.  1.
</event>
<event>
 8    1  0.2257781E+004  0.1043930E+01  0.7957747E-01            NaN
         13   -1    0    0    0    0  0.00000000000E+00  0.00000000000E+00  0.74505805969E-08  0.10566000000E+00  0.10566000000E+00 0. -1.
     999900   -1    0    0    0    0 -0.00000000000E+00 -0.00000000000E+00 -0.74505805969E-08  0.93827000000E+00  0.93827000000E+00 0. -1.
     999902    2    1    2    0    0 -0.45920112316E-02  0.38675212782E-02  0.13096026927E-01  0.10295233970E+01  0.10294225929E+01 0.  0.
     999903    2    3    3    0    0 -0.79090759755E-01 -0.10161271303E+00 -0.27067215298E-01  0.13919243082E+00  0.45402719351E-01 0.  0.
         14    1    1    2    0    0  0.45920112316E-02 -0.38675212782E-02 -0.13096026927E-01  0.14406602975E-01  0.00000000000E+00 0.  1.
     999901    1    3    3    0    0  0.74498748523E-01  0.10548023431E+00  0.40163242225E-01  0.89033096621E+00  0.88000000000E+00 0.  1.
        -11    1    4    4    0    0 -0.20883723025E-01 -0.42959631995E-02  0.38146332233E-02  0.21665588726E-01  0.51100000000E-03 0. -1.
         11    1    4    4    0    0 -0.58207036730E-01 -0.97316749834E-01 -0.30881848521E-01  0.11752684209E+00  0.51100000000E-03 0.  1.
</event>
<event>
 8    1  0.2257781E+004  0.1043930E+01  0.7957747E-01            NaN
         13   -1    0    0    0    0  0.00000000000E+00  0.00000000000E+00  0.74505805969E-08  0.10566000000E+00  0.10566000000E+00 0.  1.
     999900   -1    0    0    0    0 -0.00000000000E+00 -0.00000000000E+00 -0.74505805969E-08  0.93827000000E+00  0.93827000000E+00 0.  1.
     999902    2    1    2    0    0 -0.12580909496E-01 -0.81753843081E-03  0.75757147961E-02  0.10292215294E+01  0.10291164256E+01 0.  0.
     999903    2    3    3    0    0 -0.19184067638E-01 -0.10313869327E+00 -0.79960221403E-01  0.13895428831E+00  0.43692547802E-01 0.  0.
         14    1    1    2    0    0  0.12580909496E-01  0.81753843081E-03 -0.75757147961E-02  0.14708470604E-01  0.00000000000E+00 0. -1.
     999901    1    3    3    0    0  0.66031581422E-02  0.10232115483E+00  0.87535936199E-01  0.89026724109E+00  0.88000000000E+00 0. -1.
        -11    1    4    4    0    0  0.49650652927E-02 -0.69359634559E-03 -0.13658150533E-01  0.14558129902E-01  0.51100000000E-03 0.  1.
         11    1    4    4    0    0 -0.24149132931E-01 -0.10244509692E+00 -0.66302070870E-01  0.12439615841E+00  0.51100000000E-03 0. -1.
</event>
<event>
 8    1  0.2257781E+004  0.1043930E+01  0.7957747E-01            NaN
         13   -1    0    0    0    0  0.00000000000E+00  0.00000000000E+00  0.74505805969E-08  0.10566000000E+00  0.10566000000E+00 0.  1.
     999900   -1    0    0    0    0 -0.00000000000E+00 -0.00000000000E+00 -0.74505805969E-08  0.93827000000E+00  0.93827000000E+00 0.  1.
     999902    2    1    2    0    0  0.89649291154E-02 -0.24422371494E-03 -0.10242682470E-01  0.10303159579E+01  0.10302260096E+01 0.  0.
     999903    2    3    3    0    0 -0.11559652324E+00  0.62293371711E-01 -0.10792593930E-01  0.13934636878E+00  0.45364193647E-01 0.  0.
         14    1    1    2    0    0 -0.89649291154E-02  0.24422371494E-03  0.10242682470E-01  0.13614042142E-01  0.00000000000E+00 0.  1.
     999901    1    3    3    0    0  0.12456145235E+00 -0.62537595426E-01  0.54991146068E-03  0.89096958908E+00  0.88000000000E+00 0.  1.
        -11    1    4    4    0    0 -0.34189848173E-01  0.43584304272E-01 -0.41036640698E-02  0.55548523623E-01  0.51100000000E-03 0.  1.
         11    1    4    4    0    0 -0.81406675066E-01  0.18709067439E-01 -0.66889298607E-02  0.83797845160E-01  0.51100000000E-03 0. -1.
</event>
<event>
 8    1  0.2257781E+004  0.1043930E+01  0.7957747E-01            NaN
         13   -1    0    0    0    0  0.00000000000E+00  0.00000000000E+00  0.74505805969E-08  0.10566000000E+00  0.10566000000E+00 0. -1.
     999900   -1    0    0    0    0 -0.00000000000E+00 -0.00000000000E+00 -0.74505805969E-08  0.93827000000E+00  0.93827000000E+00 0.  1.
     999902    2    1    2    0    0 -0.10285586742E-01 -0.69694299271E-02  0.72666403358E-02  0.10295365880E+01  0.10294359697E+01 0.  0.
     999903    2    3    3    0    0  0.19914716805E-01  0.98957097587E-01  0.84203347019E-01  0.13933900069E+00  0.46217424800E-01 0.  0.
         14    1    1    2    0    0  0.10285586742E-01  0.69694299271E-02 -0.72666403358E-02  0.14393412032E-01  0.00000000000E+00 0.  1.
     999901    1    3    3    0    0 -0.30200303547E-01 -0.10592652751E+00 -0.76936706683E-01  0.89019758728E+00  0.88000000000E+00 0. -1.
        -11    1    4    4    0    0  0.17461601346E-01  0.87043300902E-01  0.47538154492E-01  0.10070541697E+00  0.51100000000E-03 0. -1.
         11    1    4    4    0    0  0.24531154592E-02  0.11913796685E-01  0.36665192526E-01  0.38633583718E-01  0.51100000000E-03 0.  1.
</event>
<event>
 8    1  0.2257781E+004  0.1043930E+01  0.7957747E-01            NaN
         13   -1    0    0    0    0  0.00000000000E+00  0.00000000000E+00  0.74505805969E-08  0.10566000000E+00  0.10566000000E+00 0.  1.
     999900   -1    0    0    0    0 -0.00000000000E+00 -0.00000000000E+00 -0.74505805969E-08  0.93827000000E+00  0.93827000000E+00 0. -1.
     999902    2    1    2    0    0  0.52694671069E-02 -0.51483250519E-02 -0.11899920165E-01  0.10299342637E+01  0.10298391656E+01 0.  0.
     999903    2    3    3    0    0 -0.10478399823E+00 -0.64636257054E-01 -0.49483492678E-01  0.14029214229E+00  0.45560258218E-01 0.  0.
         14    1    1    2    0    0 -0.52694671069E-02  0.51483250519E-02  0.11899920165E-01  0.13995736292E-01  0.00000000000E+00 0.  1.
     999901    1    3    3    0    0  0.11005346534E+00  0.59487932002E-01  0.37583572513E-01  0.88964212142E+00  0.88000000000E+00 0.  1.
        -11    1    4    4    0    0 -0.10335949415E+00 -0.54465053435E-01 -0.33953910441E-01  0.12166657812E+00  0.51100000000E-03 0. -1.
         11    1    4    4    0    0 -0.14245040763E-02 -0.10171203619E-01 -0.15529582236E-01  0.18625564162E-01  0.51100000000E-03 0.  1.
</event>
<event>
 8    1  0.2257781E+004  0.1043930E+01  0.7957747E-01            NaN
         13   -1    0    0    0    0  0.00000000000E+00  0.00000000000E+00  0.74505805969E-08  0.10566000000E+00  0.10566000000E+00 0.  1.
     999900   -1    0    0    0    0 -0.00000000000E+00 -0.00000000000E+00 -0.74505805969E-08  0.93827000000E+00  0.93827000000E+00 0.  1.
     999902    2    1    2    0    0 -0.19929365655E-03 -0.35239859514E-02  0.12886470273E-01  0.10305688881E+01  0.10304822724E+01 0.  0.
     999903    2    3    3    0    0  0.29168091364E-01  0.11998772857E+00 -0.46588648776E-01  0.13947131954E+00  0.45098938102E-01 0.  0.
         14    1    1    2    0    0  0.19929365655E-03  0.35239859514E-02 -0.12886470273E-01  0.13361111894E-01  0.00000000000E+00 0. -1.
     999901    1    3    3    0    0 -0.29367385020E-01 -0.12351171452E+00  0.59475119049E-01  0.89109756857E+00  0.88000000000E+00 0.  1.
        -11    1    4    4    0    0  0.39694744763E-01  0.10997929645E+00 -0.41630161215E-01  0.12411466413E+00  0.51100000000E-03 0.  1.
         11    1    4    4    0    0 -0.10526653399E-01  0.10008432116E-01 -0.49584875608E-02  0.15356655401E-01  0.51100000000E-03 0. -1.
</event>
<event>
 8    1  0.2257781E+004  0.1043930E+01  0.7957747E-01            NaN
         13   -1    0    0    0    0  0.00000000000E+00  0.00000000000E+00  0.74505805969E-08  0.10566000000E+00  0.10566000000E+00 0. -1.
     999900   -1    0    0    0    0 -0.00000000000E+00 -0.00000000000E+00 -0.74505805969E-08  0.93827000000E+00  0.93827000000E+00 0. -1.
     999902    2    1    2    0    0 -0.87576779659E-03 -0.83290332731E-02  0.10172983849E-01  0.10307531504E+01  0.10306689225E+01 0.  0.
     999903    2    3    3    0    0 -0.11917754093E+00 -0.60079344476E-01  0.53709103966E-02  0.14131711329E+00  0.46139635178E-01 0.  0.
         14    1    1    2    0    0  0.87576779659E-03  0.83290332731E-02 -0.10172983849E-01  0.13176849581E-01  0.00000000000E+00 0.  1.
     999901    1    3    3    0    0  0.11830177314E+00  0.51750311203E-01  0.48020734520E-02  0.88943603713E+00  0.88000000000E+00 0.  1.
        -11    1    4    4    0    0 -0.44317625128E-01 -0.47831899980E-01 -0.75475298437E-03  0.65213291021E-01  0.51100000000E-03 0.  1.
         11    1    4    4    0    0 -0.74859915804E-01 -0.12247444496E-01  0.61256633810E-02  0.76103822268E-01  0.51100000000E-03 0. -1.
</event>
<event>
 8    1  0.2257781E+004  0.1043930E+01  0.7957747E-01            NaN
         13   -1    0    0    0    0  0.00000000000E+00  0.00000000000E+00  0.74505805969E-08  0.10566000000E+00  0.10566000000E+00 0. -1.
     999900   -1    0    0    0    0 -0.00000000000E+00 -0.00000000000E+00 -0.74505805969E-08  0.93827000000E+00  0.93827000000E+00 0.  1.
     999902    2    1    2    0    0 -0.11026710758E-01 -0.53219935810E-02 -0.62590058632E-02  0.10301791047E+01  0.10300873268E+01 0.  0.
     999903    2    3    3    0    0 -0.13203207234E+00 -0.17449088534E-01  0.23392248800E-01  0.14132109535E+00  0.41079384993E-01 0.  0.
         14    1    1    2    0    0  0.11026710758E-01  0.53219935810E-02  0.62590058632E-02  0.13750895251E-01  0.00000000000E+00 0. -1.
     999901    1    3    3    0    0  0.12100536158E+00  0.12127094953E-01 -0.29651254663E-01  0.88885800940E+00  0.88000000000E+00 0.  1.
        -11    1    4    4    0    0 -0.97936746814E-01  0.37016099880E-02  0.25057309906E-01  0.10116045766E+00  0.51100000000E-03 0. -1.
         11    1    4    4    0    0 -0.34095325525E-01 -0.21150698521E-01 -0.16650611067E-02  0.40160637695E-01  0.51100000000E-03 0.  1.
</event>
<event>
 8    1  0.2257781E+004  0.1043930E+01  0.7957747E-01            NaN
         13   -1    0    0    0    0  0.00000000000E+00  0.00000000000E+00  0.74505805969E-08  0.10566000000E+00  0.10566000000E+00 0. -1.
     999900   -1    0    0    0    0 -0.00000000000E+00 -0.00000000000E+00 -0.74505805969E-08  0.93827000000E+00  0.93827000000E+00 0.  1.
     999902    2    1    2    0    0 -0.94940274456E-03  0.15263691812E-02 -0.16659510979E-01  0.10271737930E+01  0.10270371125E+01 0.  0.
     999903    2    3    3    0    0  0.89052964998E-01 -0.32934699785E-01 -0.90606282377E-01  0.13882919964E+00  0.45265033323E-01 0.  0.
         14    1    1    2    0    0  0.94940274456E-03 -0.15263691812E-02  0.16659510979E-01  0.16756207044E-01  0.00000000000E+00 0. -1.
     999901    1    3    3    0    0 -0.90002367743E-01  0.34461068966E-01  0.73946771398E-01  0.88834459332E+00  0.88000000000E+00 0. -1.
        -11    1    4    4    0    0  0.56774323927E-01 -0.38918145237E-01 -0.43561989214E-01  0.81460750742E-01  0.51100000000E-03 0.  1.
         11    1    4    4    0    0  0.32278641071E-01  0.59834454521E-02 -0.47044293163E-01  0.57368448898E-01  0.51100000000E-03 0. -1.
</event>
<event>
 8    1  0.2257781E+004  0.1043930E+01  0.7957747E-01            NaN
         13   -1    0    0    0    0  0.00000000000E+00  0.00000000000E+00  0.74505805969E-08  0.10566000000E+00  0.10566000000E+00 0.  1.
     999900   -1    0    0    0    0 -0.00000000000E+00 -0.00000000000E+00 -0.74505805969E-08  0.93827000000E+00  0.93827000000E+00 0.  1.
     999902    2    1    2    0    0  0.86704063503E-02 -0.41226081800E-02 -0.69473339962E-02  0.10320793758E+01  0.10320113375E+01 0.  0.
     999903    2    3    3    0    0  0.51910991826E-01 -0.81877173394E-01 -0.95508975665E-01  0.14317067124E+00  0.44466325198E-01 0.  0.
         14    1    1    2    0    0 -0.86704063503E-02  0.41226081800E-02  0.69473339962E-02  0.11850624209E-01  0.00000000000E+00 0. -1.
     999901    1    3    3    0    0 -0.43240585475E-01  0.77754565214E-01  0.88561641669E-01  0.88890870455E+00  0.88000000000E+00 0. -1.
        -11    1    4    4    0    0  0.38053445685E-02 -0.53261224170E-02 -0.32036577362E-01  0.32702471426E-01  0.51100000000E-03 0.  1.
         11    1    4    4    0    0  0.48105647257E-01 -0.76551050977E-01 -0.63472398303E-01  0.11046819982E+00  0.51100000000E-03 0. -1.
</event>
<event>
 8    1  0.2257781E+004  0.1043930E+01  0.7957747E-01            NaN
         13   -1    0    0    0    0  0.00000000000E+00  0.00000000000E+00  0.74505805969E-08  0.10566000000E+00  0.10566000000E+00 0.  1.
     999900   -1    0    0    0    0 -0.00000000000E+00 -0.00000000000E+00 -0.74505805969E-08  0.93827000000E+00  0.93827000000E+00 0. -1.
     999902    2    1    2    0    0 -0.14915076289E-01  0.60808709417E-02 -0.27391698968E-02  0.10275917154E+01  0.10274618212E+01 0.  0.
     999903    2    3    3    0    0 -0.64047154733E-01  0.11535563280E+00  0.11971075651E-02  0.13946423074E+00  0.45165014581E-01 0.  0.
         14    1    1    2    0    0  0.14915076289E-01 -0.60808709417E-02  0.27391698968E-02  0.16338284605E-01  0.00000000000E+00 0. -1.
     999901    1    3    3    0    0  0.49132078444E-01 -0.10927476186E+00 -0.39362774619E-02  0.88812748465E+00  0.88000000000E+00 0.  1.
        -11    1    4    4    0    0 -0.23382416413E-01  0.78169620294E-01 -0.12842152834E-01  0.82597874940E-01  0.51100000000E-03 0.  1.
         11    1    4    4    0    0 -0.40664738320E-01  0.37186012507E-01  0.14039260400E-01  0.56866355804E-01  0.51100000000E-03 0. -1.
</event>
<event>
 8    1  0.2257781E+004  0.1043930E+01  0.7957747E-01            NaN
         13   -1    0    0    0    0  0.00000000000E+00  0.00000000000E+00  0.74505805969E-08  0.10566000000E+00  0.10566000000E+00 0. -1.
     999900   -1    0    0    0    0 -0.00000000000E+00 -0.00000000000E+00 -0.74505805969E-08  0.93827000000E+00  0.93827000000E+00 0.  1.
     999902    2    1    2    0    0  0.33502158287E-02  0.10343289678E-01  0.60646596476E-02  0.10314805950E+01  0.10314054635E+01 0.  0.
     999903    2    3    3    0    0  0.50289980810E-01 -0.12293037492E+00 -0.21666515518E-02  0.14017090379E+00  0.44746269597E-01 0.  0.
         14    1    1    2    0    0 -0.33502158287E-02 -0.10343289678E-01 -0.60646596476E-02  0.12449404970E-01  0.00000000000E+00 0.  1.
     999901    1    3    3    0    0 -0.46939764981E-01  0.13327366460E+00  0.82313111994E-02  0.89130969124E+00  0.88000000000E+00 0.  1.
        -11    1    4    4    0    0  0.33217685465E-02 -0.74456387363E-02 -0.12651040446E-01  0.15059270495E-01  0.51100000000E-03 0.  1.
         11    1    4    4    0    0  0.46968212264E-01 -0.11548473618E+00  0.10484388894E-01  0.12511163330E+00  0.51100000000E-03 0. -1.
</event>
<event>
 8    1  0.2257781E+004  0.1043930E+01  0.7957747E-01            NaN
         13   -1    0    0    0    0  0.00000000000E+00  0.00000000000E+00  0.74505805969E-08  0.10566000000E+00  0.10566000000E+00 0. -1.
     999900   -1    0    0    0    0 -0.00000000000E+00 -0.00000000000E+00 -0.74505805969E-08  0.93827000000E+00  0.93827000000E+00 0. -1.
     999902    2    1    2    0    0  0.52414591925E-02 -0.24103026952E-02  0.12497676556E-01  0.10301650310E+01  0.10300730637E+01 0.  0.
     999903    2    3    3    0    0  0.11446696422E+00  0.27433715042E-01  0.63504646607E-01  0.14144539725E+00  0.46028965258E-01 0.  0.
         14    1    1    2    0    0 -0.52414591925E-02  0.24103026952E-02 -0.12497676556E-01  0.13764969046E-01  0.00000000000E+00 0.  1.
     999901    1    3    3    0    0 -0.10922550503E+00 -0.29844017737E-01 -0.51006970052E-01  0.88871963371E+00  0.88000000000E+00 0. -1.
        -11    1    4    4    0    0  0.77395346794E-01  0.40014660858E-01  0.46493277565E-01  0.98757778270E-01  0.51100000000E-03 0. -1.
         11    1    4    4    0    0  0.37071617426E-01 -0.12580945817E-01  0.17011369042E-01  0.42687618977E-01  0.51100000000E-03 0.  1.
</event>
<event>
 8    1  0.2257781E+004  0.1043930E+01  0.7957747E-01            NaN
         13   -1    0    0    0    0  0.00000000000E+00  0.00000000000E+00  0.74505805969E-08  0.10566000000E+00  0.10566000000E+00 0.  1.
     999900   -1    0    0    0    0 -0.00000000000E+00 -0.00000000000E+00 -0.74505805969E-08  0.93827000000E+00  0.93827000000E+00 0.  1.
     999902    2    1    2    0    0  0.11526879525E-01 -0.31509379504E-02  0.66668789958E-02  0.10302462638E+01  0.10301553860E+01 0.  0.
     999903    2    3    3    0    0 -0.24027603188E-01 -0.55214128004E-01 -0.11725795056E+00  0.13932984773E+00  0.45138164031E-01 0.  0.
         14    1    1    2    0    0 -0.11526879525E-01  0.31509379504E-02 -0.66668789958E-02  0.13683736226E-01  0.00000000000E+00 0. -1.
     999901    1    3    3    0    0  0.35554482713E-01  0.52063190054E-01  0.12392482956E+00  0.89091641605E+00  0.88000000000E+00 0. -1.
        -11    1    4    4    0    0 -0.24773402481E-01 -0.54705445969E-01 -0.70715368151E-01  0.92775706426E-01  0.51100000000E-03 0. -1.
         11    1    4    4    0    0  0.74579929345E-03 -0.50868203490E-03 -0.46542582410E-01  0.46554141302E-01  0.51100000000E-03 0.  1.
</event>
<event>
 8    1  0.2257781E+004  0.1043930E+01  0.7957747E-01            NaN
         13   -1    0    0    0    0  0.00000000000E+00  0.00000000000E+00  0.74505805969E-08  0.10566000000E+00  0.10566000000E+00 0.  1.
     999900   -1    0    0    0    0 -0.00000000000E+00 -0.00000000000E+00 -0.74505805969E-08  0.93827000000E+00  0.93827000000E+00 0. -1.
     999902    2    1    2    0    0  0.11069830079E-01  0.69609666397E-02 -0.70004430474E-02  0.10290975222E+01  0.10289906257E+01 0.  0.
     999903    2    3    3    0    0 -0.62797822461E-01  0.96391594350E-01 -0.64987252386E-01  0.13959387561E+00  0.45035554476E-01 0.  0.
         14    1    1    2    0    0 -0.11069830079E-01 -0.69609666397E-02  0.70004430474E-02  0.14832477790E-01  0.00000000000E+00 0.  1.
     999901    1    3    3    0    0  0.73867652540E-01 -0.89430627710E-01  0.57986809338E-01  0.88950364660E+00  0.88000000000E+00 0.  1.
        -11    1    4    4    0    0 -0.44542653297E-01  0.28632251957E-01 -0.33624392390E-01  0.62727304258E-01  0.51100000000E-03 0.  1.
         11    1    4    4    0    0 -0.18255169164E-01  0.67759342392E-01 -0.31362859995E-01  0.76866571348E-01  0.51100000000E-03 0. -1.
</event>
<event>
 8    1  0.2257781E+004  0.1043930E+01  0.7957747E-01            NaN
         13   -1    0    0    0    0  0.00000000000E+00  0.00000000000E+00  0.74505805969E-08  0.10566000000E+00  0.10566000000E+00 0.  1.
     999900   -1    0    0    0    0 -0.00000000000E+00 -0.00000000000E+00 -0.74505805969E-08  0.93827000000E+00  0.93827000000E+00 0.  1.
     999902    2    1    2    0    0  0.55682424638E-02 -0.99986417084E-02 -0.73780663986E-02  0.10303133182E+01  0.10302233348E+01 0.  0.
     999903    2    3    3    0    0 -0.56640595388E-01 -0.10145903714E+00 -0.65414236851E-01  0.14149210976E+00  0.47317031594E-01 0.  0.
         14    1    1    2    0    0 -0.55682424638E-02  0.99986417084E-02  0.73780663986E-02  0.13616681825E-01  0.00000000000E+00 0.  1.
     999901    1    3    3    0    0  0.62208837851E-01  0.91460395434E-01  0.58036170453E-01  0.88882120841E+00  0.88000000000E+00 0. -1.
        -11    1    4    4    0    0 -0.32682280588E-01 -0.25924131103E-01 -0.53587325396E-02  0.42061492761E-01  0.51100000000E-03 0. -1.
         11    1    4    4    0    0 -0.23958314800E-01 -0.75534906040E-01 -0.60055504312E-01  0.99430617003E-01  0.51100000000E-03 0.  1.
</event>
<event>
 8    1  0.2257781E+004  0.1043930E+01  0.7957747E-01            NaN
         13   -1    0    0    0    0  0.00000000000E+00  0.00000000000E+00  0.74505805969E-08  0.10566000000E+00  0.10566000000E+00 0.  1.
     999900   -1    0    0    0    0 -0.00000000000E+00 -0.00000000000E+00 -0.74505805969E-08  0.93827000000E+00  0.93827000000E+00 0.  1.
     999902    2    1    2    0    0  0.81779200228E-02 -0.75078115993E-02  0.88833921233E-02  0.10297116926E+01  0.10296135243E+01 0.  0.
     999903    2    3    3    0    0  0.18639855171E-01 -0.24366786254E-01  0.13026550322E+00  0.14115820851E+00  0.44892694585E-01 0.  0.
         14    1    1    2    0    0 -0.81779200228E-02  0.75078115993E-02 -0.88833921233E-02  0.14218307442E-01  0.00000000000E+00 0. -1.
     999901    1    3    3    0    0 -0.10461935148E-01  0.16858974655E-01 -0.12138211110E+00  0.88855348405E+00  0.88000000000E+00 0.  1.
        -11    1    4    4    0    0  0.22031883459E-01  0.44400736157E-02  0.80238646903E-01  0.83328384841E-01  0.51100000000E-03 0. -1.
         11    1    4    4    0    0 -0.33920282878E-02 -0.28806859870E-01  0.50026856321E-01  0.57829823672E-01  0.51100000000E-03 0.  1.
</event>
<event>
 8    1  0.2257781E+004  0.1043930E+01  0.7957747E-01            NaN
         13   -1    0    0    0    0  0.00000000000E+00  0.00000000000E+00  0.74505805969E-08  0.10566000000E+00  0.10566000000E+00 0.  1.
     999900   -1    0    0    0    0 -0.00000000000E+00 -0.00000000000E+00 -0.74505805969E-08  0.93827000000E+00  0.93827000000E+00 0. -1.
     999902    2    1    2    0    0 -0.88151674595E-02  0.39833183535E-02  0.97111868796E-02  0.10302230254E+01  0.10301318367E+01 0.  0.
     999903    2    3    3    0    0 -0.81568998222E-01  0.94076164708E-01  0.50720478309E-01  0.14168962543E+00  0.44716404121E-01 0.  0.
         14    1    1    2    0    0  0.88151674595E-02 -0.39833183535E-02 -0.97111868796E-02  0.13706974614E-01  0.00000000000E+00 0. -1.
     999901    1    3    3    0    0  0.72753830762E-01 -0.90092846355E-01 -0.41009291429E-01  0.88853339996E+00  0.88000000000E+00 0. -1.
        -11    1    4    4    0    0 -0.26058160045E-01  0.59452862706E-01  0.13114109653E-01  0.66226215216E-01  0.51100000000E-03 0.  1.
         11    1    4    4    0    0 -0.55510838176E-01  0.34623302002E-01  0.37606368656E-01  0.75463410214E-01  0.51100000000E-03 0. -1.
</event>
<event>
 8    1  0.2257781E+004  0.1043930E+01  0.7957747E-01            NaN
         13   -1    0    0    0    0  0.00000000000E+00  0.00000000000E+00  0.74505805969E-08  0.10566000000E+00  0.10566000000E+00 0.  1.
     999900   -1    0    0    0    0 -0.00000000000E+00 -0.00000000000E+00 -0.74505805969E-08  0.93827000000E+00  0.93827000000E+00 0.  1.
     999902    2    1    2    0    0  0.11391976858E-01  0.41989889893E-02 -0.41799318957E-02  0.10310894207E+01  0.10310094631E+01 0.  0.
     999903    2    3    3    0    0 -0.63312691590E-01  0.10290213749E+00  0.55692470493E-01  0.14041113786E+00  0.44903112926E-01 0.  0.
         14    1    1    2    0    0 -0.11391976858E-01 -0.41989889893E-02  0.41799318957E-02  0.12840579267E-01  0.00000000000E+00 0.  1.
     999901    1    3    3    0    0  0.74704668447E-01 -0.98703148497E-01 -0.59872402388E-01  0.89067828287E+00  0.88000000000E+00 0.  1.
        -11    1    4    4    0    0 -0.64718510467E-01  0.10456868588E+00  0.47357305195E-01  0.13178038982E+00  0.51100000000E-03 0.  1.
         11    1    4    4    0    0  0.14058188771E-02 -0.16665483955E-02  0.83351652971E-02  0.86307480440E-02  0.51100000000E-03 0. -1.
</event>
<event>
 8    1  0.2257781E+004  0.1043930E+01  0.7957747E-01            NaN
         13   -1    0    0    0    0  0.00000000000E+00  0.00000000000E+00  0.74505805969E-08  0.10566000000E+00  0.10566000000E+00 0.  1.
     999900   -1    0    0    0    0 -0.00000000000E+00 -0.00000000000E+00 -0.74505805969E-08  0.93827000000E+00  0.93827000000E+00 0.  1.
     999902    2    1    2    0    0  0.93860876199E-02 -0.47384827738E-02 -0.94784890338E-02  0.10297739549E+01  0.10296766505E+01 0.  0.
     999903    2    3    3    0    0  0.10286383140E+00  0.71516193520E-01  0.43402076254E-01  0.13997104498E+00  0.44862227586E-01 0.  0.
         14    1    1    2    0    0 -0.93860876199E-02  0.47384827738E-02  0.94784890338E-02  0.14156045146E-01  0.00000000000E+00 0.  1.
     999901    1    3    3    0    0 -0.93477743777E-01 -0.76254676294E-01 -0.52880565288E-01  0.88980290988E+00  0.88000000000E+00 0.  1.
        -11    1    4    4    0    0  0.65163030090E-01  0.53693996585E-01  0.71950758312E-02  0.84742527677E-01  0.51100000000E-03 0. -1.
         11    1    4    4    0    0  0.37700801306E-01  0.17822196935E-01  0.36207000423E-01  0.55228517302E-01  0.51100000000E-03 0.  1.
</event>
<event>
 8    1  0.2257781E+004  0.1043930E+01  0.7957747E-01            NaN
         13   -1    0    0    0    0  0.00000000000E+00  0.00000000000E+00  0.74505805969E-08  0.10566000000E+00  0.10566000000E+00 0.  1.
     999900   -1    0    0    0    0 -0.00000000000E+00 -0.00000000000E+00 -0.74505805969E-08  0.93827000000E+00  0.93827000000E+00 0. -1.
     999902    2    1    2    0    0 -0.86413269504E-02  0.56215186637E-02  0.13452666324E-01  0.10269816008E+01  0.10268417406E+01 0.  0.
     999903    2    3    3    0    0  0.84008047756E-01 -0.89489937622E-01  0.43274480202E-01  0.13652136233E+00  0.41226213892E-01 0.  0.
         14    1    1    2    0    0  0.86413269504E-02 -0.56215186637E-02 -0.13452666324E-01  0.16948399181E-01  0.00000000000E+00 0. -1.
     999901    1    3    3    0    0 -0.92649374706E-01  0.95111456286E-01 -0.29821813878E-01  0.89046023849E+00  0.88000000000E+00 0. -1.
        -11    1    4    4    0    0  0.32857232333E-01 -0.51768931586E-01  0.39318252612E-01  0.72840964461E-01  0.51100000000E-03 0. -1.
         11    1    4    4    0    0  0.51150815423E-01 -0.37721006036E-01  0.39562275899E-02  0.63680397867E-01  0.51100000000E-03 0.  1.
</event>
<event>
 8    1  0.2257781E+004  0.1043930E+01  0.7957747E-01            NaN
         13   -1    0    0    0    0  0.00000000000E+00  0.00000000000E+00  0.74505805969E-08  0.10566000000E+00  0.10566000000E+00 0.  1.
     999900   -1    0    0    0    0 -0.00000000000E+00 -0.00000000000E+00 -0.74505805969E-08  0.93827000000E+00  0.93827000000E+00 0. -1.
     999902    2    1    2    0    0 -0.23767643522E-02 -0.12462016439E-01  0.39368202293E-02  0.10306465736E+01  0.10305609688E+01 0.  0.
     999903    2    3    3    0    0  0.69710151803E-01 -0.11494278079E+00 -0.64049034092E-03  0.14175975164E+00  0.44989652552E-01 0.  0.
         14    1    1    2    0    0  0.23767643522E-02  0.12462016439E-01 -0.39368202293E-02  0.13283426366E-01  0.00000000000E+00 0. -1.
     999901    1    3    3    0    0 -0.72086916155E-01  0.10248076435E+00  0.45773105702E-02  0.88888682199E+00  0.88000000000E+00 0. -1.
        -11    1    4    4    0    0  0.24123362025E-01 -0.78893614592E-01  0.84515719068E-02  0.82932678767E-01  0.51100000000E-03 0. -1.
         11    1    4    4    0    0  0.45586789777E-01 -0.36049166199E-01 -0.90920622477E-02  0.58827072873E-01  0.51100000000E-03 0.  1.
</event>
<event>
 8    1  0.2257781E+004  0.1043930E+01  0.7957747E-01            NaN
         13   -1    0    0    0    0  0.00000000000E+00  0.00000000000E+00  0.74505805969E-08  0.10566000000E+00  0.10566000000E+00 0. -1.
     999900   -1    0    0    0    0 -0.00000000000E+00 -0.00000000000E+00 -0.74505805969E-08  0.93827000000E+00  0.93827000000E+00 0.  1.
     999902    2    1    2    0    0  0.13645594051E-01  0.22052199283E-02 -0.40197409109E-04  0.10301073068E+01  0.10300145614E+01 0.  0.
     999903    2    3    3    0    0  0.12478257120E+00  0.48616316009E-01  0.23072193296E-01  0.14160317053E+00  0.39810746598E-01 0.  0.
         14    1    1    2    0    0 -0.13645594051E-01 -0.22052199283E-02  0.40197409109E-04  0.13822693217E-01  0.00000000000E+00 0.  1.
     999901    1    3    3    0    0 -0.11113697715E+00 -0.46411096081E-01 -0.23112390705E-01  0.88850413625E+00  0.88000000000E+00 0.  1.
        -11    1    4    4    0    0  0.63454166349E-01  0.36374556196E-02  0.79133945132E-02  0.64051114309E-01  0.51100000000E-03 0.  1.
         11    1    4    4    0    0  0.61328404848E-01  0.44978860389E-01  0.15158798782E-01  0.77552056224E-01  0.51100000000E-03 0. -1.
</event>
<event>
 8    1  0.2257781E+004  0.1043930E+01  0.7957747E-01            NaN
         13   -1    0    0    0    0  0.00000000000E+00  0.00000000000E+00  0.74505805969E-08  0.10566000000E+00  0.10566000000E+00 0.  1.
     999900   -1    0    0    0    0 -0.00000000000E+00 -0.00000000000E+00 -0.74505805969E-08  0.93827000000E+00  0.93827000000E+00 0.  1.
     999902    2    1    2    0    0  0.70494904994E-03  0.89857323409E-04 -0.97796580591E-02  0.10341245556E+01  0.10340780676E+01 0.  0.
     999903    2    3    3    0    0 -0.90651787732E-01  0.50160094302E-01 -0.89937449320E-01  0.14436146723E+00  0.44918890799E-01 0.  0.
         14    1    1    2    0    0 -0.70494904994E-03 -0.89857323409E-04  0.97796580591E-02  0.98054443681E-02  0.00000000000E+00 0.  1.
     999901    1    3    3    0    0  0.91356736782E-01 -0.50070236979E-01  0.80157791261E-01  0.88976308840E+00  0.88000000000E+00 0. -1.
        -11    1    4    4    0    0 -0.17323717847E-01  0.22788434134E-01 -0.53676230017E-02  0.29128962014E-01  0.51100000000E-03 0.  1.
         11    1    4    4    0    0 -0.73328069885E-01  0.27371660168E-01 -0.84569826318E-01  0.11523250521E+00  0.51100000000E-03 0. -1.
</event>
<event>
 8    1  0.2257781E+004  0.1043930E+01  0.7957747E-01            NaN
         13   -1    0    0    0    0  0.00000000000E+00  0.00000000000E+00  0.74505805969E-08  0.10566000000E+00  0.10566000000E+00 0.  1.
     999900   -1    0    0    0    0 -0.00000000000E+00 -0.00000000000E+00 -0.74505805969E-08  0.93827000000E+00  0.93827000000E+00 0. -1.
     999902    2    1    2    0    0 -0.33454791081E-02  0.15885227453E-02 -0.14127814552E-01  0.10293248372E+01  0.10292212152E+01 0.  0.
     999903    2    3    3    0    0 -0.69220128073E-02  0.12201402490E+00 -0.48969710938E-01  0.14043280167E+00  0.48867194128E-01 0.  0.
         14    1    1    2    0    0  0.33454791081E-02 -0.15885227453E-02  0.14127814552E-01  0.14605162752E-01  0.00000000000E+00 0.  1.
     999901    1    3    3    0    0  0.35765336992E-02 -0.12042550216E+00  0.34841896386E-01  0.88889203557E+00  0.88000000000E+00 0.  1.
        -11    1    4    4    0    0 -0.15833824660E-01  0.29896813638E-01  0.35499995928E-02  0.34020480408E-01  0.51100000000E-03 0. -1.
         11    1    4    4    0    0  0.89118118525E-02  0.92117211267E-01 -0.52519710531E-01  0.10641232127E+00  0.51100000000E-03 0.  1.
</event>
<event>
 8    1  0.2257781E+004  0.1043930E+01  0.7957747E-01            NaN
         13   -1    0    0    0    0  0.00000000000E+00  0.00000000000E+00  0.74505805969E-08  0.10566000000E+00  0.10566000000E+00 0. -1.
     999900   -1    0    0    0    0 -0.00000000000E+00 -0.00000000000E+00 -0.74505805969E-08  0.93827000000E+00  0.93827000000E+00 0. -1.
     999902    2    1    2    0    0  0.96528094075E-02  0.90049348419E-02  0.45482572067E-02  0.10299674707E+01  0.10298728264E+01 0.  0.
     999903    2    3    3    0    0 -0.36061760787E-01 -0.97276353455E-01  0.81006156861E-01  0.13910758015E+00  0.45008686628E-01 0.  0.
         14    1    1    2    0    0 -0.96528094075E-02 -0.90049348419E-02 -0.45482572067E-02  0.13962529305E-01  0.00000000000E+00 0.  1.
     999901    1    3    3    0    0  0.45714570195E-01  0.10628128830E+00 -0.76457899655E-01  0.89085989055E+00  0.88000000000E+00 0. -1.
        -11    1    4    4    0    0  0.98636298624E-02 -0.16158320972E-01  0.73974354548E-02  0.20331396976E-01  0.51100000000E-03 0. -1.
         11    1    4    4    0    0 -0.45925390650E-01 -0.81118032483E-01  0.73608721407E-01  0.11877618317E+00  0.51100000000E-03 0.  1.
</event>
<event>
 8    1  0.2257781E+004  0.1043930E+01  0.7957747E-01            NaN
         13   -1    0    0    0    0  0.00000000000E+00  0.00000000000E+00  0.74505805969E-08  0.10566000000E+00  0.10566000000E+00 0. -1.
     999900   -1    0    0    0    0 -0.00000000000E+00 -0.00000000000E+00 -0.74505805969E-08  0.93827000000E+00  0.93827000000E+00 0. -1.
     999902    2    1    2    0    0 -0.14504993543E-02 -0.28653173933E-02  0.13180519615E-01  0.10303638624E+01  0.10302745502E+01 0.  0.
     999903    2    3    3    0    0  0.48008975909E-01  0.10170318499E+00  0.72132640616E-01  0.14083805392E+00  0.44540318638E-01 0.  0.
         14    1    1    2    0    0  0.14504993543E-02  0.28653173933E-02 -0.13180519615E-01  0.13566137603E-01  0.00000000000E+00 0.  1.
     999901    1    3    3    0    0 -0.49459475263E-01 -0.10456850238E+00 -0.58952121001E-01  0.88952580848E+00  0.88000000000E+00 0.  1.
        -11    1    4    4    0    0  0.27605956453E-01  0.14936343670E-01  0.24167625077E-01  0.39617148014E-01  0.51100000000E-03 0. -1.
         11    1    4    4    0    0  0.20403019456E-01  0.86766841317E-01  0.47965015539E-01  0.10122090590E+00  0.51100000000E-03 0.  1.
</event>
<event>
 8    1  0.2257781E+004  0.1043930E+01  0.7957747E-01            NaN
         13   -1    0    0    0    0  0.00000000000E+00  0.00000000000E+00  0.74505805969E-08  0.10566000000E+00  0.10566000000E+00 0. -1.
     999900   -1    0    0    0    0 -0.00000000000E+00 -0.00000000000E+00 -0.74505805969E-08  0.93827000000E+00  0.93827000000E+00 0. -1.
     999902    2    1    2    0    0 -0.30399221675E-02 -0.10426149514E-01  0.85683783444E-02  0.10300966046E+01  0.10300037146E+01 0.  0.
     999903    2    3    3    0    0  0.15173780506E-01 -0.12967839419E+00  0.31642760589E-01  0.14156677172E+00  0.44644787196E-01 0.  0.
         14    1    1    2    0    0  0.30399221675E-02  0.10426149514E-01 -0.85683783444E-02  0.13833395387E-01  0.00000000000E+00 0.  1.
     999901    1    3    3    0    0 -0.18213702673E-01  0.11925224467E+00 -0.23074382245E-01  0.88852983289E+00  0.88000000000E+00 0.  1.
        -11    1    4    4    0    0 -0.55728558265E-02 -0.53901448023E-01  0.32125618198E-01  0.62997930813E-01  0.51100000000E-03 0.  1.
         11    1    4    4    0    0  0.20746636332E-01 -0.75776946164E-01 -0.48285760948E-03  0.78568840907E-01  0.51100000000E-03 0. -1.
</event>
<event>
 8    1  0.2257781E+004  0.1043930E+01  0.7957747E-01            NaN
         13   -1    0    0    0    0  0.00000000000E+00  0.00000000000E+00  0.74505805969E-08  0.10566000000E+00  0.10566000000E+00 0.  1.
     999900   -1    0    0    0    0 -0.00000000000E+00 -0.00000000000E+00 -0.74505805969E-08  0.93827000000E+00  0.93827000000E+00 0.  1.
     999902    2    1    2    0    0 -0.66646208926E-02 -0.13678526733E-01 -0.56645585264E-02  0.10276940372E+01  0.10275657777E+01 0.  0.
     999903    2    3    3    0    0 -0.70420493549E-01 -0.23148366505E-01 -0.10789480554E+00  0.13943421452E+00  0.48017895944E-01 0.  0.
         14    1    1    2    0    0  0.66646208926E-02  0.13678526733E-01  0.56645585264E-02  0.16235962815E-01  0.00000000000E+00 0.  1.
     999901    1    3    3    0    0  0.63755872657E-01  0.94698397722E-02  0.10223024702E+00  0.88825982267E+00  0.88000000000E+00 0. -1.
        -11    1    4    4    0    0  0.54309494812E-02 -0.98831185443E-02 -0.12644880067E-01  0.16950674244E-01  0.51100000000E-03 0. -1.
         11    1    4    4    0    0 -0.75851443031E-01 -0.13265247961E-01 -0.95249925476E-01  0.12248354027E+00  0.51100000000E-03 0.  1.
</event>
<event>
 8    1  0.2257781E+004  0.1043930E+01  0.7957747E-01            NaN
         13   -1    0    0    0    0  0.00000000000E+00  0.00000000000E+00  0.74505805969E-08  0.10566000000E+00  0.10566000000E+00 0. -1.
     999900   -1    0    0    0    0 -0.00000000000E+00 -0.00000000000E+00 -0.74505805969E-08  0.93827000000E+00  0.93827000000E+00 0.  1.
     999902    2    1    2    0    0  0.43203983378E-02 -0.12907039419E-01 -0.81835523596E-03  0.10302944870E+01  0.10302042530E+01 0.  0.
     999903    2    3    3    0    0  0.10176512413E+00  0.72933570283E-01 -0.43294590052E-01  0.13975065579E+00  0.44501439326E-01 0.  0.
         14    1    1    2    0    0 -0.43203983378E-02  0.12907039419E-01  0.81835523596E-03  0.13635512959E-01  0.00000000000E+00 0. -1.
     999901    1    3    3    0    0 -0.97444725792E-01 -0.85840609702E-01  0.42476234816E-01  0.89054383125E+00  0.88000000000E+00 0. -1.
        -11    1    4    4    0    0  0.31429883909E-01  0.49486362481E-01 -0.16336890745E-01  0.60859615463E-01  0.51100000000E-03 0. -1.
         11    1    4    4    0    0  0.70335240221E-01  0.23447207802E-01 -0.26957699307E-01  0.78891040325E-01  0.51100000000E-03 0.  1.
</event>
<event>
 8    1  0.2257781E+004  0.1043930E+01  0.7957747E-01            NaN
         13   -1    0    0    0    0  0.00000000000E+00  0.00000000000E+00  0.74505805969E-08  0.10566000000E+00  0.10566000000E+00 0. -1.
     999900   -1    0    0    0    0 -0.00000000000E+00 -0.00000000000E+00 -0.74505805969E-08  0.93827000000E+00  0.93827000000E+00 0. -1.
     999902    2    1    2    0    0  0.99073073998E-02 -0.57299412724E-02  0.66823516902E-02  0.10306770460E+01  0.10305918359E+01 0.  0.
     999903    2    3    3    0    0  0.13429394293E+00  0.66544890388E-02  0.11116775359E-01  0.14183224885E+00  0.43745385899E-01 0.  0.
         14    1    1    2    0    0 -0.99073073998E-02  0.57299412724E-02 -0.66823516902E-02  0.13252954048E-01  0.00000000000E+00 0. -1.
     999901    1    3    3    0    0 -0.12438663553E+00 -0.12384430311E-01 -0.44344236687E-02  0.88884479710E+00  0.88000000000E+00 0.  1.
        -11    1    4    4    0    0  0.10473750680E+00  0.14409321749E-01  0.24407770860E-01  0.10850610252E+00  0.51100000000E-03 0. -1.
         11    1    4    4    0    0  0.29556436135E-01 -0.77548327098E-02 -0.13290995501E-01  0.33326146339E-01  0.51100000000E-03 0.  1.
</event>
<event>
 8    1  0.2257781E+004  0.1043930E+01  0.7957747E-01            NaN
         13   -1    0    0    0    0  0.00000000000E+00  0.00000000000E+00  0.74505805969E-08  0.10566000000E+00  0.10566000000E+00 0. -1.
     999900   -1    0    0    0    0 -0.00000000000E+00 -0.00000000000E+00 -0.74505805969E-08  0.93827000000E+00  0.93827000000E+00 0. -1.
     999902    2    1    2    0    0  0.77499219485E-02 -0.51568813827E-02 -0.10838145827E-01  0.10296429387E+01  0.10295438121E+01 0.  0.
     999903    2    3    3    0    0  0.90550077073E-01  0.51175056311E-01  0.77546080916E-01  0.13956377119E+00  0.51443646023E-01 0.  0.
         14    1    1    2    0    0 -0.77499219485E-02  0.51568813827E-02  0.10838145827E-01  0.14287061306E-01  0.00000000000E+00 0. -1.
     999901    1    3    3    0    0 -0.82800155125E-01 -0.56331937694E-01 -0.88384226742E-01  0.89007916751E+00  0.88000000000E+00 0. -1.
        -11    1    4    4    0    0  0.46140948558E-01 -0.21370987456E-02  0.37112965085E-01  0.59255275067E-01  0.51100000000E-03 0. -1.
         11    1    4    4    0    0  0.44409128516E-01  0.53312155057E-01  0.40433115830E-01  0.80308496120E-01  0.51100000000E-03 0.  1.
</event>
<event>
 8    1  0.2257781E+004  0.1043930E+01  0.7957747E-01            NaN
         13   -1    0    0    0    0  0.00000000000E+00  0.00000000000E+00  0.74505805969E-08  0.10566000000E+00  0.10566000000E+00 0. -1.
     999900   -1    0    0    0    0 -0.00000000000E+00 -0.00000000000E+00 -0.74505805969E-08  0.93827000000E+00  0.93827000000E+00 0.  1.
     999902    2    1    2    0    0 -0.79044776153E-02  0.72619991501E-02  0.95048929000E-02  0.10295926227E+01  0.10294927918E+01 0.  0.
     999903    2    3    3    0    0  0.59283948904E-01 -0.70329861335E-01  0.94971027163E-01  0.13951440056E+00  0.44540947115E-01 0.  0.
         14    1    1    2    0    0  0.79044776153E-02 -0.72619991501E-02 -0.95048929000E-02  0.14337377273E-01  0.00000000000E+00 0. -1.
     999901    1    3    3    0    0 -0.67188426520E-01  0.77591860485E-01 -0.85466134263E-01  0.89007822217E+00  0.88000000000E+00 0.  1.
        -11    1    4    4    0    0  0.56317747484E-01 -0.66208162691E-01  0.99898304880E-01  0.13242032294E+00  0.51100000000E-03 0. -1.
         11    1    4    4    0    0  0.29662014201E-02 -0.41216986439E-02 -0.49272777165E-02  0.70940776195E-02  0.51100000000E-03 0.  1.
</event>
<event>
 8    1  0.2257781E+004  0.1043930E+01  0.7957747E-01            NaN
         13   -1    0    0    0    0  0.00000000000E+00  0.00000000000E+00  0.74505805969E-08  0.10566000000E+00  0.10566000000E+00 0.  1.
     999900   -1    0    0    0    0 -0.00000000000E+00 -0.00000000000E+00 -0.74505805969E-08  0.93827000000E+00  0.93827000000E+00 0. -1.
     999902    2    1    2    0    0  0.13967633231E-01 -0.89528538991E-03 -0.13019619199E-02  0.10298732785E+01  0.10297773441E+01 0.  0.
     999903    2    3    3    0    0  0.24366264715E-01 -0.45872474255E-02  0.13112336696E+00  0.13989674520E+00  0.41988144275E-01 0.  0.
         14    1    1    2    0    0 -0.13967633231E-01  0.89528538991E-03  0.13019619199E-02  0.14056721483E-01  0.00000000000E+00 0.  1.
     999901    1    3    3    0    0 -0.10398631484E-01  0.36919620356E-02 -0.13242532888E+00  0.88997653331E+00  0.88000000000E+00 0. -1.
        -11    1    4    4    0    0 -0.93563071500E-02 -0.10964428586E-01  0.37211711246E-01  0.39909043493E-01  0.51100000000E-03 0.  1.
         11    1    4    4    0    0  0.33722571865E-01  0.63771811600E-02  0.93911655717E-01  0.99987701710E-01  0.51100000000E-03 0. -1.
</event>
<event>
 8    1  0.2257781E+004  0.1043930E+01  0.7957747E-01            NaN
         13   -1    0    0    0    0  0.00000000000E+00  0.00000000000E+00  0.74505805969E-08  0.10566000000E+00  0.10566000000E+00 0. -1.
     999900   -1    0    0    0    0 -0.00000000000E+00 -0.00000000000E+00 -0.74505805969E-08  0.93827000000E+00  0.93827000000E+00 0. -1.
     999902    2    1    2    0    0  0.49027941381E-02  0.11260563378E-01 -0.82134707052E-02  0.10291550625E+01  0.10290489997E+01 0.  0.
     999903    2    3    3    0    0 -0.16028621742E-01  0.12052578990E+00 -0.55015569349E-01  0.14091666523E+00  0.45248325085E-01 0.  0.
         14    1    1    2    0    0 -0.49027941381E-02 -0.11260563378E-01  0.82134707052E-02  0.14774937529E-01  0.00000000000E+00 0. -1.
     999901    1    3    3    0    0  0.20931415880E-01 -0.10926522652E+00  0.46802098644E-01  0.88823839724E+00  0.88000000000E+00 0.  1.
        -11    1    4    4    0    0 -0.89577057602E-02  0.54511592308E-01 -0.49699279961E-01  0.74310387821E-01  0.51100000000E-03 0. -1.
         11    1    4    4    0    0 -0.70709159818E-02  0.66014197590E-01 -0.53162893873E-02  0.66606277408E-01  0.51100000000E-03 0.  1.
</event>
<event>
 8    1  0.2257781E+004  0.1043930E+01  0.7957747E-01            NaN
         13   -1    0    0    0    0  0.00000000000E+00  0.00000000000E+00  0.74505805969E-08  0.10566000000E+00  0.10566000000E+00 0. -1.
     999900   -1    0    0    0    0 -0.00000000000E+00 -0.00000000000E+00 -0.74505805969E-08  0.93827000000E+00  0.93827000000E+00 0. -1.
     999902    2    1    2    0    0  0.72434850641E-02  0.75239061925E-02 -0.77054410719E-02  0.10309511302E+01  0.10308694300E+01 0.  0.
     999903    2    3    3    0    0 -0.25528795633E-01  0.68605559116E-01  0.11078191291E+00  0.14030852857E+00  0.45336616711E-01 0.  0.
         14    1    1    2    0    0 -0.72434850641E-02 -0.75239061925E-02  0.77054410719E-02  0.12978869842E-01  0.00000000000E+00 0. -1.
     999901    1    3    3    0    0  0.32772280697E-01 -0.61081652924E-01 -0.11848735398E+00  0.89064260159E+00  0.88000000000E+00 0. -1.
        -11    1    4    4    0    0 -0.27057488262E-01  0.16192611443E-01  0.27236749928E-01  0.41670253227E-01  0.51100000000E-03 0.  1.
         11    1    4    4    0    0  0.15286926289E-02  0.52412947673E-01  0.83545162979E-01  0.98638275345E-01  0.51100000000E-03 0. -1.
</event>
<event>
 8    1  0.2257781E+004  0.1043930E+01  0.7957747E-01            NaN
         13   -1    0    0    0    0  0.00000000000E+00  0.00000000000E+00  0.74505805969E-08  0.10566000000E+00  0.10566000000E+00 0.  1.
     999900   -1    0    0    0    0 -0.00000000000E+00 -0.00000000000E+00 -0.74505805969E-08  0.93827000000E+00  0.93827000000E+00 0. -1.
     999902    2    1    2    0    0  0.69298496645E-02  0.10797883206E-01  0.46884910736E-02  0.10302698738E+01  0.10301793115E+01 0.  0.
     999903    2    3    3    0    0 -0.63586978727E-01  0.11680615997E+00  0.14628857911E-01  0.14105157178E+00  0.44660492030E-01 0.  0.
         14    1    1    2    0    0 -0.69298496645E-02 -0.10797883206E-01 -0.46884910736E-02  0.13660126158E-01  0.00000000000E+00 0. -1.
     999901    1    3    3    0    0  0.70516828391E-01 -0.10600827676E+00 -0.99403668370E-02  0.88921830206E+00  0.88000000000E+00 0. -1.
        -11    1    4    4    0    0 -0.10042488389E-01  0.58847561883E-01 -0.44620237958E-02  0.59867001678E-01  0.51100000000E-03 0. -1.
         11    1    4    4    0    0 -0.53544490338E-01  0.57958598083E-01  0.19090881706E-01  0.81184570102E-01  0.51100000000E-03 0.  1.
</event>
<event>
 8    1  0.2257781E+004  0.1043930E+01  0.7957747E-01            NaN
         13   -1    0    0    0    0  0.00000000000E+00  0.00000000000E+00  0.74505805969E-08  0.10566000000E+00  0.10566000000E+00 0.  1.
     999900   -1    0    0    0    0 -0.00000000000E+00 -0.00000000000E+00 -0.74505805969E-08  0.93827000000E+00  0.93827000000E+00 0.  1.
     999902    2    1    2    0    0  0.55500143775E-02 -0.12538292783E-01  0.29086910377E-02  0.10299131555E+01  0.10298177683E+01 0.  0.
     999903    2    3    3    0    0  0.11011213758E+00  0.27928756103E-01  0.69223182699E-01  0.14032424403E+00  0.44658103167E-01 0.  0.
         14    1    1    2    0    0 -0.55500143775E-02  0.12538292783E-01 -0.29086910377E-02  0.14016844476E-01  0.00000000000E+00 0. -1.
     999901    1    3    3    0    0 -0.10456212320E+00 -0.40467048886E-01 -0.66314491662E-01  0.88958891150E+00  0.88000000000E+00 0.  1.
        -11    1    4    4    0    0  0.71147321341E-01  0.20117876832E-01  0.19117351616E-01  0.76370181066E-01  0.51100000000E-03 0. -1.
         11    1    4    4    0    0  0.38964816241E-01  0.78108792704E-02  0.50105831084E-01  0.63954062961E-01  0.51100000000E-03 0.  1.
</event>
<event>
 8    1  0.2257781E+004  0.1043930E+01  0.7957747E-01            NaN
         13   -1    0    0    0    0  0.00000000000E+00  0.00000000000E+00  0.74505805969E-08  0.10566000000E+00  0.10566000000E+00 0.  1.
     999900   -1    0    0    0    0 -0.00000000000E+00 -0.00000000000E+00 -0.74505805969E-08  0.93827000000E+00  0.93827000000E+00 0.  1.
     999902    2    1    2    0    0 -0.40042563186E-02 -0.92036678968E-03 -0.13679328001E-01  0.10296469626E+01  0.10295478922E+01 0.  0.
     999903    2    3    3    0    0  0.12653620486E+00  0.24903653738E-01  0.25005843886E-01  0.13880228780E+00  0.44823874875E-01 0.  0.
         14    1    1    2    0    0  0.40042563186E-02  0.92036678968E-03  0.13679328001E-01  0.14283037431E-01  0.00000000000E+00 0.  1.
     999901    1    3    3    0    0 -0.13054046118E+00 -0.25824020528E-01 -0.38685171887E-01  0.89084467477E+00  0.88000000000E+00 0. -1.
        -11    1    4    4    0    0  0.91244036744E-01  0.11062404427E-01  0.36934959424E-01  0.99057071337E-01  0.51100000000E-03 0. -1.
         11    1    4    4    0    0  0.35292168120E-01  0.13841249312E-01 -0.11929115538E-01  0.39745216462E-01  0.51100000000E-03 0.  1.
</event>
<event>
 8    1  0.2257781E+004  0.1043930E+01  0.7957747E-01            NaN
         13   -1    0    0    0    0  0.00000000000E+00  0.00000000000E+00  0.74505805969E-08  0.10566000000E+00  0.10566000000E+00 0.  1.
     999900   -1    0    0    0    0 -0.00000000000E+00 -0.00000000000E+00 -0.74505805969E-08  0.93827000000E+00  0.93827000000E+00 0.  1.
     999902    2    1    2    0    0  0.89574358019E-02  0.36986714569E-02  0.10501230229E-01  0.10296404352E+01  0.10295412736E+01 0.  0.
     999903    2    3    3    0    0  0.86828101837E-02 -0.47762921211E-02 -0.13030823497E+00  0.13840578261E+00  0.45582018386E-01 0.  0.
         14    1    1    2    0    0 -0.89574358019E-02 -0.36986714569E-02 -0.10501230229E-01  0.14289564830E-01  0.00000000000E+00 0. -1.
     999901    1    3    3    0    0  0.27462561816E-03  0.84749635780E-02  0.14080946520E+00  0.89123465256E+00  0.88000000000E+00 0. -1.
        -11    1    4    4    0    0 -0.13420902286E-01  0.71048104808E-02 -0.87273622968E-01  0.88586372187E-01  0.51100000000E-03 0. -1.
         11    1    4    4    0    0  0.22103712470E-01 -0.11881102602E-01 -0.43034612004E-01  0.49819410427E-01  0.51100000000E-03 0.  1.
</event>
<event>
 8    1  0.2257781E+004  0.1043930E+01  0.7957747E-01            NaN
         13   -1    0    0    0    0  0.00000000000E+00  0.00000000000E+00  0.74505805969E-08  0.10566000000E+00  0.10566000000E+00 0.  1.
     999900   -1    0    0    0    0 -0.00000000000E+00 -0.00000000000E+00 -0.74505805969E-08  0.93827000000E+00  0.93827000000E+00 0.  1.
     999902    2    1    2    0    0 -0.10316983358E-02  0.95574627231E-03 -0.12764490332E-01  0.10310882686E+01  0.10310082965E+01 0.  0.
     999903    2    3    3    0    0  0.93271513201E-01 -0.36624292183E-01  0.86846869324E-01  0.13966929976E+00  0.43865939318E-01 0.  0.
         14    1    1    2    0    0  0.10316983358E-02 -0.95574627231E-03  0.12764490332E-01  0.12841731419E-01  0.00000000000E+00 0.  1.
     999901    1    3    3    0    0 -0.94303211537E-01  0.37580038456E-01 -0.99611359656E-01  0.89141896882E+00  0.88000000000E+00 0.  1.
        -11    1    4    4    0    0  0.30967645551E-01 -0.26184167935E-02  0.52560930163E-02  0.31523623083E-01  0.51100000000E-03 0.  1.
         11    1    4    4    0    0  0.62303867650E-01 -0.34005875390E-01  0.81590776307E-01  0.10814567668E+00  0.51100000000E-03 0. -1.
</event>
<event>
 8    1  0.2257781E+004  0.1043930E+01  0.7957747E-01            NaN
         13   -1    0    0    0    0  0.00000000000E+00  0.00000000000E+00  0.74505805969E-08  0.10566000000E+00  0.10566000000E+00 0.  1.
     999900   -1    0    0    0    0 -0.00000000000E+00 -0.00000000000E+00 -0.74505805969E-08  0.93827000000E+00  0.93827000000E+00 0.  1.
     999902    2    1    2    0    0  0.10541138658E-01 -0.41820345754E-02 -0.10278179479E-01  0.10286249031E+01  0.10285110331E+01 0.  0.
     999903    2    3    3    0    0 -0.33122796302E-01  0.39036374150E-01  0.11876347862E+00  0.13709469073E+00  0.45488814349E-01 0.  0.
         14    1    1    2    0    0 -0.10541138658E-01  0.41820345754E-02  0.10278179479E-01  0.15305096889E-01  0.00000000000E+00 0.  1.
     999901    1    3    3    0    0  0.43663934960E-01 -0.43218408725E-01 -0.12904165810E+00  0.89153021238E+00  0.88000000000E+00 0.  1.
        -11    1    4    4    0    0 -0.23486891512E-01 -0.42461124952E-02  0.47468431038E-01  0.53133573289E-01  0.51100000000E-03 0.  1.
         11    1    4    4    0    0 -0.96359047900E-02  0.43282486645E-01  0.71295047578E-01  0.83961117438E-01  0.51100000000E-03 0. -1.
</event>
<event>
 8    1  0.2257781E+004  0.1043930E+01  0.7957747E-01            NaN
         13   -1    0    0    0    0  0.00000000000E+00  0.00000000000E+00  0.74505805969E-08  0.10566000000E+00  0.10566000000E+00 0. -1.
     999900   -1    0    0    0    0 -0.00000000000E+00 -0.00000000000E+00 -0.74505805969E-08  0.93827000000E+00  0.93827000000E+00 0. -1.
     999902    2    1    2    0    0  0.66349762920E-02 -0.77968221044E-02  0.93709937171E-02  0.10300509198E+01  0.10299574110E+01 0.  0.
     999903    2    3    3    0    0  0.10959553514E+00  0.48044154888E-01 -0.57576000534E-01  0.13976950838E+00  0.43601576733E-01 0.  0.
         14    1    1    2    0    0 -0.66349762920E-02  0.77968221044E-02 -0.93709937171E-02  0.13879080249E-01  0.00000000000E+00 0.  1.
     999901    1    3    3    0    0 -0.10296055885E+00 -0.55840976992E-01  0.66946994251E-01  0.89028141137E+00  0.88000000000E+00 0.  1.
        -11    1    4    4    0    0  0.41376551232E-01  0.34704367483E-01 -0.84825228121E-02  0.54668331130E-01  0.51100000000E-03 0.  1.
         11    1    4    4    0    0  0.68218983911E-01  0.13339787405E-01 -0.49093477722E-01  0.85101177252E-01  0.51100000000E-03 0. -1.
</event>
<event>
 8    1  0.2257781E+004  0.1043930E+01  0.7957747E-01            NaN
         13   -1    0    0    0    0  0.00000000000E+00  0.00000000000E+00  0.74505805969E-08  0.10566000000E+00  0.10566000000E+00 0. -1.
     999900   -1    0    0    0    0 -0.00000000000E+00 -0.00000000000E+00 -0.74505805969E-08  0.93827000000E+00  0.93827000000E+00 0. -1.
     999902    2    1    2    0    0  0.25524580261E-02 -0.17256029833E-02  0.13721209264E-01  0.10298671293E+01  0.10297711104E+01 0.  0.
     999903    2    3    3    0    0 -0.73855240788E-01 -0.87442737703E-01 -0.64620002803E-01  0.13895584917E+00  0.45079421990E-01 0.  0.
         14    1    1    2    0    0 -0.25524580261E-02  0.17256029833E-02 -0.13721209264E-01  0.14062870664E-01  0.00000000000E+00 0.  1.
     999901    1    3    3    0    0  0.76407698815E-01  0.85717134719E-01  0.78341212067E-01  0.89091128017E+00  0.88000000000E+00 0.  1.
        -11    1    4    4    0    0 -0.12262041089E-01 -0.48688941447E-01 -0.27938868152E-01  0.57461397003E-01  0.51100000000E-03 0.  1.
         11    1    4    4    0    0 -0.61593199700E-01 -0.38753796255E-01 -0.36681134650E-01  0.81494452165E-01  0.51100000000E-03 0. -1.
</event>
<event>
 8    1  0.2257781E+004  0.1043930E+01  0.7957747E-01            NaN
         13   -1    0    0    0    0  0.00000000000E+00  0.00000000000E+00  0.74505805969E-08  0.10566000000E+00  0.10566000000E+00 0. -1.
     999900   -1    0    0    0    0 -0.00000000000E+00 -0.00000000000E+00 -0.74505805969E-08  0.93827000000E+00  0.93827000000E+00 0.  1.
     999902    2    1    2    0    0 -0.10001584712E-01 -0.69957484506E-02 -0.17866679850E-02  0.10315945075E+01  0.10315207528E+01 0.  0.
     999903    2    3    3    0    0 -0.60590266234E-01 -0.31260732182E-01  0.11608313953E+00  0.14196464307E+00  0.45058305120E-01 0.  0.
         14    1    1    2    0    0  0.10001584712E-01  0.69957484506E-02  0.17866679850E-02  0.12335492516E-01  0.00000000000E+00 0. -1.
     999901    1    3    3    0    0  0.50588681522E-01  0.24264983732E-01 -0.11786980751E+00  0.88962986441E+00  0.88000000000E+00 0.  1.
        -11    1    4    4    0    0 -0.56578225519E-01 -0.70364268244E-02  0.84958479961E-01  0.10231720942E+00  0.51100000000E-03 0. -1.
         11    1    4    4    0    0 -0.40120407147E-02 -0.24224305358E-01  0.31124659567E-01  0.39647433649E-01  0.51100000000E-03 0.  1.
</event>
<event>
 7    1  0.2257781E+004  0.1043930E+01  0.7957747E-01            NaN
         13   -1    0    0    0    0  0.00000000000E+00  0.00000000000E+00  0.74505805969E-08  0.10566000000E+00  0.10566000000E+00 0.  1.
     999900   -1    0    0    0    0 -0.00000000000E+00 -0.00000000000E+00 -0.74505805969E-08  0.93827000000E+00  0.93827000000E+00 0. -1.
     999903    2    1    2    0    0  0.37353841909E-01 -0.12455387326E-01 -0.24442567134E-01  0.64613621482E-01  0.45022603369E-01 0.  0.
         14    1    1    2    0    0  0.59701715843E-01  0.70243557122E-02  0.70644232425E-01  0.92759064369E-01  0.00000000000E+00 0.  1.
     999901    1    1    2    0    0 -0.97055557752E-01  0.54310316142E-02 -0.46201665291E-01  0.88655731415E+00  0.88000000000E+00 0.  1.
        -11    1    3    3    0    0  0.13849100725E-01 -0.93622380019E-02  0.12385770225E-01  0.20811475593E-01  0.51100000000E-03 0.  1.
         11    1    3    3    0    0  0.23504741184E-01 -0.30931493245E-02 -0.36828337358E-01  0.43802145889E-01  0.51100000000E-03 0. -1.
</event>
<event>
 8    1  0.2257781E+004  0.1043930E+01  0.7957747E-01            NaN
         13   -1    0    0    0    0  0.00000000000E+00  0.00000000000E+00  0.74505805969E-08  0.10566000000E+00  0.10566000000E+00 0. -1.
     999900   -1    0    0    0    0 -0.00000000000E+00 -0.00000000000E+00 -0.74505805969E-08  0.93827000000E+00  0.93827000000E+00 0. -1.
     999902    2    1    2    0    0  0.44337545843E-02 -0.11499793042E-01  0.69379140546E-02  0.10297865184E+01  0.10296893879E+01 0.  0.
     999903    2    3    3    0    0  0.11060267437E+00  0.70690750228E-01 -0.18002793816E-01  0.13925343996E+00  0.42863576710E-01 0.  0.
         14    1    1    2    0    0 -0.44337545843E-02  0.11499793042E-01 -0.69379140546E-02  0.14143481578E-01  0.00000000000E+00 0. -1.
     999901    1    3    3    0    0 -0.10616891979E+00 -0.82190543270E-01  0.24940707871E-01  0.89053307847E+00  0.88000000000E+00 0.  1.
        -11    1    4    4    0    0  0.26804582249E-01  0.34982060574E-01 -0.19394505578E-01  0.48152239400E-01  0.51100000000E-03 0.  1.
         11    1    4    4    0    0  0.83798092123E-01  0.35708689654E-01  0.13917117614E-02  0.91101200557E-01  0.51100000000E-03 0. -1.
</event>
<event>
 8    1  0.2257781E+004  0.1043930E+01  0.7957747E-01            NaN
         13   -1    0    0    0    0  0.00000000000E+00  0.00000000000E+00  0.74505805969E-08  0.10566000000E+00  0.10566000000E+00 0. -1.
     999900   -1    0    0    0    0 -0.00000000000E+00 -0.00000000000E+00 -0.74505805969E-08  0.93827000000E+00  0.93827000000E+00 0. -1.
     999902    2    1    2    0    0  0.22521415885E-02  0.27774766936E-02  0.15558941259E-01  0.10279654401E+01  0.10278414659E+01 0.  0.
     999903    2    3    3    0    0 -0.89277847308E-01  0.94149180903E-01 -0.14157058127E-01  0.13801624618E+00  0.44871590471E-01 0.  0.
         14    1    1    2    0    0 -0.22521415885E-02 -0.27774766936E-02 -0.15558941259E-01  0.15964559863E-01  0.00000000000E+00 0.  1.
     999901    1    3    3    0    0  0.91529988896E-01 -0.91371704210E-01  0.29715999385E-01  0.88994919395E+00  0.88000000000E+00 0. -1.
        -11    1    4    4    0    0 -0.11677318582E-01  0.30400359592E-01 -0.18566688844E-01  0.37490327929E-01  0.51100000000E-03 0.  1.
         11    1    4    4    0    0 -0.77600528725E-01  0.63748821311E-01  0.44096307174E-02  0.10052591826E+00  0.51100000000E-03 0. -1.
</event>
<event>
 8    1  0.2257781E+004  0.1043930E+01  0.7957747E-01            NaN
         13   -1    0    0    0    0  0.00000000000E+00  0.00000000000E+00  0.74505805969E-08  0.10566000000E+00  0.10566000000E+00 0. -1.
     999900   -1    0    0    0    0 -0.00000000000E+00 -0.00000000000E+00 -0.74505805969E-08  0.93827000000E+00  0.93827000000E+00 0.  1.
     999902    2    1    2    0    0  0.67404819902E-02  0.12697573631E-01 -0.10631621482E-04  0.10295542361E+01  0.10294538662E+01 0.  0.
     999903    2    3    3    0    0  0.91750288355E-01  0.54023658259E-01 -0.86105401850E-01  0.14031477350E+00  0.30617386732E-01 0.  0.
         14    1    1    2    0    0 -0.67404819902E-02 -0.12697573631E-01  0.10631621482E-04  0.14375763861E-01  0.00000000000E+00 0.  1.
     999901    1    3    3    0    0 -0.85009806365E-01 -0.41326084629E-01  0.86094770229E-01  0.88923946264E+00  0.88000000000E+00 0. -1.
        -11    1    4    4    0    0  0.63765015741E-01  0.28066490818E-01 -0.70371880246E-01  0.99026096508E-01  0.51100000000E-03 0.  1.
         11    1    4    4    0    0  0.27985272614E-01  0.25957167441E-01 -0.15733521604E-01  0.41288676994E-01  0.51100000000E-03 0. -1.
</event>
<event>
 8    1  0.2257781E+004  0.1043930E+01  0.7957747E-01            NaN
         13   -1    0    0    0    0  0.00000000000E+00  0.00000000000E+00  0.74505805969E-08  0.10566000000E+00  0.10566000000E+00 0.  1.
     999900   -1    0    0    0    0 -0.00000000000E+00 -0.00000000000E+00 -0.74505805969E-08  0.93827000000E+00  0.93827000000E+00 0.  1.
     999902    2    1    2    0    0  0.14483490752E-01 -0.48288220532E-03  0.10342765213E-02  0.10294016000E+01  0.10292990720E+01 0.  0.
     999903    2    3    3    0    0  0.45970190876E-01  0.64683380379E-01  0.10655884149E+00  0.14014714376E+00  0.44600863880E-01 0.  0.
         14    1    1    2    0    0 -0.14483490752E-01  0.48288220532E-03 -0.10342765213E-02  0.14528400033E-01  0.00000000000E+00 0. -1.
     999901    1    3    3    0    0 -0.31486700124E-01 -0.65166262584E-01 -0.10552456497E+00  0.88925445620E+00  0.88000000000E+00 0.  1.
        -11    1    4    4    0    0  0.24829320796E-01  0.62195532741E-01  0.64372127565E-01  0.92891395685E-01  0.51100000000E-03 0.  1.
         11    1    4    4    0    0  0.21140870080E-01  0.24878476382E-02  0.42186713927E-01  0.47255748079E-01  0.51100000000E-03 0. -1.
</event>
<event>
 8    1  0.2257781E+004  0.1043930E+01  0.7957747E-01            NaN
         13   -1    0    0    0    0  0.00000000000E+00  0.00000000000E+00  0.74505805969E-08  0.10566000000E+00  0.10566000000E+00 0. -1.
     999900   -1    0    0    0    0 -0.00000000000E+00 -0.00000000000E+00 -0.74505805969E-08  0.93827000000E+00  0.93827000000E+00 0. -1.
     999902    2    1    2    0    0  0.18840436210E-03  0.46014346395E-02 -0.13052809199E-01  0.10300885938E+01  0.10299955954E+01 0.  0.
     999903    2    3    3    0    0 -0.75784560309E-01  0.89285830066E-01 -0.65483629492E-01  0.14121721443E+00  0.44033361082E-01 0.  0.
         14    1    1    2    0    0 -0.18840436210E-03 -0.46014346395E-02  0.13052809199E-01  0.13841406176E-01  0.00000000000E+00 0. -1.
     999901    1    3    3    0    0  0.75972964671E-01 -0.84684395427E-01  0.52430820293E-01  0.88887137939E+00  0.88000000000E+00 0.  1.
        -11    1    4    4    0    0 -0.67367221136E-01  0.47776841210E-01 -0.39781849234E-01  0.91672382369E-01  0.51100000000E-03 0.  1.
         11    1    4    4    0    0 -0.84173391727E-02  0.41508988856E-01 -0.25701780258E-01  0.49544832061E-01  0.51100000000E-03 0. -1.
</event>
<event>
 8    1  0.2257781E+004  0.1043930E+01  0.7957747E-01            NaN
         13   -1    0    0    0    0  0.00000000000E+00  0.00000000000E+00  0.74505805969E-08  0.10566000000E+00  0.10566000000E+00 0. -1.
     999900   -1    0    0    0    0 -0.00000000000E+00 -0.00000000000E+00 -0.74505805969E-08  0.93827000000E+00  0.93827000000E+00 0.  1.
     999902    2    1    2    0    0  0.10287237938E-01 -0.68798265991E-02 -0.56242579842E-02  0.10303361942E+01  0.10302465149E+01 0.  0.
     999903    2    3    3    0    0  0.81103621377E-01  0.91199874696E-01 -0.52501624777E-01  0.14082392588E+00  0.46687717335E-01 0.  0.
         14    1    1    2    0    0 -0.10287237938E-01  0.68798265991E-02  0.56242579842E-02  0.13593805806E-01  0.00000000000E+00 0. -1.
     999901    1    3    3    0    0 -0.70816383439E-01 -0.98079701295E-01  0.46877366793E-01  0.88951226832E+00  0.88000000000E+00 0.  1.
        -11    1    4    4    0    0  0.48678009904E-01  0.78330406462E-01 -0.22794782460E-01  0.95000339227E-01  0.51100000000E-03 0. -1.
         11    1    4    4    0    0  0.32425611473E-01  0.12869468234E-01 -0.29706842317E-01  0.45823586650E-01  0.51100000000E-03 0.  1.
</event>
<event>
 8    1  0.2257781E+004  0.1043930E+01  0.7957747E-01            NaN
         13   -1    0    0    0    0  0.00000000000E+00  0.00000000000E+00  0.74505805969E-08  0.10566000000E+00  0.10566000000E+00 0.  1.
     999900   -1    0    0    0    0 -0.00000000000E+00 -0.00000000000E+00 -0.74505805969E-08  0.93827000000E+00  0.93827000000E+00 0.  1.
     999902    2    1    2    0    0  0.48688358332E-02  0.61426284441E-02  0.12262708300E-01  0.10293762561E+01  0.10292733676E+01 0.  0.
     999903    2    3    3    0    0 -0.29307561606E-01  0.54801977370E-01  0.11835379593E+00  0.14101198552E+00  0.44883952115E-01 0.  0.
         14    1    1    2    0    0 -0.48688358332E-02 -0.61426284441E-02 -0.12262708300E-01  0.14553743897E-01  0.00000000000E+00 0. -1.
     999901    1    3    3    0    0  0.34176397439E-01 -0.48659348926E-01 -0.10609108763E+00  0.88836427059E+00  0.88000000000E+00 0.  1.
        -11    1    4    4    0    0 -0.36186587979E-01  0.42816733410E-01  0.64725116893E-01  0.85629105375E-01  0.51100000000E-03 0.  1.
         11    1    4    4    0    0  0.68790263732E-02  0.11985243960E-01  0.53628679036E-01  0.55382880142E-01  0.51100000000E-03 0. -1.
</event>
<event>
 8    1  0.2257781E+004  0.1043930E+01  0.7957747E-01            NaN
         13   -1    0    0    0    0  0.00000000000E+00  0.00000000000E+00  0.74505805969E-08  0.10566000000E+00  0.10566000000E+00 0.  1.
     999900   -1    0    0    0    0 -0.00000000000E+00 -0.00000000000E+00 -0.74505805969E-08  0.93827000000E+00  0.93827000000E+00 0.  1.
     999902    2    1    2    0    0  0.11265104109E-01 -0.22865008335E-02  0.10961793993E-01  0.10280463108E+01  0.10279235990E+01 0.  0.
     999903    2    3    3    0    0 -0.83311137498E-01  0.99308640224E-01 -0.19187084847E-02  0.13707372671E+00  0.44526098618E-01 0.  0.
         14    1    1    2    0    0 -0.11265104109E-01  0.22865008335E-02 -0.10961793993E-01  0.15883689250E-01  0.00000000000E+00 0. -1.
     999901    1    3    3    0    0  0.94576241607E-01 -0.10159514106E+00  0.12880502477E-01  0.89097258404E+00  0.88000000000E+00 0.  1.
        -11    1    4    4    0    0 -0.38179838405E-01  0.64143588167E-01 -0.19617227283E-01  0.77182878224E-01  0.51100000000E-03 0. -1.
         11    1    4    4    0    0 -0.45131299093E-01  0.35165052057E-01  0.17698518799E-01  0.59890848489E-01  0.51100000000E-03 0.  1.
</event>
<event>
 8    1  0.2257781E+004  0.1043930E+01  0.7957747E-01            NaN
         13   -1    0    0    0    0  0.00000000000E+00  0.00000000000E+00  0.74505805969E-08  0.10566000000E+00  0.10566000000E+00 0. -1.
     999900   -1    0    0    0    0 -0.00000000000E+00 -0.00000000000E+00 -0.74505805969E-08  0.93827000000E+00  0.93827000000E+00 0. -1.
     999902    2    1    2    0    0 -0.49368108112E-02 -0.94800884301E-02 -0.33904401686E-02  0.10327166480E+01  0.10326557683E+01 0.  0.
     999903    2    3    3    0    0  0.12558134147E+00 -0.24400087688E-01  0.41026343717E-01  0.14185726231E+00  0.45544312359E-01 0.  0.
         14    1    1    2    0    0  0.49368108112E-02  0.94800884301E-02  0.33904401686E-02  0.11213351959E-01  0.00000000000E+00 0.  1.
     999901    1    3    3    0    0 -0.13051815228E+00  0.14919999258E-01 -0.44416783885E-01  0.89085938573E+00  0.88000000000E+00 0. -1.
        -11    1    4    4    0    0  0.93016347119E-01 -0.37319585048E-01  0.24818117677E-01  0.10325208156E+00  0.51100000000E-03 0. -1.
         11    1    4    4    0    0  0.32564994346E-01  0.12919497360E-01  0.16208226040E-01  0.38605180756E-01  0.51100000000E-03 0.  1.
</event>
<event>
 8    1  0.2257781E+004  0.1043930E+01  0.7957747E-01            NaN
         13   -1    0    0    0    0  0.00000000000E+00  0.00000000000E+00  0.74505805969E-08  0.10566000000E+00  0.10566000000E+00 0.  1.
     999900   -1    0    0    0    0 -0.00000000000E+00 -0.00000000000E+00 -0.74505805969E-08  0.93827000000E+00  0.93827000000E+00 0.  1.
     999902    2    1    2    0    0  0.92204358540E-02 -0.48250518044E-02 -0.99107486089E-02  0.10295591789E+01  0.10294588784E+01 0.  0.
     999903    2    3    3    0    0  0.91562320889E-01 -0.80974209348E-01 -0.55058873522E-01  0.14129275857E+00  0.44628274509E-01 0.  0.
         14    1    1    2    0    0 -0.92204358540E-02  0.48250518044E-02  0.99107486089E-02  0.14370821140E-01  0.00000000000E+00 0.  1.
     999901    1    3    3    0    0 -0.82341885035E-01  0.76149157543E-01  0.45148124913E-01  0.88826642029E+00  0.88000000000E+00 0. -1.
        -11    1    4    4    0    0  0.56207902744E-01 -0.43101130521E-01 -0.54672743145E-01  0.89478521149E-01  0.51100000000E-03 0.  1.
         11    1    4    4    0    0  0.35354418145E-01 -0.37873078827E-01 -0.38613037771E-03  0.51814237424E-01  0.51100000000E-03 0. -1.
</event>
<event>
 8    1  0.2257781E+004  0.1043930E+01  0.7957747E-01            NaN
         13   -1    0    0    0    0  0.00000000000E+00  0.00000000000E+00  0.74505805969E-08  0.10566000000E+00  0.10566000000E+00 0. -1.
     999900   -1    0    0    0    0 -0.00000000000E+00 -0.00000000000E+00 -0.74505805969E-08  0.93827000000E+00  0.93827000000E+00 0.  1.
     999902    2    1    2    0    0 -0.11661888294E-01 -0.60669934951E-02 -0.42747512399E-02  0.10301067751E+01  0.10300140225E+01 0.  0.
     999903    2    3    3    0    0  0.99434361764E-01 -0.13869664125E-01 -0.84749657151E-01  0.13944439858E+00  0.46719118433E-01 0.  0.
         14    1    1    2    0    0  0.11661888294E-01  0.60669934951E-02  0.42747512399E-02  0.13823224907E-01  0.00000000000E+00 0. -1.
     999901    1    3    3    0    0 -0.11109625006E+00  0.78026706297E-02  0.80474905912E-01  0.89066237651E+00  0.88000000000E+00 0. -1.
        -11    1    4    4    0    0  0.86612726045E-01  0.23546621546E-02 -0.80617968472E-01  0.11835044025E+00  0.51100000000E-03 0. -1.
         11    1    4    4    0    0  0.12821635718E-01 -0.16224326279E-01 -0.41316886799E-02  0.21093958331E-01  0.51100000000E-03 0.  1.
</event>
<event>
 8    1  0.2257781E+004  0.1043930E+01  0.7957747E-01            NaN
         13   -1    0    0    0    0  0.00000000000E+00  0.00000000000E+00  0.74505805969E-08  0.10566000000E+00  0.10566000000E+00 0. -1.
     999900   -1    0    0    0    0 -0.00000000000E+00 -0.00000000000E+00 -0.74505805969E-08  0.93827000000E+00  0.93827000000E+00 0.  1.
     999902    2    1    2    0    0  0.36471298749E-02 -0.11379285667E-01 -0.46269184702E-02  0.10311160204E+01  0.10310363958E+01 0.  0.
     999903    2    3    3    0    0 -0.80913570190E-01  0.65127685406E-01  0.81783235709E-01  0.13956089403E+00  0.44722748705E-01 0.  0.
         14    1    1    2    0    0 -0.36471298749E-02  0.11379285667E-01  0.46269184702E-02  0.12813979598E-01  0.00000000000E+00 0.  1.
     999901    1    3    3    0    0  0.84560700065E-01 -0.76506971073E-01 -0.86410154179E-01  0.89155512637E+00  0.88000000000E+00 0.  1.
        -11    1    4    4    0    0 -0.22653669052E-01  0.40292601509E-01  0.17809073523E-01  0.49538941032E-01  0.51100000000E-03 0. -1.
         11    1    4    4    0    0 -0.58259901138E-01  0.24835083898E-01  0.63974162186E-01  0.90021952996E-01  0.51100000000E-03 0.  1.
</event>
<event>
 8    1  0.2257781E+004  0.1043930E+01  0.7957747E-01            NaN
         13   -1    0    0    0    0  0.00000000000E+00  0.00000000000E+00  0.74505805969E-08  0.10566000000E+00  0.10566000000E+00 0. -1.
     999900   -1    0    0    0    0 -0.00000000000E+00 -0.00000000000E+00 -0.74505805969E-08  0.93827000000E+00  0.93827000000E+00 0.  1.
     999902    2    1    2    0    0 -0.33059898705E-03  0.11980008830E-01  0.77838107262E-03  0.10319201797E+01  0.10318502902E+01 0.  0.
     999903    2    3    3    0    0  0.12447916633E+00 -0.81625225742E-02  0.48886615658E-01  0.14158451189E+00  0.45766616556E-01 0.  0.
         14    1    1    2    0    0  0.33059898705E-03 -0.11980008830E-01 -0.77838107262E-03  0.12009820329E-01  0.00000000000E+00 0. -1.
     999901    1    3    3    0    0 -0.12480976532E+00  0.20142531404E-01 -0.48108234585E-01  0.89033566778E+00  0.88000000000E+00 0.  1.
        -11    1    4    4    0    0  0.74692197559E-01  0.53316239737E-02  0.49903425276E-01  0.89988685765E-01  0.51100000000E-03 0. -1.
         11    1    4    4    0    0  0.49786968772E-01 -0.13494146548E-01 -0.10168096186E-02  0.51595826124E-01  0.51100000000E-03 0.  1.
</event>
<event>
 8    1  0.2257781E+004  0.1043930E+01  0.7957747E-01            NaN
         13   -1    0    0    0    0  0.00000000000E+00  0.00000000000E+00  0.74505805969E-08  0.10566000000E+00  0.10566000000E+00 0. -1.
     999900   -1    0    0    0    0 -0.00000000000E+00 -0.00000000000E+00 -0.74505805969E-08  0.93827000000E+00  0.93827000000E+00 0.  1.
     999902    2    1    2    0    0 -0.11618805344E-01 -0.67155713137E-02  0.39376365287E-02  0.10299442745E+01  0.10298493133E+01 0.  0.
     999903    2    3    3    0    0 -0.46077237857E-01 -0.11438595772E+00  0.53291718171E-01  0.14134080781E+00  0.43931282183E-01 0.  0.
         14    1    1    2    0    0  0.11618805344E-01  0.67155713137E-02 -0.39376365287E-02  0.13985725477E-01  0.00000000000E+00 0. -1.
     999901    1    3    3    0    0  0.34458432513E-01  0.10767038641E+00 -0.49354081642E-01  0.88860346671E+00  0.88000000000E+00 0.  1.
        -11    1    4    4    0    0 -0.49543706007E-01 -0.94958493869E-01  0.30869942255E-01  0.11146707504E+00  0.51100000000E-03 0.  1.
         11    1    4    4    0    0  0.34664681500E-02 -0.19427463852E-01  0.22421775916E-01  0.29873732767E-01  0.51100000000E-03 0. -1.
</event>
<event>
 7    1  0.2257781E+004  0.1043930E+01  0.7957747E-01            NaN
         13   -1    0    0    0    0  0.00000000000E+00  0.00000000000E+00  0.74505805969E-08  0.10566000000E+00  0.10566000000E+00 0.  1.
     999900   -1    0    0    0    0 -0.00000000000E+00 -0.00000000000E+00 -0.74505805969E-08  0.93827000000E+00  0.93827000000E+00 0.  1.
     999903    2    1    2    0    0  0.65059607158E-01 -0.93799187429E-02  0.74269892406E-01  0.10888650002E+00  0.44939043267E-01 0.  0.
         14    1    1    2    0    0  0.31323330769E-01 -0.31019839432E-01 -0.16174627276E-01  0.46957428128E-01  0.00000000000E+00 0.  1.
     999901    1    1    2    0    0 -0.96382937927E-01  0.40399758175E-01 -0.58095265130E-01  0.88808607185E+00  0.88000000000E+00 0. -1.
        -11    1    3    3    0    0  0.48975744645E-01  0.16057616227E-02  0.74767369581E-01  0.89395876353E-01  0.51100000000E-03 0. -1.
         11    1    3    3    0    0  0.16083862513E-01 -0.10985680366E-01 -0.49747717509E-03  0.19490623668E-01  0.51100000000E-03 0.  1.
</event>
<event>
 8    1  0.2257781E+004  0.1043930E+01  0.7957747E-01            NaN
         13   -1    0    0    0    0  0.00000000000E+00  0.00000000000E+00  0.74505805969E-08  0.10566000000E+00  0.10566000000E+00 0.  1.
     999900   -1    0    0    0    0 -0.00000000000E+00 -0.00000000000E+00 -0.74505805969E-08  0.93827000000E+00  0.93827000000E+00 0.  1.
     999902    2    1    2    0    0  0.11287000207E-01  0.85500706584E-02  0.11623477883E-02  0.10297225676E+01  0.10296245506E+01 0.  0.
     999903    2    3    3    0    0 -0.77322947389E-01  0.73686108614E-01 -0.76892809632E-01  0.13944899516E+00  0.46098126666E-01 0.  0.
         14    1    1    2    0    0 -0.11287000207E-01 -0.85500706584E-02 -0.11623477883E-02  0.14207432362E-01  0.00000000000E+00 0. -1.
     999901    1    3    3    0    0  0.88609947597E-01 -0.65136037956E-01  0.78055157420E-01  0.89027357248E+00  0.88000000000E+00 0. -1.
        -11    1    4    4    0    0 -0.44078529185E-01  0.22118942865E-01 -0.13298141015E-01  0.51080975363E-01  0.51100000000E-03 0.  1.
         11    1    4    4    0    0 -0.33244418204E-01  0.51567165750E-01 -0.63594668617E-01  0.88368019796E-01  0.51100000000E-03 0. -1.
</event>
<event>
 8    1  0.2257781E+004  0.1043930E+01  0.7957747E-01            NaN
         13   -1    0    0    0    0  0.00000000000E+00  0.00000000000E+00  0.74505805969E-08  0.10566000000E+00  0.10566000000E+00 0.  1.
     999900   -1    0    0    0    0 -0.00000000000E+00 -0.00000000000E+00 -0.74505805969E-08  0.93827000000E+00  0.93827000000E+00 0. -1.
     999902    2    1    2    0    0  0.82037952250E-03  0.11866052227E-01  0.76413791081E-02  0.10297925712E+01  0.10296955243E+01 0.  0.
     999903    2    3    3    0    0  0.37428813295E-01  0.59039171835E-01 -0.11229460823E+00  0.13965206450E+00  0.44789286719E-01 0.  0.
         14    1    1    2    0    0 -0.82037952250E-03 -0.11866052227E-01 -0.76413791081E-02  0.14137428786E-01  0.00000000000E+00 0. -1.
     999901    1    3    3    0    0 -0.36608433773E-01 -0.47173119609E-01  0.11993598734E+00  0.89014050672E+00  0.88000000000E+00 0.  1.
        -11    1    4    4    0    0  0.43712857393E-01  0.30799425335E-01 -0.80699086161E-01  0.96809204783E-01  0.51100000000E-03 0. -1.
         11    1    4    4    0    0 -0.62840440975E-02  0.28239746501E-01 -0.31595522071E-01  0.42842859715E-01  0.51100000000E-03 0.  1.
</event>
<event>
 8    1  0.2257781E+004  0.1043930E+01  0.7957747E-01            NaN
         13   -1    0    0    0    0  0.00000000000E+00  0.00000000000E+00  0.74505805969E-08  0.10566000000E+00  0.10566000000E+00 0.  1.
     999900   -1    0    0    0    0 -0.00000000000E+00 -0.00000000000E+00 -0.74505805969E-08  0.93827000000E+00  0.93827000000E+00 0.  1.
     999902    2    1    2    0    0  0.37980796723E-03  0.13866532529E-01 -0.19323014022E-02  0.10299243309E+01  0.10298290968E+01 0.  0.
     999903    2    3    3    0    0 -0.62226086649E-01  0.72130002457E-01  0.93500719129E-01  0.14064282800E+00  0.44307984352E-01 0.  0.
         14    1    1    2    0    0 -0.37980796723E-03 -0.13866532529E-01  0.19323014022E-02  0.14005669109E-01  0.00000000000E+00 0.  1.
     999901    1    3    3    0    0  0.62605894616E-01 -0.58263469928E-01 -0.95433020531E-01  0.88928150289E+00  0.88000000000E+00 0.  1.
        -11    1    4    4    0    0 -0.43966264867E-01  0.28655019337E-01  0.26725963160E-01  0.58895507532E-01  0.51100000000E-03 0.  1.
         11    1    4    4    0    0 -0.18259821782E-01  0.43474983120E-01  0.66774755969E-01  0.81747320473E-01  0.51100000000E-03 0. -1.
</event>
<event>
 8    1  0.2257781E+004  0.1043930E+01  0.7957747E-01            NaN
         13   -1    0    0    0    0  0.00000000000E+00  0.00000000000E+00  0.74505805969E-08  0.10566000000E+00  0.10566000000E+00 0.  1.
     999900   -1    0    0    0    0 -0.00000000000E+00 -0.00000000000E+00 -0.74505805969E-08  0.93827000000E+00  0.93827000000E+00 0. -1.
     999902    2    1    2    0    0 -0.12227912078E-01  0.94535122586E-03 -0.56272090467E-02  0.10304362605E+01  0.10303479053E+01 0.  0.
     999903    2    3    3    0    0 -0.37115974491E-01 -0.85418021755E-01 -0.96303714441E-01  0.14122296978E+00  0.44673121407E-01 0.  0.
         14    1    1    2    0    0  0.12227912078E-01 -0.94535122586E-03  0.56272090467E-02  0.13493739451E-01  0.00000000000E+00 0. -1.
     999901    1    3    3    0    0  0.24888062413E-01  0.86363372981E-01  0.90676505395E-01  0.88921329077E+00  0.88000000000E+00 0.  1.
        -11    1    4    4    0    0  0.62001859784E-02 -0.29898779769E-01 -0.16211168813E-01  0.34575171050E-01  0.51100000000E-03 0. -1.
         11    1    4    4    0    0 -0.43316160469E-01 -0.55519241986E-01 -0.80092545628E-01  0.10664779873E+00  0.51100000000E-03 0.  1.
</event>
<event>
 8    1  0.2257781E+004  0.1043930E+01  0.7957747E-01            NaN
         13   -1    0    0    0    0  0.00000000000E+00  0.00000000000E+00  0.74505805969E-08  0.10566000000E+00  0.10566000000E+00 0. -1.
     999900   -1    0    0    0    0 -0.00000000000E+00 -0.00000000000E+00 -0.74505805969E-08  0.93827000000E+00  0.93827000000E+00 0.  1.
     999902    2    1    2    0    0  0.14774495984E-02 -0.15269290603E-01 -0.23335224018E-02  0.10284129313E+01  0.10282958611E+01 0.  0.
     999903    2    3    3    0    0  0.10416227211E+00 -0.81267596101E-01 -0.12324619669E-01  0.13993120890E+00  0.44436987590E-01 0.  0.
         14    1    1    2    0    0 -0.14774495984E-02  0.15269290603E-01  0.23335224018E-02  0.15517068654E-01  0.00000000000E+00 0.  1.
     999901    1    3    3    0    0 -0.10268482251E+00  0.65998305498E-01  0.99910972671E-02  0.88848172245E+00  0.88000000000E+00 0. -1.
        -11    1    4    4    0    0  0.57444712942E-01 -0.67655865935E-01 -0.19134283428E-01  0.90794235300E-01  0.51100000000E-03 0.  1.
         11    1    4    4    0    0  0.46717559167E-01 -0.13611730166E-01  0.68096637591E-02  0.49136973596E-01  0.51100000000E-03 0. -1.
</event>
<event>
 8    1  0.2257781E+004  0.1043930E+01  0.7957747E-01            NaN
         13   -1    0    0    0    0  0.00000000000E+00  0.00000000000E+00  0.74505805969E-08  0.10566000000E+00  0.10566000000E+00 0. -1.
     999900   -1    0    0    0    0 -0.00000000000E+00 -0.00000000000E+00 -0.74505805969E-08  0.93827000000E+00  0.93827000000E+00 0.  1.
     999902    2    1    2    0    0 -0.18688317445E-02 -0.11843730680E-01  0.43214138593E-02  0.10311847614E+01  0.10311059941E+01 0.  0.
     999903    2    3    3    0    0  0.13193871079E+00  0.18136091639E-01  0.46702978259E-02  0.14056510641E+00  0.44721317423E-01 0.  0.
         14    1    1    2    0    0  0.18688317445E-02  0.11843730680E-01 -0.43214138593E-02  0.12745238572E-01  0.00000000000E+00 0.  1.
     999901    1    3    3    0    0 -0.13380754254E+00 -0.29979822319E-01 -0.34888396654E-03  0.89061965502E+00  0.88000000000E+00 0. -1.
        -11    1    4    4    0    0  0.42384593897E-01  0.27153439091E-01 -0.13327981658E-02  0.50356732681E-01  0.51100000000E-03 0.  1.
         11    1    4    4    0    0  0.89554116897E-01 -0.90173474519E-02  0.60030959917E-02  0.90208373728E-01  0.51100000000E-03 0. -1.
</event>
<event>
 8    1  0.2257781E+004  0.1043930E+01  0.7957747E-01            NaN
         13   -1    0    0    0    0  0.00000000000E+00  0.00000000000E+00  0.74505805969E-08  0.10566000000E+00  0.10566000000E+00 0.  1.
     999900   -1    0    0    0    0 -0.00000000000E+00 -0.00000000000E+00 -0.74505805969E-08  0.93827000000E+00  0.93827000000E+00 0.  1.
     999902    2    1    2    0    0  0.67765493801E-02 -0.74176722855E-02 -0.99019443038E-02  0.10298235481E+01  0.10297269290E+01 0.  0.
     999903    2    3    3    0    0 -0.93488333033E-01  0.67734917959E-01 -0.63020348417E-01  0.13936157626E+00  0.46065139751E-01 0.  0.
         14    1    1    2    0    0 -0.67765493801E-02  0.74176722855E-02  0.99019443038E-02  0.14106451880E-01  0.00000000000E+00 0.  1.
     999901    1    3    3    0    0  0.10026488241E+00 -0.75152590244E-01  0.53118404113E-01  0.89046197186E+00  0.88000000000E+00 0. -1.
        -11    1    4    4    0    0 -0.39521786107E-01  0.42830788662E-01 -0.88639415351E-02  0.58951493747E-01  0.51100000000E-03 0. -1.
         11    1    4    4    0    0 -0.53966546925E-01  0.24904129297E-01 -0.54156406882E-01  0.80410082517E-01  0.51100000000E-03 0.  1.
</event>
<event>
 7    1  0.2257781E+004  0.1043930E+01  0.7957747E-01            NaN
         13   -1    0    0    0    0  0.00000000000E+00  0.00000000000E+00  0.74505805969E-08  0.10566000000E+00  0.10566000000E+00 0.  1.
     999900   -1    0    0    0    0 -0.00000000000E+00 -0.00000000000E+00 -0.74505805969E-08  0.93827000000E+00  0.93827000000E+00 0.  1.
     999903    2    1    2    0    0  0.68839617699E-01  0.22161658304E-01  0.64204221367E-01  0.10639049964E+00  0.44347765545E-01 0.  0.
         14    1    1    2    0    0  0.30989904543E-01 -0.65516105524E-02  0.33836076228E-01  0.46348439444E-01  0.00000000000E+00 0.  1.
     999901    1    1    2    0    0 -0.99829522242E-01 -0.15610047752E-01 -0.98040297595E-01  0.89119106091E+00  0.88000000000E+00 0.  1.
        -11    1    3    3    0    0  0.31001574860E-01 -0.92444438219E-02  0.11577842101E-01  0.34363715371E-01  0.51100000000E-03 0.  1.
         11    1    3    3    0    0  0.37838042839E-01  0.31406102126E-01  0.52626379266E-01  0.72026784270E-01  0.51100000000E-03 0. -1.
</event>
<event>
 8    1  0.2257781E+004  0.1043930E+01  0.7957747E-01            NaN
         13   -1    0    0    0    0  0.00000000000E+00  0.00000000000E+00  0.74505805969E-08  0.10566000000E+00  0.10566000000E+00 0. -1.
     999900   -1    0    0    0    0 -0.00000000000E+00 -0.00000000000E+00 -0.74505805969E-08  0.93827000000E+00  0.93827000000E+00 0.  1.
     999902    2    1    2    0    0 -0.96202241683E-02  0.13191783397E-01 -0.20283377433E-02  0.10274774617E+01  0.10273457297E+01 0.  0.
     999903    2    3    3    0    0 -0.47346811031E-01 -0.90399980470E-01 -0.77999665572E-01  0.13735039687E+00  0.48654976192E-01 0.  0.
         14    1    1    2    0    0  0.96202241683E-02 -0.13191783397E-01  0.20283377433E-02  0.16452538292E-01  0.00000000000E+00 0.  1.
     999901    1    3    3    0    0  0.37726586863E-01  0.10359176387E+00  0.75971327829E-01  0.89012706483E+00  0.88000000000E+00 0.  1.
        -11    1    4    4    0    0 -0.17402157428E-01 -0.45935944350E-01 -0.66237081033E-01  0.82465496368E-01  0.51100000000E-03 0. -1.
         11    1    4    4    0    0 -0.29944653603E-01 -0.44464036121E-01 -0.11762584539E-01  0.54884900506E-01  0.51100000000E-03 0.  1.
</event>
<event>
 8    1  0.2257781E+004  0.1043930E+01  0.7957747E-01            NaN
         13   -1    0    0    0    0  0.00000000000E+00  0.00000000000E+00  0.74505805969E-08  0.10566000000E+00  0.10566000000E+00 0.  1.
     999900   -1    0    0    0    0 -0.00000000000E+00 -0.00000000000E+00 -0.74505805969E-08  0.93827000000E+00  0.93827000000E+00 0. -1.
     999902    2    1    2    0    0  0.65690271469E-03 -0.13875443845E-01  0.41122392694E-03  0.10300329295E+01  0.10299391765E+01 0.  0.
     999903    2    3    3    0    0  0.37722855626E-01  0.11796704376E+00  0.43094622378E-01  0.13841743003E+00  0.44305769466E-01 0.  0.
         14    1    1    2    0    0 -0.65690271469E-03  0.13875443845E-01 -0.41122392694E-03  0.13897070490E-01  0.00000000000E+00 0. -1.
     999901    1    3    3    0    0 -0.37065952911E-01 -0.13184248761E+00 -0.42683398451E-01  0.89161549948E+00  0.88000000000E+00 0. -1.
        -11    1    4    4    0    0  0.27929152473E-01  0.65289164213E-01  0.22627441359E-02  0.71049937745E-01  0.51100000000E-03 0. -1.
         11    1    4    4    0    0  0.97937031531E-02  0.52677879551E-01  0.40831878242E-01  0.67367492288E-01  0.51100000000E-03 0.  1.
</event>
<event>
 8    1  0.2257781E+004  0.1043930E+01  0.7957747E-01            NaN
         13   -1    0    0    0    0  0.00000000000E+00  0.00000000000E+00  0.74505805969E-08  0.10566000000E+00  0.10566000000E+00 0. -1.
     999900   -1    0    0    0    0 -0.00000000000E+00 -0.00000000000E+00 -0.74505805969E-08  0.93827000000E+00  0.93827000000E+00 0.  1.
     999902    2    1    2    0    0 -0.12853479199E-01 -0.61060068788E-03 -0.53335267716E-02  0.10300004893E+01  0.10299062951E+01 0.  0.
     999903    2    3    3    0    0 -0.79755004018E-01 -0.10696665006E+00 -0.95109210242E-02  0.14106580447E+00  0.44792618601E-01 0.  0.
         14    1    1    2    0    0  0.12853479199E-01  0.61060068788E-03  0.53335267716E-02  0.13929510707E-01  0.00000000000E+00 0. -1.
     999901    1    3    3    0    0  0.66901524819E-01  0.10635604937E+00  0.41773942525E-02  0.88893468482E+00  0.88000000000E+00 0.  1.
        -11    1    4    4    0    0 -0.41738681316E-01 -0.86864853020E-01 -0.15606719272E-01  0.97629150440E-01  0.51100000000E-03 0.  1.
         11    1    4    4    0    0 -0.38016322702E-01 -0.20101797038E-01  0.60957982474E-02  0.43436654028E-01  0.51100000000E-03 0. -1.
</event>
<event>
 8    1  0.2257781E+004  0.1043930E+01  0.7957747E-01            NaN
         13   -1    0    0    0    0  0.00000000000E+00  0.00000000000E+00  0.74505805969E-08  0.10566000000E+00  0.10566000000E+00 0. -1.
     999900   -1    0    0    0    0 -0.00000000000E+00 -0.00000000000E+00 -0.74505805969E-08  0.93827000000E+00  0.93827000000E+00 0. -1.
     999902    2    1    2    0    0  0.24619111198E-02 -0.78469307781E-03 -0.12906521795E-01  0.10307673614E+01  0.10306833162E+01 0.  0.
     999903    2    3    3    0    0 -0.36322560313E-01  0.75793216606E-01  0.10157534947E+00  0.13921001030E+00  0.44698269284E-01 0.  0.
         14    1    1    2    0    0 -0.24619111198E-02  0.78469307781E-03  0.12906521795E-01  0.13162638581E-01  0.00000000000E+00 0. -1.
     999901    1    3    3    0    0  0.38784471432E-01 -0.76577909684E-01 -0.11448187127E+00  0.89155735111E+00  0.88000000000E+00 0. -1.
        -11    1    4    4    0    0 -0.35586786185E-01  0.24619475598E-01  0.37990946619E-01  0.57585684642E-01  0.51100000000E-03 0.  1.
         11    1    4    4    0    0 -0.73577412724E-03  0.51173741008E-01  0.63584402856E-01  0.81624325662E-01  0.51100000000E-03 0. -1.
</event>
<event>
 8    1  0.2257781E+004  0.1043930E+01  0.7957747E-01            NaN
         13   -1    0    0    0    0  0.00000000000E+00  0.00000000000E+00  0.74505805969E-08  0.10566000000E+00  0.10566000000E+00 0.  1.
     999900   -1    0    0    0    0 -0.00000000000E+00 -0.00000000000E+00 -0.74505805969E-08  0.93827000000E+00  0.93827000000E+00 0. -1.
     999902    2    1    2    0    0  0.37519311293E-03  0.13705463815E-01 -0.41756106544E-02  0.10295976508E+01  0.10294978904E+01 0.  0.
     999903    2    3    3    0    0 -0.11082534518E+00  0.23634149725E-01 -0.69347583136E-01  0.14015314750E+00  0.44642886318E-01 0.  0.
         14    1    1    2    0    0 -0.37519311293E-03 -0.13705463815E-01  0.41756106544E-02  0.14332349165E-01  0.00000000000E+00 0. -1.
     999901    1    3    3    0    0  0.11120053829E+00 -0.99286859095E-02  0.65171972481E-01  0.88944450334E+00  0.88000000000E+00 0.  1.
        -11    1    4    4    0    0 -0.94275562826E-01  0.27102433190E-01 -0.39308418242E-01  0.10567798492E+00  0.51100000000E-03 0. -1.
         11    1    4    4    0    0 -0.16549782355E-01 -0.34682834651E-02 -0.30039164894E-01  0.34475162577E-01  0.51100000000E-03 0.  1.
</event>
<event>
 8    1  0.2257781E+004  0.1043930E+01  0.7957747E-01            NaN
         13   -1    0    0    0    0  0.00000000000E+00  0.00000000000E+00  0.74505805969E-08  0.10566000000E+00  0.10566000000E+00 0.  1.
     999900   -1    0    0    0    0 -0.00000000000E+00 -0.00000000000E+00 -0.74505805969E-08  0.93827000000E+00  0.93827000000E+00 0. -1.
     999902    2    1    2    0    0 -0.30389845679E-02  0.12581132495E-01  0.39500624299E-02  0.10303976936E+01  0.10303088293E+01 0.  0.
     999903    2    3    3    0    0 -0.40138558426E-01  0.11750624611E+00  0.51592253664E-01  0.14210976947E+00  0.45984825704E-01 0.  0.
         14    1    1    2    0    0  0.30389845679E-02 -0.12581132495E-01 -0.39500624299E-02  0.13532306354E-01  0.00000000000E+00 0.  1.
     999901    1    3    3    0    0  0.37099573858E-01 -0.10492511361E+00 -0.47642191234E-01  0.88828792417E+00  0.88000000000E+00 0.  1.
        -11    1    4    4    0    0 -0.30641841947E-01  0.26790230563E-01  0.10315584230E-01  0.41991800754E-01  0.51100000000E-03 0. -1.
         11    1    4    4    0    0 -0.94967164791E-02  0.90716015543E-01  0.41276669435E-01  0.10011796872E+00  0.51100000000E-03 0.  1.
</event>
<event>
 8    1  0.2257781E+004  0.1043930E+01  0.7957747E-01            NaN
         13   -1    0    0    0    0  0.00000000000E+00  0.00000000000E+00  0.74505805969E-08  0.10566000000E+00  0.10566000000E+00 0.  1.
     999900   -1    0    0    0    0 -0.00000000000E+00 -0.00000000000E+00 -0.74505805969E-08  0.93827000000E+00  0.93827000000E+00 0. -1.
     999902    2    1    2    0    0 -0.12254059784E-01 -0.19756307678E-02 -0.60765474073E-02  0.10301101040E+01  0.10300173963E+01 0.  0.
     999903    2    3    3    0    0 -0.34802703769E-01  0.12809298959E+00 -0.31082267176E-02  0.14025893760E+00  0.45209139905E-01 0.  0.
         14    1    1    2    0    0  0.12254059784E-01  0.19756307678E-02  0.60765474073E-02  0.13819896039E-01  0.00000000000E+00 0. -1.
     999901    1    3    3    0    0  0.22548643984E-01 -0.13006862036E+00 -0.29683206897E-02  0.88985116636E+00  0.88000000000E+00 0.  1.
        -11    1    4    4    0    0 -0.16804071355E-01  0.16450317905E-01 -0.12765311129E-01  0.26761989136E-01  0.51100000000E-03 0. -1.
         11    1    4    4    0    0 -0.17998632413E-01  0.11164267169E+00  0.96570844118E-02  0.11349694846E+00  0.51100000000E-03 0.  1.
</event>
<event>
 8    1  0.2257781E+004  0.1043930E+01  0.7957747E-01            NaN
         13   -1    0    0    0    0  0.00000000000E+00  0.00000000000E+00  0.74505805969E-08  0.10566000000E+00  0.10566000000E+00 0. -1.
     999900   -1    0    0    0    0 -0.00000000000E+00 -0.00000000000E+00 -0.74505805969E-08  0.93827000000E+00  0.93827000000E+00 0. -1.
     999902    2    1    2    0    0 -0.70708531156E-02  0.16787004175E-02 -0.11620587096E-01  0.10302240508E+01  0.10301328758E+01 0.  0.
     999903    2    3    3    0    0  0.20200704994E-01  0.87225514954E-01  0.95545764973E-01  0.13918722644E+00  0.47198854419E-01 0.  0.
         14    1    1    2    0    0  0.70708531156E-02 -0.16787004175E-02  0.11620587096E-01  0.13705949195E-01  0.00000000000E+00 0. -1.
     999901    1    3    3    0    0 -0.27271558110E-01 -0.85546814537E-01 -0.10716635207E+00  0.89103682437E+00  0.88000000000E+00 0. -1.
        -11    1    4    4    0    0 -0.82599162885E-02  0.46061327763E-01  0.26094904877E-01  0.53582434751E-01  0.51100000000E-03 0. -1.
         11    1    4    4    0    0  0.28460621283E-01  0.41164187191E-01  0.69450860096E-01  0.85604791688E-01  0.51100000000E-03 0.  1.
</event>
<event>
 8    1  0.2257781E+004  0.1043930E+01  0.7957747E-01            NaN
         13   -1    0    0    0    0  0.00000000000E+00  0.00000000000E+00  0.74505805969E-08  0.10566000000E+00  0.10566000000E+00 0. -1.
     999900   -1    0    0    0    0 -0.00000000000E+00 -0.00000000000E+00 -0.74505805969E-08  0.93827000000E+00  0.93827000000E+00 0. -1.
     999902    2    1    2    0    0  0.74288104589E-02 -0.71796533568E-03 -0.12126970458E-01  0.10296904034E+01  0.10295919389E+01 0.  0.
     999903    2    3    3    0    0 -0.12592185484E+00 -0.16985710792E-01 -0.34594531327E-01  0.13921197537E+00  0.45148251245E-01 0.  0.
         14    1    1    2    0    0 -0.74288104589E-02  0.71796533568E-03  0.12126970458E-01  0.14239596608E-01  0.00000000000E+00 0. -1.
     999901    1    3    3    0    0  0.13335066530E+00  0.16267745456E-01  0.22467560869E-01  0.89047842802E+00  0.88000000000E+00 0. -1.
        -11    1    4    4    0    0 -0.81340334895E-01 -0.32559212784E-01 -0.22895058194E-01  0.90558253233E-01  0.51100000000E-03 0.  1.
         11    1    4    4    0    0 -0.44581519949E-01  0.15573501992E-01 -0.11699473134E-01  0.48653722138E-01  0.51100000000E-03 0. -1.
</event>
<event>
 8    1  0.2257781E+004  0.1043930E+01  0.7957747E-01            NaN
         13   -1    0    0    0    0  0.00000000000E+00  0.00000000000E+00  0.74505805969E-08  0.10566000000E+00  0.10566000000E+00 0.  1.
     999900   -1    0    0    0    0 -0.00000000000E+00 -0.00000000000E+00 -0.74505805969E-08  0.93827000000E+00  0.93827000000E+00 0. -1.
     999902    2    1    2    0    0  0.95747729568E-02  0.38292462848E-02  0.94527287012E-02  0.10299409513E+01  0.10298459446E+01 0.  0.
     999903    2    3    3    0    0  0.69203430230E-01  0.90115344210E-01  0.71354629014E-01  0.14155324722E+00  0.45121488208E-01 0.  0.
         14    1    1    2    0    0 -0.95747729568E-02 -0.38292462848E-02 -0.94527287012E-02  0.13989048723E-01  0.00000000000E+00 0. -1.
     999901    1    3    3    0    0 -0.59628657273E-01 -0.86286097925E-01 -0.61901900313E-01  0.88838770406E+00  0.88000000000E+00 0. -1.
        -11    1    4    4    0    0  0.28714840881E-01  0.33668431314E-01  0.34147265083E-02  0.44384984309E-01  0.51100000000E-03 0.  1.
         11    1    4    4    0    0  0.40488589349E-01  0.56446912896E-01  0.67939902506E-01  0.97168262907E-01  0.51100000000E-03 0. -1.
</event>
<event>
 8    1  0.2257781E+004  0.1043930E+01  0.7957747E-01            NaN
         13   -1    0    0    0    0  0.00000000000E+00  0.00000000000E+00  0.74505805969E-08  0.10566000000E+00  0.10566000000E+00 0.  1.
     999900   -1    0    0    0    0 -0.00000000000E+00 -0.00000000000E+00 -0.74505805969E-08  0.93827000000E+00  0.93827000000E+00 0.  1.
     999902    2    1    2    0    0 -0.44195051461E-02  0.17212747069E-01  0.29758114781E-02  0.10259115056E+01  0.10257532604E+01 0.  0.
     999903    2    3    3    0    0 -0.43257385457E-01  0.38575612062E-01 -0.11556806422E+00  0.13685728709E+00  0.44884967619E-01 0.  0.
         14    1    1    2    0    0  0.44195051461E-02 -0.17212747069E-01 -0.29758114781E-02  0.18018494425E-01  0.00000000000E+00 0.  1.
     999901    1    3    3    0    0  0.38837880311E-01 -0.21362864993E-01  0.11854387570E+00  0.88905421849E+00  0.88000000000E+00 0. -1.
        -11    1    4    4    0    0 -0.42764318844E-01  0.17450347031E-01 -0.10136031689E+00  0.11138885285E+00  0.51100000000E-03 0. -1.
         11    1    4    4    0    0 -0.49306661246E-03  0.21125265030E-01 -0.14207747330E-01  0.25468434237E-01  0.51100000000E-03 0.  1.
</event>
<event>
 8    1  0.2257781E+004  0.1043930E+01  0.7957747E-01            NaN
         13   -1    0    0    0    0  0.00000000000E+00  0.00000000000E+00  0.74505805969E-08  0.10566000000E+00  0.10566000000E+00 0. -1.
     999900   -1    0    0    0    0 -0.00000000000E+00 -0.00000000000E+00 -0.74505805969E-08  0.93827000000E+00  0.93827000000E+00 0. -1.
     999902    2    1    2    0    0 -0.37399389075E-02 -0.46579972089E-02 -0.26096263342E-01  0.10171587647E+01  0.10168063992E+01 0.  0.
     999903    2    3    3    0    0 -0.48008653047E-01 -0.16321072162E-02  0.10738208009E+00  0.12598799358E+00  0.45106195388E-01 0.  0.
         14    1    1    2    0    0  0.37399389075E-02  0.46579972089E-02  0.26096263342E-01  0.26771235336E-01  0.00000000000E+00 0. -1.
     999901    1    3    3    0    0  0.44268714139E-01 -0.30258899927E-02 -0.13347834343E+00  0.89117077108E+00  0.88000000000E+00 0. -1.
        -11    1    4    4    0    0  0.84409636371E-02 -0.17270545475E-03  0.22501438240E-01  0.24038625962E-01  0.51100000000E-03 0. -1.
         11    1    4    4    0    0 -0.56449616684E-01 -0.14594017615E-02  0.84880641847E-01  0.10194936762E+00  0.51100000000E-03 0.  1.
</event>
<event>
 8    1  0.2257781E+004  0.1043930E+01  0.7957747E-01            NaN
         13   -1    0    0    0    0  0.00000000000E+00  0.00000000000E+00  0.74505805969E-08  0.10566000000E+00  0.10566000000E+00 0.  1.
     999900   -1    0    0    0    0 -0.00000000000E+00 -0.00000000000E+00 -0.74505805969E-08  0.93827000000E+00  0.93827000000E+00 0.  1.
     999902    2    1    2    0    0 -0.76863055300E-02  0.11319169010E-01 -0.19097147666E-02  0.10301151569E+01  0.10300225175E+01 0.  0.
     999903    2    3    3    0    0  0.33322773463E-01 -0.62562492646E-01  0.11075098369E+00  0.13891782887E+00  0.44809709563E-01 0.  0.
         14    1    1    2    0    0  0.76863055300E-02 -0.11319169010E-01  0.19097147666E-02  0.13814843114E-01  0.00000000000E+00 0.  1.
     999901    1    3    3    0    0 -0.41009078993E-01  0.73881661655E-01 -0.11266069846E+00  0.89119732802E+00  0.88000000000E+00 0.  1.
        -11    1    4    4    0    0  0.23661061413E-01 -0.15151041165E-01  0.70783596466E-01  0.76157590070E-01  0.51100000000E-03 0.  1.
         11    1    4    4    0    0  0.96617120492E-02 -0.47411451481E-01  0.39967387227E-01  0.62760238798E-01  0.51100000000E-03 0. -1.
</event>
<event>
 7    1  0.2569974E+004  0.1043930E+01  0.7957747E-01            NaN
         13   -1    0    0    0    0  0.00000000000E+00  0.00000000000E+00  0.74505805969E-08  0.10566000000E+00  0.10566000000E+00 0.  1.
     999900   -1    0    0    0    0 -0.00000000000E+00 -0.00000000000E+00 -0.74505805969E-08  0.93827000000E+00  0.93827000000E+00 0. -1.
     999903    2    1    2    0    0 -0.67427196974E-01 -0.86431326032E-01  0.42016031989E-01  0.12574567535E+00  0.45053600446E-01 0.  0.
         14    1    1    2    0    0  0.23095567112E-01  0.18315803806E-01  0.14067993627E-01  0.32661633975E-01  0.00000000000E+00 0.  1.
     999901    1    1    2    0    0  0.44331629862E-01  0.68115522226E-01 -0.56084025616E-01  0.88552269068E+00  0.88000000000E+00 0. -1.
        -11    1    3    3    0    0 -0.57420523749E-01 -0.38974938396E-01  0.18394472157E-01  0.71796797265E-01  0.51100000000E-03 0. -1.
         11    1    3    3    0    0 -0.10006673225E-01 -0.47456387636E-01  0.23621559832E-01  0.53948878083E-01  0.51100000000E-03 0.  1.
</event>
<event>
 8    1  0.2257781E+004  0.1043930E+01  0.7957747E-01            NaN
         13   -1    0    0    0    0  0.00000000000E+00  0.00000000000E+00  0.74505805969E-08  0.10566000000E+00  0.10566000000E+00 0. -1.
     999900   -1    0    0    0    0 -0.00000000000E+00 -0.00000000000E+00 -0.74505805969E-08  0.93827000000E+00  0.93827000000E+00 0.  1.
     999902    2    1    2    0    0 -0.30644330415E-02  0.58548037579E-02 -0.12258424483E-01  0.10300038215E+01  0.10299096727E+01 0.  0.
     999903    2    3    3    0    0  0.10062402523E+00 -0.99630968874E-02 -0.86862219439E-01  0.14064043762E+00  0.44835586022E-01 0.  0.
         14    1    1    2    0    0  0.30644330415E-02 -0.58548037579E-02  0.12258424483E-01  0.13926178503E-01  0.00000000000E+00 0. -1.
     999901    1    3    3    0    0 -0.10368845828E+00  0.15817900645E-01  0.74603794956E-01  0.88936338388E+00  0.88000000000E+00 0. -1.
        -11    1    4    4    0    0  0.56512278759E-01  0.15373433335E-01 -0.56594381571E-01  0.81444246263E-01  0.51100000000E-03 0. -1.
         11    1    4    4    0    0  0.44111746475E-01 -0.25336530223E-01 -0.30267837868E-01  0.59196191356E-01  0.51100000000E-03 0.  1.
</event>
<event>
 8    1  0.2257781E+004  0.1043930E+01  0.7957747E-01            NaN
         13   -1    0    0    0    0  0.00000000000E+00  0.00000000000E+00  0.74505805969E-08  0.10566000000E+00  0.10566000000E+00 0. -1.
     999900   -1    0    0    0    0 -0.00000000000E+00 -0.00000000000E+00 -0.74505805969E-08  0.93827000000E+00  0.93827000000E+00 0.  1.
     999902    2    1    2    0    0 -0.38591149366E-02 -0.41002494653E-02 -0.12608434862E-01  0.10301213997E+01  0.10300288445E+01 0.  0.
     999903    2    3    3    0    0  0.46276949189E-01  0.11248689023E-01 -0.12597001240E+00  0.14130192299E+00  0.42774997211E-01 0.  0.
         14    1    1    2    0    0  0.38591149366E-02  0.41002494653E-02  0.12608434862E-01  0.13808600343E-01  0.00000000000E+00 0. -1.
     999901    1    3    3    0    0 -0.50136064126E-01 -0.15348938488E-01  0.11336157754E+00  0.88881947667E+00  0.88000000000E+00 0. -1.
        -11    1    4    4    0    0  0.22395994534E-01  0.38988611768E-02 -0.14281596718E-01  0.26851570074E-01  0.51100000000E-03 0.  1.
         11    1    4    4    0    0  0.23880954655E-01  0.73498278459E-02 -0.11168841568E+00  0.11445035292E+00  0.51100000000E-03 0. -1.
</event>
<event>
 8    1  0.2257781E+004  0.1043930E+01  0.7957747E-01            NaN
         13   -1    0    0    0    0  0.00000000000E+00  0.00000000000E+00  0.74505805969E-08  0.10566000000E+00  0.10566000000E+00 0. -1.
     999900   -1    0    0    0    0 -0.00000000000E+00 -0.00000000000E+00 -0.74505805969E-08  0.93827000000E+00  0.93827000000E+00 0. -1.
     999902    2    1    2    0    0  0.11583561833E-01 -0.70066085998E-02 -0.84266482988E-02  0.10279838447E+01  0.10278601583E+01 0.  0.
     999903    2    3    3    0    0 -0.61991690045E-01 -0.11027438483E+00  0.31399583977E-01  0.13800424934E+00  0.45341254703E-01 0.  0.
         14    1    1    2    0    0 -0.11583561833E-01  0.70066085998E-02  0.84266482988E-02  0.15946155348E-01  0.00000000000E+00 0. -1.
     999901    1    3    3    0    0  0.73575251879E-01  0.10326777623E+00 -0.39826232276E-01  0.88997959531E+00  0.88000000000E+00 0. -1.
        -11    1    4    4    0    0 -0.31920339673E-01 -0.58904049818E-01 -0.66930699220E-02  0.67332410292E-01  0.51100000000E-03 0. -1.
         11    1    4    4    0    0 -0.30071350373E-01 -0.51370335010E-01  0.38092653899E-01  0.70671839048E-01  0.51100000000E-03 0.  1.
</event>
<event>
 8    1  0.2257781E+004  0.1043930E+01  0.7957747E-01            NaN
         13   -1    0    0    0    0  0.00000000000E+00  0.00000000000E+00  0.74505805969E-08  0.10566000000E+00  0.10566000000E+00 0. -1.
     999900   -1    0    0    0    0 -0.00000000000E+00 -0.00000000000E+00 -0.74505805969E-08  0.93827000000E+00  0.93827000000E+00 0.  1.
     999902    2    1    2    0    0  0.11149067115E-01  0.66601250044E-02 -0.49801096023E-02  0.10300209938E+01  0.10299270786E+01 0.  0.
     999903    2    3    3    0    0 -0.91624873727E-02  0.89515152646E-01  0.97502233504E-01  0.13997596935E+00  0.44605747710E-01 0.  0.
         14    1    1    2    0    0 -0.11149067115E-01 -0.66601250044E-02  0.49801096023E-02  0.13909006229E-01  0.00000000000E+00 0. -1.
     999901    1    3    3    0    0  0.20311554488E-01 -0.82855027642E-01 -0.10248234311E+00  0.89004502442E+00  0.88000000000E+00 0.  1.
        -11    1    4    4    0    0 -0.20145096062E-01  0.35711405348E-01  0.21760518294E-01  0.46421015119E-01  0.51100000000E-03 0. -1.
         11    1    4    4    0    0  0.10982608689E-01  0.53803747299E-01  0.75741715210E-01  0.93554954230E-01  0.51100000000E-03 0.  1.
</event>
<event>
 8    1  0.2257781E+004  0.1043930E+01  0.7957747E-01            NaN
         13   -1    0    0    0    0  0.00000000000E+00  0.00000000000E+00  0.74505805969E-08  0.10566000000E+00  0.10566000000E+00 0. -1.
     999900   -1    0    0    0    0 -0.00000000000E+00 -0.00000000000E+00 -0.74505805969E-08  0.93827000000E+00  0.93827000000E+00 0. -1.
     999902    2    1    2    0    0  0.66962754169E-02  0.13211340213E-01 -0.19022526450E-02  0.10289968764E+01  0.10288885136E+01 0.  0.
     999903    2    3    3    0    0  0.10798044522E-01 -0.77429467609E-01  0.98806547075E-01  0.13861783192E+00  0.57794890439E-01 0.  0.
         14    1    1    2    0    0 -0.66962754169E-02 -0.13211340213E-01  0.19022526450E-02  0.14933123578E-01  0.00000000000E+00 0.  1.
     999901    1    3    3    0    0 -0.41017691053E-02  0.90640807821E-01 -0.10070879972E+00  0.89037904450E+00  0.88000000000E+00 0. -1.
        -11    1    4    4    0    0  0.24730076257E-01 -0.59290931881E-01  0.40400247517E-01  0.75890924328E-01  0.51100000000E-03 0. -1.
         11    1    4    4    0    0 -0.13932031735E-01 -0.18138535728E-01  0.58406299558E-01  0.62726907589E-01  0.51100000000E-03 0.  1.
</event>
<event>
 8    1  0.2257781E+004  0.1043930E+01  0.7957747E-01            NaN
         13   -1    0    0    0    0  0.00000000000E+00  0.00000000000E+00  0.74505805969E-08  0.10566000000E+00  0.10566000000E+00 0.  1.
     999900   -1    0    0    0    0 -0.00000000000E+00 -0.00000000000E+00 -0.74505805969E-08  0.93827000000E+00  0.93827000000E+00 0.  1.
     999902    2    1    2    0    0 -0.10278003167E-01 -0.33320427381E-02  0.74315039377E-02  0.10308163770E+01  0.10307329605E+01 0.  0.
     999903    2    3    3    0    0 -0.79024578611E-01 -0.10527921297E+00  0.28667522808E-01  0.14201365103E+00  0.44916071822E-01 0.  0.
         14    1    1    2    0    0  0.10278003167E-01  0.33320427381E-02 -0.74315039377E-02  0.13113623019E-01  0.00000000000E+00 0.  1.
     999901    1    3    3    0    0  0.68746575443E-01  0.10194717023E+00 -0.21236018870E-01  0.88880272595E+00  0.88000000000E+00 0.  1.
        -11    1    4    4    0    0 -0.47361502571E-01 -0.51845222717E-01  0.36949848329E-01  0.79351064624E-01  0.51100000000E-03 0.  1.
         11    1    4    4    0    0 -0.31663076039E-01 -0.53433990252E-01 -0.82823255208E-02  0.62662586410E-01  0.51100000000E-03 0. -1.
</event>
<event>
 8    1  0.2257781E+004  0.1043930E+01  0.7957747E-01            NaN
         13   -1    0    0    0    0  0.00000000000E+00  0.00000000000E+00  0.74505805969E-08  0.10566000000E+00  0.10566000000E+00 0. -1.
     999900   -1    0    0    0    0 -0.00000000000E+00 -0.00000000000E+00 -0.74505805969E-08  0.93827000000E+00  0.93827000000E+00 0.  1.
     999902    2    1    2    0    0 -0.20862170503E-03  0.44205180547E-02  0.12851657125E-01  0.10303377377E+01  0.10302480790E+01 0.  0.
     999903    2    3    3    0    0 -0.67446202437E-02  0.11904588266E+00  0.61617049883E-01  0.14154093473E+00  0.44941776638E-01 0.  0.
         14    1    1    2    0    0  0.20862170503E-03 -0.44205180547E-02 -0.12851657125E-01  0.13592262275E-01  0.00000000000E+00 0.  1.
     999901    1    3    3    0    0  0.65359985386E-02 -0.11462536460E+00 -0.48765392758E-01  0.88879680300E+00  0.88000000000E+00 0.  1.
        -11    1    4    4    0    0  0.54151845643E-02  0.11404074121E+00  0.56880242878E-01  0.12755484323E+00  0.51100000000E-03 0. -1.
         11    1    4    4    0    0 -0.12159804808E-01  0.50051414470E-02  0.47368070049E-02  0.13986091501E-01  0.51100000000E-03 0.  1.
</event>
<event>
 8    1  0.2257781E+004  0.1043930E+01  0.7957747E-01            NaN
         13   -1    0    0    0    0  0.00000000000E+00  0.00000000000E+00  0.74505805969E-08  0.10566000000E+00  0.10566000000E+00 0.  1.
     999900   -1    0    0    0    0 -0.00000000000E+00 -0.00000000000E+00 -0.74505805969E-08  0.93827000000E+00  0.93827000000E+00 0.  1.
     999902    2    1    2    0    0 -0.94080715078E-02  0.62929986094E-02  0.72384205211E-02  0.10304946596E+01  0.10304070725E+01 0.  0.
     999903    2    3    3    0    0 -0.44668699815E-01 -0.10314834635E+00 -0.69652653456E-01  0.13968999121E+00  0.45021410610E-01 0.  0.
         14    1    1    2    0    0  0.94080715078E-02 -0.62929986094E-02 -0.72384205211E-02  0.13435340436E-01  0.00000000000E+00 0. -1.
     999901    1    3    3    0    0  0.35260628307E-01  0.10944134496E+00  0.76891073978E-01  0.89080466835E+00  0.88000000000E+00 0. -1.
        -11    1    4    4    0    0  0.53220828586E-02 -0.34843005607E-02 -0.13314785248E-01  0.14765146242E-01  0.51100000000E-03 0. -1.
         11    1    4    4    0    0 -0.49990782674E-01 -0.99664045793E-01 -0.56337868209E-01  0.12492484497E+00  0.51100000000E-03 0.  1.
</event>
<event>
 8    1  0.2257781E+004  0.1043930E+01  0.7957747E-01            NaN
         13   -1    0    0    0    0  0.00000000000E+00  0.00000000000E+00  0.74505805969E-08  0.10566000000E+00  0.10566000000E+00 0. -1.
     999900   -1    0    0    0    0 -0.00000000000E+00 -0.00000000000E+00 -0.74505805969E-08  0.93827000000E+00  0.93827000000E+00 0.  1.
     999902    2    1    2    0    0 -0.52825311514E-02 -0.93269813744E-02 -0.16625033268E-01  0.10241489624E+01  0.10239579131E+01 0.  0.
     999903    2    3    3    0    0 -0.61124770455E-02  0.49138740102E-01 -0.11877006677E+00  0.13631308948E+00  0.44977232540E-01 0.  0.
         14    1    1    2    0    0  0.52825311514E-02  0.93269813744E-02  0.16625033268E-01  0.19781037589E-01  0.00000000000E+00 0. -1.
     999901    1    3    3    0    0  0.82994589409E-03 -0.58465721477E-01  0.10214503351E+00  0.88783587293E+00  0.88000000000E+00 0. -1.
        -11    1    4    4    0    0  0.73102232450E-02  0.30774106161E-01 -0.26464293065E-01  0.41244452988E-01  0.51100000000E-03 0.  1.
         11    1    4    4    0    0 -0.13422700290E-01  0.18364633942E-01 -0.92305773709E-01  0.95068636489E-01  0.51100000000E-03 0. -1.
</event>
<event>
 8    1  0.2257781E+004  0.1043930E+01  0.7957747E-01            NaN
         13   -1    0    0    0    0  0.00000000000E+00  0.00000000000E+00  0.74505805969E-08  0.10566000000E+00  0.10566000000E+00 0.  1.
     999900   -1    0    0    0    0 -0.00000000000E+00 -0.00000000000E+00 -0.74505805969E-08  0.93827000000E+00  0.93827000000E+00 0.  1.
     999902    2    1    2    0    0 -0.24752880040E-02  0.47968987968E-02 -0.13722631180E-01  0.10291838854E+01  0.10290782391E+01 0.  0.
     999903    2    3    3    0    0 -0.98454560487E-01  0.88425690647E-01  0.21837162151E-03  0.13991443967E+00  0.45426858753E-01 0.  0.
         14    1    1    2    0    0  0.24752880040E-02 -0.47968987968E-02  0.13722631180E-01  0.14746114582E-01  0.00000000000E+00 0.  1.
     999901    1    3    3    0    0  0.95979272483E-01 -0.83628791851E-01 -0.13941002802E-01  0.88926944574E+00  0.88000000000E+00 0. -1.
        -11    1    4    4    0    0 -0.20953053205E-01  0.11318407394E-01 -0.16967513703E-01  0.29245417193E-01  0.51100000000E-03 0. -1.
         11    1    4    4    0    0 -0.77501507282E-01  0.77107283253E-01  0.17185885324E-01  0.11066902248E+00  0.51100000000E-03 0.  1.
</event>
<event>
 8    1  0.2257781E+004  0.1043930E+01  0.7957747E-01            NaN
         13   -1    0    0    0    0  0.00000000000E+00  0.00000000000E+00  0.74505805969E-08  0.10566000000E+00  0.10566000000E+00 0. -1.
     999900   -1    0    0    0    0 -0.00000000000E+00 -0.00000000000E+00 -0.74505805969E-08  0.93827000000E+00  0.93827000000E+00 0. -1.
     999902    2    1    2    0    0 -0.11519581580E-02 -0.52796124466E-02 -0.12184843719E-01  0.10306006440E+01  0.10305144422E+01 0.  0.
     999903    2    3    3    0    0  0.94801501579E-01  0.87660455257E-01 -0.31040954935E-01  0.14031952235E+00  0.45324908733E-01 0.  0.
         14    1    1    2    0    0  0.11519581580E-02  0.52796124466E-02  0.12184843719E-01  0.13329356010E-01  0.00000000000E+00 0. -1.
     999901    1    3    3    0    0 -0.95953459737E-01 -0.92940067704E-01  0.18856111216E-01  0.89028112164E+00  0.88000000000E+00 0.  1.
        -11    1    4    4    0    0  0.27854606802E-01  0.36755694256E-01  0.92876565942E-02  0.47046592506E-01  0.51100000000E-03 0. -1.
         11    1    4    4    0    0  0.66946894776E-01  0.50904761001E-01 -0.40328611529E-01  0.93272929844E-01  0.51100000000E-03 0.  1.
</event>
<event>
 8    1  0.2257781E+004  0.1043930E+01  0.7957747E-01            NaN
         13   -1    0    0    0    0  0.00000000000E+00  0.00000000000E+00  0.74505805969E-08  0.10566000000E+00  0.10566000000E+00 0. -1.
     999900   -1    0    0    0    0 -0.00000000000E+00 -0.00000000000E+00 -0.74505805969E-08  0.93827000000E+00  0.93827000000E+00 0.  1.
     999902    2    1    2    0    0  0.49070775086E-02 -0.58361825450E-02  0.12169141868E-01  0.10295693437E+01  0.10294691860E+01 0.  0.
     999903    2    3    3    0    0  0.74219562401E-01  0.77048620523E-01 -0.72833780597E-01  0.13889566158E+00  0.50420351471E-01 0.  0.
         14    1    1    2    0    0 -0.49070775086E-02  0.58361825450E-02 -0.12169141868E-01  0.14360656329E-01  0.00000000000E+00 0.  1.
     999901    1    3    3    0    0 -0.69312484892E-01 -0.82884803068E-01  0.85002922465E-01  0.89067368209E+00  0.88000000000E+00 0. -1.
        -11    1    4    4    0    0  0.52613500293E-01  0.80561526169E-01 -0.61996874301E-01  0.11446490054E+00  0.51100000000E-03 0. -1.
         11    1    4    4    0    0  0.21606062108E-01 -0.35129056466E-02 -0.10836906296E-01  0.24430761040E-01  0.51100000000E-03 0.  1.
</event>
<event>
 8    1  0.2257781E+004  0.1043930E+01  0.7957747E-01            NaN
         13   -1    0    0    0    0  0.00000000000E+00  0.00000000000E+00  0.74505805969E-08  0.10566000000E+00  0.10566000000E+00 0.  1.
     999900   -1    0    0    0    0 -0.00000000000E+00 -0.00000000000E+00 -0.74505805969E-08  0.93827000000E+00  0.93827000000E+00 0. -1.
     999902    2    1    2    0    0 -0.45000349332E-02  0.27603838572E-02 -0.14317873548E-01  0.10286698710E+01  0.10285566742E+01 0.  0.
     999903    2    3    3    0    0  0.10523230586E+00  0.16863675799E-01  0.73650818193E-01  0.13739068907E+00  0.45755181841E-01 0.  0.
         14    1    1    2    0    0  0.45000349332E-02 -0.27603838572E-02  0.14317873548E-01  0.15260128976E-01  0.00000000000E+00 0.  1.
     999901    1    3    3    0    0 -0.10973234079E+00 -0.14103291941E-01 -0.87968691741E-01  0.89127918195E+00  0.88000000000E+00 0.  1.
        -11    1    4    4    0    0  0.44331745300E-01 -0.14018171956E-01  0.39654974104E-01  0.61111299107E-01  0.51100000000E-03 0. -1.
         11    1    4    4    0    0  0.60900560555E-01  0.30881847755E-01  0.33995844089E-01  0.76279389963E-01  0.51100000000E-03 0.  1.
</event>
<event>
 8    1  0.2257781E+004  0.1043930E+01  0.7957747E-01            NaN
         13   -1    0    0    0    0  0.00000000000E+00  0.00000000000E+00  0.74505805969E-08  0.10566000000E+00  0.10566000000E+00 0. -1.
     999900   -1    0    0    0    0 -0.00000000000E+00 -0.00000000000E+00 -0.74505805969E-08  0.93827000000E+00  0.93827000000E+00 0.  1.
     999902    2    1    2    0    0 -0.40890819669E-02  0.12820795974E-01 -0.46125554698E-02  0.10297043517E+01  0.10296060814E+01 0.  0.
     999903    2    3    3    0    0 -0.11195563736E+00  0.73101866822E-01  0.74342566434E-02  0.14098947791E+00  0.44100079807E-01 0.  0.
         14    1    1    2    0    0  0.40890819669E-02 -0.12820795974E-01  0.46125554698E-02  0.14225648270E-01  0.00000000000E+00 0.  1.
     999901    1    3    3    0    0  0.10786655539E+00 -0.60281070848E-01 -0.12046812113E-01  0.88871487382E+00  0.88000000000E+00 0.  1.
        -11    1    4    4    0    0 -0.18855904237E-01  0.35530393728E-01  0.52605313943E-02  0.40569549105E-01  0.51100000000E-03 0. -1.
         11    1    4    4    0    0 -0.93099733122E-01  0.37571473094E-01  0.21737252491E-02  0.10041992880E+00  0.51100000000E-03 0.  1.
</event>
<event>
 8    1  0.2257781E+004  0.1043930E+01  0.7957747E-01            NaN
         13   -1    0    0    0    0  0.00000000000E+00  0.00000000000E+00  0.74505805969E-08  0.10566000000E+00  0.10566000000E+00 0. -1.
     999900   -1    0    0    0    0 -0.00000000000E+00 -0.00000000000E+00 -0.74505805969E-08  0.93827000000E+00  0.93827000000E+00 0.  1.
     999902    2    1    2    0    0  0.63530333424E-02 -0.52462059014E-02 -0.10632283820E-01  0.10304790087E+01  0.10303912160E+01 0.  0.
     999903    2    3    3    0    0 -0.76935127349E-01 -0.10796535654E+00 -0.11859386921E-01  0.14059719212E+00  0.45292309934E-01 0.  0.
         14    1    1    2    0    0 -0.63530333424E-02  0.52462059014E-02  0.10632283820E-01  0.13450991348E-01  0.00000000000E+00 0. -1.
     999901    1    3    3    0    0  0.83288160692E-01  0.10271915064E+00  0.12271031010E-02  0.88988181654E+00  0.88000000000E+00 0.  1.
        -11    1    4    4    0    0 -0.27564316911E-01 -0.58775798671E-01  0.13724394448E-01  0.66355152024E-01  0.51100000000E-03 0. -1.
         11    1    4    4    0    0 -0.49370810438E-01 -0.49189557872E-01 -0.25583781368E-01  0.74242040092E-01  0.51100000000E-03 0.  1.
</event>
<event>
 8    1  0.2257781E+004  0.1043930E+01  0.7957747E-01            NaN
         13   -1    0    0    0    0  0.00000000000E+00  0.00000000000E+00  0.74505805969E-08  0.10566000000E+00  0.10566000000E+00 0. -1.
     999900   -1    0    0    0    0 -0.00000000000E+00 -0.00000000000E+00 -0.74505805969E-08  0.93827000000E+00  0.93827000000E+00 0.  1.
     999902    2    1    2    0    0  0.11553688549E-01  0.21264313158E-02 -0.50982645979E-02  0.10311236839E+01  0.10310441551E+01 0.  0.
     999903    2    3    3    0    0 -0.11059958956E+00  0.47663463656E-01  0.54204888376E-01  0.13954535949E+00  0.45062872235E-01 0.  0.
         14    1    1    2    0    0 -0.11553688549E-01 -0.21264313158E-02  0.50982645979E-02  0.12806316065E-01  0.00000000000E+00 0. -1.
     999901    1    3    3    0    0  0.12215327810E+00 -0.45537032341E-01 -0.59303152974E-01  0.89157832444E+00  0.88000000000E+00 0.  1.
        -11    1    4    4    0    0 -0.51112645745E-01  0.46331476919E-01  0.26422364466E-01  0.73874967164E-01  0.51100000000E-03 0.  1.
         11    1    4    4    0    0 -0.59486943810E-01  0.13319867378E-02  0.27782523911E-01  0.65670392327E-01  0.51100000000E-03 0. -1.
</event>
<event>
 8    1  0.2257781E+004  0.1043930E+01  0.7957747E-01            NaN
         13   -1    0    0    0    0  0.00000000000E+00  0.00000000000E+00  0.74505805969E-08  0.10566000000E+00  0.10566000000E+00 0.  1.
     999900   -1    0    0    0    0 -0.00000000000E+00 -0.00000000000E+00 -0.74505805969E-08  0.93827000000E+00  0.93827000000E+00 0. -1.
     999902    2    1    2    0    0 -0.11553524375E-01 -0.88347495834E-02  0.45844014004E-02  0.10286802963E+01  0.10285672553E+01 0.  0.
     999903    2    3    3    0    0 -0.83404881982E-01  0.65224020478E-01  0.81333491502E-01  0.13933349005E+00  0.39851441938E-01 0.  0.
         14    1    1    2    0    0  0.11553524375E-01  0.88347495834E-02 -0.45844014004E-02  0.15249703666E-01  0.00000000000E+00 0. -1.
     999901    1    3    3    0    0  0.71851357607E-01 -0.74058770061E-01 -0.76749090102E-01  0.88934680628E+00  0.88000000000E+00 0. -1.
        -11    1    4    4    0    0 -0.69996344320E-01  0.32118391715E-01  0.60870283260E-01  0.98165838303E-01  0.51100000000E-03 0. -1.
         11    1    4    4    0    0 -0.13408537662E-01  0.33105628763E-01  0.20463208242E-01  0.41167651749E-01  0.51100000000E-03 0.  1.
</event>
<event>
 8    1  0.2257781E+004  0.1043930E+01  0.7957747E-01            NaN
         13   -1    0    0    0    0  0.00000000000E+00  0.00000000000E+00  0.74505805969E-08  0.10566000000E+00  0.10566000000E+00 0.  1.
     999900   -1    0    0    0    0 -0.00000000000E+00 -0.00000000000E+00 -0.74505805969E-08  0.93827000000E+00  0.93827000000E+00 0. -1.
     999902    2    1    2    0    0  0.24304011552E-02  0.16883924916E-01 -0.72867187654E-02  0.10253808749E+01  0.10252130845E+01 0.  0.
     999903    2    3    3    0    0  0.12431301655E+00  0.62196324346E-02  0.33137565613E-01  0.13599725588E+00  0.43643389445E-01 0.  0.
         14    1    1    2    0    0 -0.24304011552E-02 -0.16883924916E-01  0.72867187654E-02  0.18549125066E-01  0.00000000000E+00 0. -1.
     999901    1    3    3    0    0 -0.12188261539E+00  0.10664292481E-01 -0.40424284378E-01  0.88938361905E+00  0.88000000000E+00 0. -1.
        -11    1    4    4    0    0  0.24453571196E-01 -0.53743448744E-02 -0.95185901675E-02  0.26790397661E-01  0.51100000000E-03 0. -1.
         11    1    4    4    0    0  0.99859445351E-01  0.11593977309E-01  0.42656155780E-01  0.10920685822E+00  0.51100000000E-03 0.  1.
</event>
<event>
 8    1  0.2257781E+004  0.1043930E+01  0.7957747E-01            NaN
         13   -1    0    0    0    0  0.00000000000E+00  0.00000000000E+00  0.74505805969E-08  0.10566000000E+00  0.10566000000E+00 0.  1.
     999900   -1    0    0    0    0 -0.00000000000E+00 -0.00000000000E+00 -0.74505805969E-08  0.93827000000E+00  0.93827000000E+00 0. -1.
     999902    2    1    2    0    0  0.80342869657E-02  0.10852443750E-01 -0.16921817400E-02  0.10303215915E+01  0.10302317182E+01 0.  0.
     999903    2    3    3    0    0 -0.77033881387E-01 -0.26845061497E-01  0.10334224449E+00  0.13920435688E+00  0.45203509501E-01 0.  0.
         14    1    1    2    0    0 -0.80342869657E-02 -0.10852443750E-01  0.16921817400E-02  0.13608408483E-01  0.00000000000E+00 0. -1.
     999901    1    3    3    0    0  0.85068168352E-01  0.37697505247E-01 -0.10503442623E+00  0.89111723463E+00  0.88000000000E+00 0. -1.
        -11    1    4    4    0    0 -0.17602654051E-01  0.11760936892E-01  0.15015230938E-01  0.25959417314E-01  0.51100000000E-03 0. -1.
         11    1    4    4    0    0 -0.59431227336E-01 -0.38605998388E-01  0.88327013550E-01  0.11324493957E+00  0.51100000000E-03 0.  1.
</event>
<event>
 7    1  0.2257781E+004  0.1043930E+01  0.7957747E-01            NaN
         13   -1    0    0    0    0  0.00000000000E+00  0.00000000000E+00  0.74505805969E-08  0.10566000000E+00  0.10566000000E+00 0. -1.
     999900   -1    0    0    0    0 -0.00000000000E+00 -0.00000000000E+00 -0.74505805969E-08  0.93827000000E+00  0.93827000000E+00 0.  1.
     999902    2    1    2    0    0  0.95399579709E-03  0.13883908867E-01  0.64690926926E-03  0.10299983266E+01  0.10299041029E+01 0.  0.
         14    1    1    2    0    0 -0.95399579709E-03 -0.13883908867E-01 -0.64690926926E-03  0.13931673446E-01  0.00000000000E+00 0.  1.
     999901    1    3    3    0    0  0.10990885514E-02  0.93978390423E-01 -0.11068500603E+00  0.89189927482E+00  0.88000000000E+00 0.  1.
        -11    1    3    3    0    0 -0.74648553051E-02 -0.56433954871E-01  0.78571796228E-01  0.97027334348E-01  0.51100000000E-03 0.  1.
         11    1    3    3    0    0  0.73197625508E-02 -0.23660526685E-01  0.32760119069E-01  0.41071717388E-01  0.51100000000E-03 0. -1.
</event>
<event>
 8    1  0.2257781E+004  0.1043930E+01  0.7957747E-01            NaN
         13   -1    0    0    0    0  0.00000000000E+00  0.00000000000E+00  0.74505805969E-08  0.10566000000E+00  0.10566000000E+00 0. -1.
     999900   -1    0    0    0    0 -0.00000000000E+00 -0.00000000000E+00 -0.74505805969E-08  0.93827000000E+00  0.93827000000E+00 0. -1.
     999902    2    1    2    0    0 -0.42995844679E-02  0.12738110721E-01  0.44280714787E-02  0.10297753644E+01  0.10296780795E+01 0.  0.
     999903    2    3    3    0    0  0.25409480076E-01  0.10831316234E+00 -0.70458534283E-01  0.14094173391E+00  0.50227328120E-01 0.  0.
         14    1    1    2    0    0  0.42995844679E-02 -0.12738110721E-01 -0.44280714787E-02  0.14154635579E-01  0.00000000000E+00 0.  1.
     999901    1    3    3    0    0 -0.29709064544E-01 -0.95575051618E-01  0.74886605761E-01  0.88883363051E+00  0.88000000000E+00 0.  1.
        -11    1    4    4    0    0  0.16968025675E-01  0.73071511139E-01 -0.72917375795E-01  0.10461627239E+00  0.51100000000E-03 0. -1.
         11    1    4    4    0    0  0.84414544004E-02  0.35241651200E-01  0.24588415128E-02  0.36325461515E-01  0.51100000000E-03 0.  1.
</event>
<event>
 8    1  0.2257781E+004  0.1043930E+01  0.7957747E-01            NaN
         13   -1    0    0    0    0  0.00000000000E+00  0.00000000000E+00  0.74505805969E-08  0.10566000000E+00  0.10566000000E+00 0.  1.
     999900   -1    0    0    0    0 -0.00000000000E+00 -0.00000000000E+00 -0.74505805969E-08  0.93827000000E+00  0.93827000000E+00 0.  1.
     999902    2    1    2    0    0 -0.12152470970E-01 -0.46023249365E-02  0.20714456574E-02  0.10307711690E+01  0.10306871727E+01 0.  0.
     999903    2    3    3    0    0  0.65049360991E-01  0.64927115744E-01 -0.94743483391E-01  0.13938595686E+00  0.44779097813E-01 0.  0.
         14    1    1    2    0    0  0.12152470970E-01  0.46023249365E-02 -0.20714456574E-02  0.13158830974E-01  0.00000000000E+00 0.  1.
     999901    1    3    3    0    0 -0.77201831961E-01 -0.69529440680E-01  0.96814929048E-01  0.89138521216E+00  0.88000000000E+00 0. -1.
        -11    1    4    4    0    0  0.29270197804E-01  0.13865994218E-02 -0.26550552756E-01  0.39545671192E-01  0.51100000000E-03 0. -1.
         11    1    4    4    0    0  0.35779163187E-01  0.63540516322E-01 -0.68192930635E-01  0.99840285669E-01  0.51100000000E-03 0.  1.
</event>
<event>
 8    1  0.2257781E+004  0.1043930E+01  0.7957747E-01            NaN
         13   -1    0    0    0    0  0.00000000000E+00  0.00000000000E+00  0.74505805969E-08  0.10566000000E+00  0.10566000000E+00 0. -1.
     999900   -1    0    0    0    0 -0.00000000000E+00 -0.00000000000E+00 -0.74505805969E-08  0.93827000000E+00  0.93827000000E+00 0. -1.
     999902    2    1    2    0    0  0.10148802920E-01  0.90190064027E-02 -0.71830731425E-03  0.10303338004E+01  0.10302440894E+01 0.  0.
     999903    2    3    3    0    0  0.33965403158E-01 -0.39296613794E-01 -0.12225885369E+00  0.14034855673E+00  0.45305823070E-01 0.  0.
         14    1    1    2    0    0 -0.10148802920E-01 -0.90190064027E-02  0.71830731425E-03  0.13596199564E-01  0.00000000000E+00 0. -1.
     999901    1    3    3    0    0 -0.23816600238E-01  0.48315620197E-01  0.12154054637E+00  0.88998524371E+00  0.88000000000E+00 0.  1.
        -11    1    4    4    0    0  0.59918923931E-02 -0.42460123872E-02 -0.74389419348E-01  0.74752780735E-01  0.51100000000E-03 0. -1.
         11    1    4    4    0    0  0.27973510765E-01 -0.35050601407E-01 -0.47869434338E-01  0.65595775995E-01  0.51100000000E-03 0.  1.
</event>
<event>
 8    1  0.2257781E+004  0.1043930E+01  0.7957747E-01            NaN
         13   -1    0    0    0    0  0.00000000000E+00  0.00000000000E+00  0.74505805969E-08  0.10566000000E+00  0.10566000000E+00 0.  1.
     999900   -1    0    0    0    0 -0.00000000000E+00 -0.00000000000E+00 -0.74505805969E-08  0.93827000000E+00  0.93827000000E+00 0. -1.
     999902    2    1    2    0    0  0.28263884952E-03  0.73895848239E-02 -0.10391359715E-01  0.10311759338E+01  0.10310970566E+01 0.  0.
     999903    2    3    3    0    0  0.47679708883E-01  0.62972277578E-01 -0.10936289618E+00  0.14262020507E+00  0.46275451933E-01 0.  0.
         14    1    1    2    0    0 -0.28263884952E-03 -0.73895848239E-02  0.10391359715E-01  0.12754066226E-01  0.00000000000E+00 0. -1.
     999901    1    3    3    0    0 -0.47397070034E-01 -0.55582692754E-01  0.98971536462E-01  0.88855572870E+00  0.88000000000E+00 0.  1.
        -11    1    4    4    0    0  0.55959206082E-01  0.47443511675E-01 -0.94094333157E-01  0.11931606848E+00  0.51100000000E-03 0.  1.
         11    1    4    4    0    0 -0.82794971981E-02  0.15528765903E-01 -0.15268563020E-01  0.23304136586E-01  0.51100000000E-03 0. -1.
</event>
<event>
 8    1  0.2257781E+004  0.1043930E+01  0.7957747E-01            NaN
         13   -1    0    0    0    0  0.00000000000E+00  0.00000000000E+00  0.74505805969E-08  0.10566000000E+00  0.10566000000E+00 0. -1.
     999900   -1    0    0    0    0 -0.00000000000E+00 -0.00000000000E+00 -0.74505805969E-08  0.93827000000E+00  0.93827000000E+00 0. -1.
     999902    2    1    2    0    0  0.12154545519E-01 -0.31019467296E-02 -0.36018876803E-02  0.10308789983E+01  0.10307963817E+01 0.  0.
     999903    2    3    3    0    0 -0.89875032634E-01  0.91732396637E-01  0.31031773835E-01  0.13924954724E+00  0.43989900383E-01 0.  0.
         14    1    1    2    0    0 -0.12154545519E-01  0.31019467296E-02  0.36018876803E-02  0.13051001692E-01  0.00000000000E+00 0.  1.
     999901    1    3    3    0    0  0.10202957815E+00 -0.94834343367E-01 -0.34633661515E-01  0.89162945107E+00  0.88000000000E+00 0.  1.
        -11    1    4    4    0    0 -0.69888336976E-01  0.68449734640E-01  0.42269335206E-01  0.10656783585E+00  0.51100000000E-03 0.  1.
         11    1    4    4    0    0 -0.19986695659E-01  0.23282661997E-01 -0.11237561371E-01  0.32681711393E-01  0.51100000000E-03 0. -1.
</event>
<event>
 8    1  0.2257781E+004  0.1043930E+01  0.7957747E-01            NaN
         13   -1    0    0    0    0  0.00000000000E+00  0.00000000000E+00  0.74505805969E-08  0.10566000000E+00  0.10566000000E+00 0.  1.
     999900   -1    0    0    0    0 -0.00000000000E+00 -0.00000000000E+00 -0.74505805969E-08  0.93827000000E+00  0.93827000000E+00 0. -1.
     999902    2    1    2    0    0  0.99098870117E-02  0.78484124752E-03  0.13799527073E-02  0.10338937604E+01  0.10338450472E+01 0.  0.
     999903    2    3    3    0    0  0.76692873718E-01 -0.57795063659E-01 -0.97544931457E-01  0.14390628559E+00  0.44406521096E-01 0.  0.
         14    1    1    2    0    0 -0.99098870117E-02 -0.78484124752E-03 -0.13799527073E-02  0.10036239627E-01  0.00000000000E+00 0. -1.
     999901    1    3    3    0    0 -0.66782986706E-01  0.58579904906E-01  0.98924884164E-01  0.88998747479E+00  0.88000000000E+00 0.  1.
        -11    1    4    4    0    0  0.47908415872E-01 -0.84257069664E-02 -0.44141452059E-01  0.65688185849E-01  0.51100000000E-03 0.  1.
         11    1    4    4    0    0  0.28784457846E-01 -0.49369356692E-01 -0.53403479397E-01  0.78218099737E-01  0.51100000000E-03 0. -1.
</event>
<event>
 8    1  0.2257781E+004  0.1043930E+01  0.7957747E-01            NaN
         13   -1    0    0    0    0  0.00000000000E+00  0.00000000000E+00  0.74505805969E-08  0.10566000000E+00  0.10566000000E+00 0. -1.
     999900   -1    0    0    0    0 -0.00000000000E+00 -0.00000000000E+00 -0.74505805969E-08  0.93827000000E+00  0.93827000000E+00 0. -1.
     999902    2    1    2    0    0 -0.11962617792E-01  0.96231535287E-04  0.80782914454E-02  0.10294948943E+01  0.10293936881E+01 0.  0.
     999903    2    3    3    0    0  0.10249006175E+00  0.26809890301E-01 -0.75670275160E-01  0.13773996278E+00  0.44981372018E-01 0.  0.
         14    1    1    2    0    0  0.11962617792E-01 -0.96231535287E-04 -0.80782914454E-02  0.14435105736E-01  0.00000000000E+00 0.  1.
     999901    1    3    3    0    0 -0.11445267954E+00 -0.26713658766E-01  0.83748566606E-01  0.89175493148E+00  0.88000000000E+00 0.  1.
        -11    1    4    4    0    0  0.68649578750E-01 -0.10836682151E-02 -0.31660057792E-01  0.75607931990E-01  0.51100000000E-03 0.  1.
         11    1    4    4    0    0  0.33840482997E-01  0.27893558516E-01 -0.44010217368E-01  0.62132030789E-01  0.51100000000E-03 0. -1.
</event>
<event>
 8    1  0.2257781E+004  0.1043930E+01  0.7957747E-01            NaN
         13   -1    0    0    0    0  0.00000000000E+00  0.00000000000E+00  0.74505805969E-08  0.10566000000E+00  0.10566000000E+00 0. -1.
     999900   -1    0    0    0    0 -0.00000000000E+00 -0.00000000000E+00 -0.74505805969E-08  0.93827000000E+00  0.93827000000E+00 0. -1.
     999902    2    1    2    0    0 -0.11579389017E-01 -0.38436873568E-02  0.59937919237E-02  0.10303365558E+01  0.10302468814E+01 0.  0.
     999903    2    3    3    0    0 -0.32793241578E-01  0.12588873719E+00 -0.25609581602E-01  0.14001116435E+00  0.44987827542E-01 0.  0.
         14    1    1    2    0    0  0.11579389017E-01  0.38436873568E-02 -0.59937919237E-02  0.13593444160E-01  0.00000000000E+00 0.  1.
     999901    1    3    3    0    0  0.21213852561E-01 -0.12973242455E+00  0.31603373526E-01  0.89032539149E+00  0.88000000000E+00 0. -1.
        -11    1    4    4    0    0 -0.10390749883E-01  0.10761456652E+00 -0.14720631645E-01  0.10911379714E+00  0.51100000000E-03 0.  1.
         11    1    4    4    0    0 -0.22402491695E-01  0.18274170674E-01 -0.10888949957E-01  0.30897367204E-01  0.51100000000E-03 0. -1.
</event>
<event>
 8    1  0.2257781E+004  0.1043930E+01  0.7957747E-01            NaN
         13   -1    0    0    0    0  0.00000000000E+00  0.00000000000E+00  0.74505805969E-08  0.10566000000E+00  0.10566000000E+00 0.  1.
     999900   -1    0    0    0    0 -0.00000000000E+00 -0.00000000000E+00 -0.74505805969E-08  0.93827000000E+00  0.93827000000E+00 0.  1.
     999902    2    1    2    0    0  0.49875293560E-02 -0.67158526668E-02  0.10744879674E-01  0.10303127108E+01  0.10302227193E+01 0.  0.
     999903    2    3    3    0    0 -0.10797699970E+00  0.68713259043E-01 -0.29906776654E-01  0.13896368102E+00  0.45121446341E-01 0.  0.
         14    1    1    2    0    0 -0.49875293560E-02  0.67158526668E-02 -0.10744879674E-01  0.13617289207E-01  0.00000000000E+00 0. -1.
     999901    1    3    3    0    0  0.11296452906E+00 -0.75429111709E-01  0.40651656329E-01  0.89134902977E+00  0.88000000000E+00 0. -1.
        -11    1    4    4    0    0 -0.70542871307E-02  0.18959987090E-01  0.55582070186E-02  0.20985682348E-01  0.51100000000E-03 0.  1.
         11    1    4    4    0    0 -0.10092271257E+00  0.49753271953E-01 -0.35464983673E-01  0.11797799867E+00  0.51100000000E-03 0. -1.
</event>
<event>
 8    1  0.2257781E+004  0.1043930E+01  0.7957747E-01            NaN
         13   -1    0    0    0    0  0.00000000000E+00  0.00000000000E+00  0.74505805969E-08  0.10566000000E+00  0.10566000000E+00 0. -1.
     999900   -1    0    0    0    0 -0.00000000000E+00 -0.00000000000E+00 -0.74505805969E-08  0.93827000000E+00  0.93827000000E+00 0. -1.
     999902    2    1    2    0    0  0.94102356638E-02 -0.91130547256E-02 -0.69775347089E-02  0.10290879553E+01  0.10289809198E+01 0.  0.
     999903    2    3    3    0    0  0.67941321281E-01  0.89476213845E-01  0.67576788248E-01  0.13852404461E+00  0.44724407705E-01 0.  0.
         14    1    1    2    0    0 -0.94102356638E-02  0.91130547256E-02  0.69775347089E-02  0.14842044748E-01  0.00000000000E+00 0. -1.
     999901    1    3    3    0    0 -0.58531085617E-01 -0.98589268571E-01 -0.74554322957E-01  0.89056391064E+00  0.88000000000E+00 0.  1.
        -11    1    4    4    0    0  0.36817787499E-01  0.14308766306E-01  0.20033840242E-01  0.44293409728E-01  0.51100000000E-03 0. -1.
         11    1    4    4    0    0  0.31123533782E-01  0.75167447540E-01  0.47542948006E-01  0.94230634885E-01  0.51100000000E-03 0.  1.
</event>
<event>
 8    1  0.2257781E+004  0.1043930E+01  0.7957747E-01            NaN
         13   -1    0    0    0    0  0.00000000000E+00  0.00000000000E+00  0.74505805969E-08  0.10566000000E+00  0.10566000000E+00 0. -1.
     999900   -1    0    0    0    0 -0.00000000000E+00 -0.00000000000E+00 -0.74505805969E-08  0.93827000000E+00  0.93827000000E+00 0. -1.
     999902    2    1    2    0    0 -0.81977380761E-02 -0.63695032451E-03  0.11447724805E-01  0.10298353550E+01  0.10297388986E+01 0.  0.
     999903    2    3    3    0    0 -0.46849605538E-01 -0.25015921640E-01 -0.12032010386E+00  0.13885215548E+00  0.44523160441E-01 0.  0.
         14    1    1    2    0    0  0.81977380761E-02  0.63695032451E-03 -0.11447724805E-01  0.14094645029E-01  0.00000000000E+00 0.  1.
     999901    1    3    3    0    0  0.38651867462E-01  0.24378971315E-01  0.13176782866E+00  0.89098319949E+00  0.88000000000E+00 0.  1.
        -11    1    4    4    0    0 -0.45212168207E-01 -0.20455319864E-01 -0.57965252231E-01  0.76307220181E-01  0.51100000000E-03 0.  1.
         11    1    4    4    0    0 -0.16374373312E-02 -0.45606017760E-02 -0.62354851626E-01  0.62544935301E-01  0.51100000000E-03 0. -1.
</event>
<event>
 8    1  0.2257781E+004  0.1043930E+01  0.7957747E-01            NaN
         13   -1    0    0    0    0  0.00000000000E+00  0.00000000000E+00  0.74505805969E-08  0.10566000000E+00  0.10566000000E+00 0.  1.
     999900   -1    0    0    0    0 -0.00000000000E+00 -0.00000000000E+00 -0.74505805969E-08  0.93827000000E+00  0.93827000000E+00 0. -1.
     999902    2    1    2    0    0  0.10729173115E-01 -0.78124128323E-02  0.59722509773E-02  0.10293760750E+01  0.10292731839E+01 0.  0.
     999903    2    3    3    0    0 -0.78296776367E-01 -0.65891840928E-01  0.83434261621E-01  0.13960127053E+00  0.45333418478E-01 0.  0.
         14    1    1    2    0    0 -0.10729173115E-01  0.78124128323E-02 -0.59722509773E-02  0.14553924960E-01  0.00000000000E+00 0.  1.
     999901    1    3    3    0    0  0.89025949483E-01  0.58079428095E-01 -0.77462010644E-01  0.88977480451E+00  0.88000000000E+00 0. -1.
        -11    1    4    4    0    0 -0.31028983845E-01 -0.52714984835E-01  0.34177151545E-01  0.70071436929E-01  0.51100000000E-03 0. -1.
         11    1    4    4    0    0 -0.47267792522E-01 -0.13176856092E-01  0.49257110076E-01  0.69529833600E-01  0.51100000000E-03 0.  1.
</event>
<event>
 8    1  0.2257781E+004  0.1043930E+01  0.7957747E-01            NaN
         13   -1    0    0    0    0  0.00000000000E+00  0.00000000000E+00  0.74505805969E-08  0.10566000000E+00  0.10566000000E+00 0.  1.
     999900   -1    0    0    0    0 -0.00000000000E+00 -0.00000000000E+00 -0.74505805969E-08  0.93827000000E+00  0.93827000000E+00 0.  1.
     999902    2    1    2    0    0 -0.26711898241E-02 -0.61408236855E-02  0.12330189421E-01  0.10298986586E+01  0.10298030726E+01 0.  0.
     999903    2    3    3    0    0 -0.12310645386E+00  0.27511180188E-02 -0.40291393069E-01  0.14009376402E+00  0.53292576679E-01 0.  0.
         14    1    1    2    0    0  0.26711898241E-02  0.61408236855E-02 -0.12330189421E-01  0.14031341411E-01  0.00000000000E+00 0. -1.
     999901    1    3    3    0    0  0.12043526404E+00 -0.88919417043E-02  0.52621582490E-01  0.88980489457E+00  0.88000000000E+00 0.  1.
        -11    1    4    4    0    0 -0.78885710444E-01  0.25570075417E-01 -0.15006762129E-01  0.84274836693E-01  0.51100000000E-03 0.  1.
         11    1    4    4    0    0 -0.44220743421E-01 -0.22818957398E-01 -0.25284630940E-01  0.55818927330E-01  0.51100000000E-03 0. -1.
</event>
<event>
 8    1  0.2257781E+004  0.1043930E+01  0.7957747E-01            NaN
         13   -1    0    0    0    0  0.00000000000E+00  0.00000000000E+00  0.74505805969E-08  0.10566000000E+00  0.10566000000E+00 0. -1.
     999900   -1    0    0    0    0 -0.00000000000E+00 -0.00000000000E+00 -0.74505805969E-08  0.93827000000E+00  0.93827000000E+00 0.  1.
     999902    2    1    2    0    0 -0.40507730352E-02 -0.58013237705E-02  0.13120660607E-01  0.10290230937E+01  0.10289151139E+01 0.  0.
     999903    2    3    3    0    0  0.31057506345E-01  0.70257399374E-02  0.12959809234E+00  0.14056143618E+00  0.44135270250E-01 0.  0.
         14    1    1    2    0    0  0.40507730352E-02  0.58013237705E-02 -0.13120660607E-01  0.14906906267E-01  0.00000000000E+00 0.  1.
     999901    1    3    3    0    0 -0.35108279380E-01 -0.12827063708E-01 -0.11647743173E+00  0.88846165756E+00  0.88000000000E+00 0.  1.
        -11    1    4    4    0    0  0.38661060877E-01 -0.55213950286E-02  0.83511111400E-01  0.92192897120E-01  0.51100000000E-03 0.  1.
         11    1    4    4    0    0 -0.76035545315E-02  0.12547134966E-01  0.46086980940E-01  0.48368539057E-01  0.51100000000E-03 0. -1.
</event>
<event>
 8    1  0.2257781E+004  0.1043930E+01  0.7957747E-01            NaN
         13   -1    0    0    0    0  0.00000000000E+00  0.00000000000E+00  0.74505805969E-08  0.10566000000E+00  0.10566000000E+00 0.  1.
     999900   -1    0    0    0    0 -0.00000000000E+00 -0.00000000000E+00 -0.74505805969E-08  0.93827000000E+00  0.93827000000E+00 0. -1.
     999902    2    1    2    0    0  0.82437139043E-02  0.81303922705E-02  0.73850548388E-02  0.10301967873E+01  0.10301052467E+01 0.  0.
     999903    2    3    3    0    0 -0.80854414585E-01 -0.38301450738E-01  0.97601836018E-01  0.13989714098E+00  0.45173600408E-01 0.  0.
         14    1    1    2    0    0 -0.82437139043E-02 -0.81303922705E-02 -0.73850548388E-02  0.13733212748E-01  0.00000000000E+00 0. -1.
     999901    1    3    3    0    0  0.89098128489E-01  0.46431843009E-01 -0.90216781179E-01  0.89029964627E+00  0.88000000000E+00 0. -1.
        -11    1    4    4    0    0 -0.63316181502E-01 -0.23770519431E-01  0.95493641968E-01  0.11701826016E+00  0.51100000000E-03 0. -1.
         11    1    4    4    0    0 -0.17538233083E-01 -0.14530931308E-01  0.21081940498E-02  0.22878880818E-01  0.51100000000E-03 0.  1.
</event>
<event>
 8    1  0.2257781E+004  0.1043930E+01  0.7957747E-01            NaN
         13   -1    0    0    0    0  0.00000000000E+00  0.00000000000E+00  0.74505805969E-08  0.10566000000E+00  0.10566000000E+00 0.  1.
     999900   -1    0    0    0    0 -0.00000000000E+00 -0.00000000000E+00 -0.74505805969E-08  0.93827000000E+00  0.93827000000E+00 0. -1.
     999902    2    1    2    0    0  0.14179624476E-01 -0.58617183744E-03  0.26937175039E-02  0.10294848810E+01  0.10293835334E+01 0.  0.
     999903    2    3    3    0    0 -0.46636544130E-01 -0.11320822438E+00 -0.46995346511E-01  0.13883829784E+00  0.45567982598E-01 0.  0.
         14    1    1    2    0    0 -0.14179624476E-01  0.58617183744E-03 -0.26937175039E-02  0.14445118957E-01  0.00000000000E+00 0. -1.
     999901    1    3    3    0    0  0.60816168606E-01  0.11262205254E+00  0.49689064015E-01  0.89064658320E+00  0.88000000000E+00 0. -1.
        -11    1    4    4    0    0 -0.47838302485E-01 -0.70787523871E-01 -0.17654996728E-01  0.87242975367E-01  0.51100000000E-03 0. -1.
         11    1    4    4    0    0  0.12017583548E-02 -0.42420700511E-01 -0.29340349783E-01  0.51595322476E-01  0.51100000000E-03 0.  1.
</event>
<event>
 8    1  0.2257781E+004  0.1043930E+01  0.7957747E-01            NaN
         13   -1    0    0    0    0  0.00000000000E+00  0.00000000000E+00  0.74505805969E-08  0.10566000000E+00  0.10566000000E+00 0. -1.
     999900   -1    0    0    0    0 -0.00000000000E+00 -0.00000000000E+00 -0.74505805969E-08  0.93827000000E+00  0.93827000000E+00 0. -1.
     999902    2    1    2    0    0 -0.13848153852E-01  0.51655499763E-03  0.30570531820E-02  0.10297390251E+01  0.10296412366E+01 0.  0.
     999903    2    3    3    0    0  0.68723088060E-01 -0.31566375895E-02  0.11251508299E+00  0.13911420925E+00  0.44275186303E-01 0.  0.
         14    1    1    2    0    0  0.13848153852E-01 -0.51655499763E-03 -0.30570531820E-02  0.14190974890E-01  0.00000000000E+00 0.  1.
     999901    1    3    3    0    0 -0.82571241912E-01  0.36731925871E-02 -0.10945802981E+00  0.89062481586E+00  0.88000000000E+00 0. -1.
        -11    1    4    4    0    0  0.43378947792E-01 -0.17633728170E-02  0.10339005138E+00  0.11213655265E+00  0.51100000000E-03 0. -1.
         11    1    4    4    0    0  0.25344140268E-01 -0.13932647725E-02  0.91250316060E-02  0.26977656597E-01  0.51100000000E-03 0.  1.
</event>
<event>
 8    1  0.2808402E+004  0.1043930E+01  0.7957747E-01            NaN
         13   -1    0    0    0    0  0.00000000000E+00  0.00000000000E+00  0.74505805969E-08  0.10566000000E+00  0.10566000000E+00 0. -1.
     999900   -1    0    0    0    0 -0.00000000000E+00 -0.00000000000E+00 -0.74505805969E-08  0.93827000000E+00  0.93827000000E+00 0. -1.
     999902    2    1    2    0    0 -0.12170484105E-03  0.93971983705E-02  0.92532449590E-02  0.10307411907E+01  0.10306568088E+01 0.  0.
     999903    2    3    3    0    0  0.62020404329E-01  0.17012294401E-01  0.11736268512E+00  0.14191765224E+00  0.47229984593E-01 0.  0.
         14    1    1    2    0    0  0.12170484105E-03 -0.93971983705E-02 -0.92532449590E-02  0.13188809330E-01  0.00000000000E+00 0.  1.
     999901    1    3    3    0    0 -0.62142109170E-01 -0.76150960309E-02 -0.10810944016E+00  0.88882353843E+00  0.88000000000E+00 0. -1.
        -11    1    4    4    0    0  0.29029409744E-01  0.31753755729E-01  0.54866369340E-01  0.69725083281E-01  0.51100000000E-03 0.  1.
         11    1    4    4    0    0  0.32990994585E-01 -0.14741461328E-01  0.62496315777E-01  0.72192568956E-01  0.51100000000E-03 0. -1.
</event>
<event>
 8    1  0.2257781E+004  0.1043930E+01  0.7957747E-01            NaN
         13   -1    0    0    0    0  0.00000000000E+00  0.00000000000E+00  0.74505805969E-08  0.10566000000E+00  0.10566000000E+00 0.  1.
     999900   -1    0    0    0    0 -0.00000000000E+00 -0.00000000000E+00 -0.74505805969E-08  0.93827000000E+00  0.93827000000E+00 0. -1.
     999902    2    1    2    0    0 -0.99469203015E-02 -0.79273027338E-02 -0.36434478558E-02  0.10306990490E+01  0.10306141235E+01 0.  0.
     999903    2    3    3    0    0 -0.70799155227E-01 -0.11398739492E+00  0.93841785443E-02  0.14214884969E+00  0.45962877171E-01 0.  0.
         14    1    1    2    0    0  0.99469203015E-02  0.79273027338E-02  0.36434478558E-02  0.13230951001E-01  0.00000000000E+00 0.  1.
     999901    1    3    3    0    0  0.60852234925E-01  0.10606009219E+00 -0.13027626400E-01  0.88855019931E+00  0.88000000000E+00 0.  1.
        -11    1    4    4    0    0 -0.10256029526E-01 -0.21727405803E-01 -0.16056121204E-01  0.28902014700E-01  0.51100000000E-03 0. -1.
         11    1    4    4    0    0 -0.60543125701E-01 -0.92259989119E-01  0.25440299749E-01  0.11324683499E+00  0.51100000000E-03 0.  1.
</event>
<event>
 8    1  0.2257781E+004  0.1043930E+01  0.7957747E-01            NaN
         13   -1    0    0    0    0  0.00000000000E+00  0.00000000000E+00  0.74505805969E-08  0.10566000000E+00  0.10566000000E+00 0.  1.
     999900   -1    0    0    0    0 -0.00000000000E+00 -0.00000000000E+00 -0.74505805969E-08  0.93827000000E+00  0.93827000000E+00 0. -1.
     999902    2    1    2    0    0 -0.12700990465E-01  0.45534549531E-02 -0.41995176705E-02  0.10297990036E+01  0.10297020456E+01 0.  0.
     999903    2    3    3    0    0 -0.11068232789E+00  0.49587816078E-01 -0.57972200923E-01  0.14158735222E+00  0.44459791041E-01 0.  0.
         14    1    1    2    0    0  0.12700990465E-01 -0.45534549531E-02  0.41995176705E-02  0.14130996407E-01  0.00000000000E+00 0. -1.
     999901    1    3    3    0    0  0.97981337423E-01 -0.45034361125E-01  0.53772683253E-01  0.88821165137E+00  0.88000000000E+00 0.  1.
        -11    1    4    4    0    0 -0.19891556463E-01 -0.47896422329E-02  0.89541385710E-03  0.20486033736E-01  0.51100000000E-03 0.  1.
         11    1    4    4    0    0 -0.90790771425E-01  0.54377458311E-01 -0.58867614780E-01  0.12110131849E+00  0.51100000000E-03 0. -1.
</event>
<event>
 8    1  0.2257781E+004  0.1043930E+01  0.7957747E-01            NaN
         13   -1    0    0    0    0  0.00000000000E+00  0.00000000000E+00  0.74505805969E-08  0.10566000000E+00  0.10566000000E+00 0. -1.
     999900   -1    0    0    0    0 -0.00000000000E+00 -0.00000000000E+00 -0.74505805969E-08  0.93827000000E+00  0.93827000000E+00 0.  1.
     999902    2    1    2    0    0 -0.13606859192E-01  0.23671077658E-02  0.15166411791E-02  0.10300357560E+01  0.10299420414E+01 0.  0.
     999903    2    3    3    0    0 -0.15243823100E-01 -0.99851945799E-01 -0.85568669383E-01  0.13984742430E+00  0.45083474572E-01 0.  0.
         14    1    1    2    0    0  0.13606859192E-01 -0.23671077658E-02 -0.15166411791E-02  0.13894244014E-01  0.00000000000E+00 0. -1.
     999901    1    3    3    0    0  0.16369639077E-02  0.10221905356E+00  0.87085310563E-01  0.89018833169E+00  0.88000000000E+00 0. -1.
        -11    1    4    4    0    0 -0.22747139697E-01 -0.10023717153E+00 -0.76933182236E-01  0.12838963576E+00  0.51100000000E-03 0.  1.
         11    1    4    4    0    0  0.75033165973E-02  0.38522573187E-03 -0.86354871472E-02  0.11457788534E-01  0.51100000000E-03 0. -1.
</event>
<event>
 8    1  0.2257781E+004  0.1043930E+01  0.7957747E-01            NaN
         13   -1    0    0    0    0  0.00000000000E+00  0.00000000000E+00  0.74505805969E-08  0.10566000000E+00  0.10566000000E+00 0.  1.
     999900   -1    0    0    0    0 -0.00000000000E+00 -0.00000000000E+00 -0.74505805969E-08  0.93827000000E+00  0.93827000000E+00 0.  1.
     999902    2    1    2    0    0  0.10793696415E-02  0.51520812633E-02  0.11735019003E-01  0.10310684429E+01  0.10309882222E+01 0.  0.
     999903    2    3    3    0    0  0.12256127911E+00  0.42375641580E-01 -0.31510197663E-01  0.14089228250E+00  0.45174999435E-01 0.  0.
         14    1    1    2    0    0 -0.10793696415E-02 -0.51520812633E-02 -0.11735019003E-01  0.12861557105E-01  0.00000000000E+00 0. -1.
     999901    1    3    3    0    0 -0.12148190947E+00 -0.37223560317E-01  0.43245216666E-01  0.89017616040E+00  0.88000000000E+00 0. -1.
        -11    1    4    4    0    0  0.27586171738E-01  0.14709836108E-01 -0.27895798190E-01  0.41902420302E-01  0.51100000000E-03 0. -1.
         11    1    4    4    0    0  0.94975107375E-01  0.27665805473E-01 -0.36143994726E-02  0.98989862197E-01  0.51100000000E-03 0.  1.
</event>
<event>
 8    1  0.2257781E+004  0.1043930E+01  0.7957747E-01            NaN
         13   -1    0    0    0    0  0.00000000000E+00  0.00000000000E+00  0.74505805969E-08  0.10566000000E+00  0.10566000000E+00 0.  1.
     999900   -1    0    0    0    0 -0.00000000000E+00 -0.00000000000E+00 -0.74505805969E-08  0.93827000000E+00  0.93827000000E+00 0. -1.
     999902    2    1    2    0    0 -0.45741821888E-02 -0.15258240377E-01 -0.43713462176E-03  0.10279948775E+01  0.10278713636E+01 0.  0.
     999903    2    3    3    0    0  0.74786016079E-01 -0.38555849793E-01 -0.10013351661E+00  0.13851177578E+00  0.45599222883E-01 0.  0.
         14    1    1    2    0    0  0.45741821888E-02  0.15258240377E-01  0.43713462176E-03  0.15935122491E-01  0.00000000000E+00 0.  1.
     999901    1    3    3    0    0 -0.79360198268E-01  0.23297609416E-01  0.99696381990E-01  0.88948310173E+00  0.88000000000E+00 0. -1.
        -11    1    4    4    0    0  0.60385907058E-01 -0.45776862360E-01 -0.95157740010E-01  0.12164388806E+00  0.51100000000E-03 0. -1.
         11    1    4    4    0    0  0.14400109021E-01  0.72210125665E-02 -0.49757766013E-02  0.16867887719E-01  0.51100000000E-03 0.  1.
</event>
<event>
 8    1  0.2257781E+004  0.1043930E+01  0.7957747E-01            NaN
         13   -1    0    0    0    0  0.00000000000E+00  0.00000000000E+00  0.74505805969E-08  0.10566000000E+00  0.10566000000E+00 0.  1.
     999900   -1    0    0    0    0 -0.00000000000E+00 -0.00000000000E+00 -0.74505805969E-08  0.93827000000E+00  0.93827000000E+00 0. -1.
     999902    2    1    2    0    0  0.26624418223E-03  0.78607498511E-02  0.15988627923E-02  0.10359038779E+01  0.10358727844E+01 0.  0.
     999903    2    3    3    0    0 -0.11996157652E+00 -0.28597068122E-01  0.62860828924E-01  0.14487249242E+00  0.42754919027E-01 0.  0.
         14    1    1    2    0    0 -0.26624418223E-03 -0.78607498511E-02 -0.15988627923E-02  0.80261221281E-02  0.00000000000E+00 0. -1.
     999901    1    3    3    0    0  0.12022782070E+00  0.36457817973E-01 -0.61261966132E-01  0.89103138545E+00  0.88000000000E+00 0.  1.
        -11    1    4    4    0    0 -0.62007338845E-01 -0.23902411299E-01  0.11814813787E-01  0.67498787265E-01  0.51100000000E-03 0. -1.
         11    1    4    4    0    0 -0.57954237676E-01 -0.46946568236E-02  0.51046015137E-01  0.77373705157E-01  0.51100000000E-03 0.  1.
</event>
<event>
 8    1  0.2257781E+004  0.1043930E+01  0.7957747E-01            NaN
         13   -1    0    0    0    0  0.00000000000E+00  0.00000000000E+00  0.74505805969E-08  0.10566000000E+00  0.10566000000E+00 0. -1.
     999900   -1    0    0    0    0 -0.00000000000E+00 -0.00000000000E+00 -0.74505805969E-08  0.93827000000E+00  0.93827000000E+00 0. -1.
     999902    2    1    2    0    0 -0.20460677546E-02 -0.11441357719E-01  0.83314849153E-02  0.10296294860E+01  0.10295301714E+01 0.  0.
     999903    2    3    3    0    0 -0.88019276867E-01 -0.83774484827E-01 -0.52840943120E-01  0.14037949870E+00  0.46353866912E-01 0.  0.
         14    1    1    2    0    0  0.20460677546E-02  0.11441357719E-01 -0.83314849153E-02  0.14300513998E-01  0.00000000000E+00 0.  1.
     999901    1    3    3    0    0  0.85973209113E-01  0.72333127108E-01  0.61172428035E-01  0.88924998730E+00  0.88000000000E+00 0.  1.
        -11    1    4    4    0    0 -0.89261146419E-02  0.19340803003E-02  0.47505123557E-02  0.10307505899E-01  0.51100000000E-03 0. -1.
         11    1    4    4    0    0 -0.79093162225E-01 -0.85708565127E-01 -0.57591455475E-01  0.13007199280E+00  0.51100000000E-03 0.  1.
</event>
<event>
 8    1  0.2257781E+004  0.1043930E+01  0.7957747E-01            NaN
         13   -1    0    0    0    0  0.00000000000E+00  0.00000000000E+00  0.74505805969E-08  0.10566000000E+00  0.10566000000E+00 0. -1.
     999900   -1    0    0    0    0 -0.00000000000E+00 -0.00000000000E+00 -0.74505805969E-08  0.93827000000E+00  0.93827000000E+00 0. -1.
     999902    2    1    2    0    0  0.26155476634E-02 -0.66992438756E-02 -0.12527671349E-01  0.10294848102E+01  0.10293834616E+01 0.  0.
     999903    2    3    3    0    0  0.40264703812E-01 -0.10879183239E+00  0.57907974951E-01  0.13998970858E+00  0.52790868322E-01 0.  0.
         14    1    1    2    0    0 -0.26155476634E-02  0.66992438756E-02  0.12527671349E-01  0.14445189770E-01  0.00000000000E+00 0. -1.
     999901    1    3    3    0    0 -0.37649156148E-01  0.10209258851E+00 -0.70435646300E-01  0.88949510165E+00  0.88000000000E+00 0.  1.
        -11    1    4    4    0    0  0.50486516612E-03 -0.55623750967E-01  0.46754326587E-01  0.72666943903E-01  0.51100000000E-03 0.  1.
         11    1    4    4    0    0  0.39759838645E-01 -0.53168081421E-01  0.11153648364E-01  0.67322764678E-01  0.51100000000E-03 0. -1.
</event>
<event>
 8    1  0.2257781E+004  0.1043930E+01  0.7957747E-01            NaN
         13   -1    0    0    0    0  0.00000000000E+00  0.00000000000E+00  0.74505805969E-08  0.10566000000E+00  0.10566000000E+00 0. -1.
     999900   -1    0    0    0    0 -0.00000000000E+00 -0.00000000000E+00 -0.74505805969E-08  0.93827000000E+00  0.93827000000E+00 0. -1.
     999902    2    1    2    0    0  0.12073782245E-01  0.73393642376E-02 -0.61799241853E-03  0.10297870017E+01  0.10296898779E+01 0.  0.
     999903    2    3    3    0    0  0.46349872883E-01 -0.10211076251E+00  0.69928313877E-01  0.13954492120E+00  0.44809568330E-01 0.  0.
         14    1    1    2    0    0 -0.12073782245E-01 -0.73393642376E-02  0.61799241853E-03  0.14142998259E-01  0.00000000000E+00 0. -1.
     999901    1    3    3    0    0 -0.34276090638E-01  0.10945012675E+00 -0.70546306296E-01  0.89024208054E+00  0.88000000000E+00 0. -1.
        -11    1    4    4    0    0  0.18407347748E-01 -0.80796011591E-01  0.34882041383E-01  0.89910198932E-01  0.51100000000E-03 0.  1.
         11    1    4    4    0    0  0.27942525136E-01 -0.21314750921E-01  0.35046272495E-01  0.49634722267E-01  0.51100000000E-03 0. -1.
</event>
<event>
 8    1  0.2257781E+004  0.1043930E+01  0.7957747E-01            NaN
         13   -1    0    0    0    0  0.00000000000E+00  0.00000000000E+00  0.74505805969E-08  0.10566000000E+00  0.10566000000E+00 0. -1.
     999900   -1    0    0    0    0 -0.00000000000E+00 -0.00000000000E+00 -0.74505805969E-08  0.93827000000E+00  0.93827000000E+00 0. -1.
     999902    2    1    2    0    0 -0.46261198844E-02 -0.56692231831E-02 -0.11730296774E-01  0.10301046270E+01  0.10300118454E+01 0.  0.
     999903    2    3    3    0    0 -0.73448666766E-01 -0.60558200259E-02 -0.11184703306E+00  0.14175781785E+00  0.46412719261E-01 0.  0.
         14    1    1    2    0    0  0.46261198844E-02  0.56692231831E-02  0.11730296774E-01  0.13825373019E-01  0.00000000000E+00 0.  1.
     999901    1    3    3    0    0  0.68822546881E-01  0.38659684280E-03  0.10011673629E+00  0.88834680914E+00  0.88000000000E+00 0.  1.
        -11    1    4    4    0    0 -0.60527623614E-01  0.12291206573E-01 -0.64194667830E-01  0.89083575805E-01  0.51100000000E-03 0.  1.
         11    1    4    4    0    0 -0.12921043152E-01 -0.18347026599E-01 -0.47652365234E-01  0.52674242041E-01  0.51100000000E-03 0. -1.
</event>
<event>
 8    1  0.2257781E+004  0.1043930E+01  0.7957747E-01            NaN
         13   -1    0    0    0    0  0.00000000000E+00  0.00000000000E+00  0.74505805969E-08  0.10566000000E+00  0.10566000000E+00 0.  1.
     999900   -1    0    0    0    0 -0.00000000000E+00 -0.00000000000E+00 -0.74505805969E-08  0.93827000000E+00  0.93827000000E+00 0.  1.
     999902    2    1    2    0    0  0.10451512421E-01 -0.38591943189E-02  0.78613253546E-02  0.10302944608E+01  0.10302042264E+01 0.  0.
     999903    2    3    3    0    0  0.97510835485E-01 -0.12090493564E-01 -0.89549479245E-01  0.14061140215E+00  0.45802992358E-01 0.  0.
         14    1    1    2    0    0 -0.10451512421E-01  0.38591943189E-02 -0.78613253546E-02  0.13635539190E-01  0.00000000000E+00 0.  1.
     999901    1    3    3    0    0 -0.87059323064E-01  0.82312992452E-02  0.97410804599E-01  0.88968305866E+00  0.88000000000E+00 0. -1.
        -11    1    4    4    0    0  0.62121705957E-01 -0.17075798756E-01 -0.29796512852E-01  0.70984382460E-01  0.51100000000E-03 0. -1.
         11    1    4    4    0    0  0.35389129528E-01  0.49853051914E-02 -0.59752966393E-01  0.69627019686E-01  0.51100000000E-03 0.  1.
</event>
<event>
 8    1  0.2257781E+004  0.1043930E+01  0.7957747E-01            NaN
         13   -1    0    0    0    0  0.00000000000E+00  0.00000000000E+00  0.74505805969E-08  0.10566000000E+00  0.10566000000E+00 0.  1.
     999900   -1    0    0    0    0 -0.00000000000E+00 -0.00000000000E+00 -0.74505805969E-08  0.93827000000E+00  0.93827000000E+00 0.  1.
     999902    2    1    2    0    0 -0.85131548229E-02  0.74738090584E-02 -0.53540546823E-02  0.10314001345E+01  0.10313240228E+01 0.  0.
     999903    2    3    3    0    0  0.53507108892E-01  0.12334396355E+00 -0.41275360851E-02  0.14163954306E+00  0.44361915605E-01 0.  0.
         14    1    1    2    0    0  0.85131548229E-02 -0.74738090584E-02  0.53540546823E-02  0.12529865459E-01  0.00000000000E+00 0.  1.
     999901    1    3    3    0    0 -0.62020263715E-01 -0.11587015449E+00 -0.12265185972E-02  0.88976059149E+00  0.88000000000E+00 0. -1.
        -11    1    4    4    0    0  0.51974571815E-01  0.65239961009E-01 -0.79501494058E-03  0.83417634812E-01  0.51100000000E-03 0. -1.
         11    1    4    4    0    0  0.15325370775E-02  0.58104002542E-01 -0.33325211445E-02  0.58221908243E-01  0.51100000000E-03 0.  1.
</event>
<event>
 8    1  0.2257781E+004  0.1043930E+01  0.7957747E-01            NaN
         13   -1    0    0    0    0  0.00000000000E+00  0.00000000000E+00  0.74505805969E-08  0.10566000000E+00  0.10566000000E+00 0.  1.
     999900   -1    0    0    0    0 -0.00000000000E+00 -0.00000000000E+00 -0.74505805969E-08  0.93827000000E+00  0.93827000000E+00 0. -1.
     999902    2    1    2    0    0 -0.56302838398E-02  0.14332912638E-02  0.12941532437E-01  0.10297441732E+01  0.10296464561E+01 0.  0.
     999903    2    3    3    0    0 -0.12081830171E+00  0.55736500686E-01 -0.25590413180E-02  0.14044254507E+00  0.44876945498E-01 0.  0.
         14    1    1    2    0    0  0.56302838398E-02 -0.14332912638E-02 -0.12941532437E-01  0.14185826792E-01  0.00000000000E+00 0. -1.
     999901    1    3    3    0    0  0.11518801787E+00 -0.54303209422E-01  0.15500573755E-01  0.88930162813E+00  0.88000000000E+00 0. -1.
        -11    1    4    4    0    0 -0.11140804060E+00  0.38856219220E-01 -0.12593121815E-01  0.11866088285E+00  0.51100000000E-03 0. -1.
         11    1    4    4    0    0 -0.94102611144E-02  0.16880281466E-01  0.10034080497E-01  0.21781662220E-01  0.51100000000E-03 0.  1.
</event>
<event>
 8    1  0.2257781E+004  0.1043930E+01  0.7957747E-01            NaN
         13   -1    0    0    0    0  0.00000000000E+00  0.00000000000E+00  0.74505805969E-08  0.10566000000E+00  0.10566000000E+00 0.  1.
     999900   -1    0    0    0    0 -0.00000000000E+00 -0.00000000000E+00 -0.74505805969E-08  0.93827000000E+00  0.93827000000E+00 0.  1.
     999902    2    1    2    0    0 -0.13512694579E-01  0.19431656880E-02  0.25332310957E-02  0.10300452577E+01  0.10299516721E+01 0.  0.
     999903    2    3    3    0    0 -0.33398461522E-01 -0.12752577393E+00 -0.14849502677E-01  0.14018020647E+00  0.45295720639E-01 0.  0.
         14    1    1    2    0    0  0.13512694579E-01 -0.19431656880E-02 -0.25332310957E-02  0.13884742254E-01  0.00000000000E+00 0. -1.
     999901    1    3    3    0    0  0.19885766944E-01  0.12946893961E+00  0.17382733773E-01  0.88986505128E+00  0.88000000000E+00 0. -1.
        -11    1    4    4    0    0 -0.31001547352E-02 -0.47147289297E-01  0.14463112935E-01  0.49415793065E-01  0.51100000000E-03 0. -1.
         11    1    4    4    0    0 -0.30298306787E-01 -0.80378484629E-01 -0.29312615613E-01  0.90764413404E-01  0.51100000000E-03 0.  1.
</event>
<event>
 8    1  0.2257781E+004  0.1043930E+01  0.7957747E-01            NaN
         13   -1    0    0    0    0  0.00000000000E+00  0.00000000000E+00  0.74505805969E-08  0.10566000000E+00  0.10566000000E+00 0.  1.
     999900   -1    0    0    0    0 -0.00000000000E+00 -0.00000000000E+00 -0.74505805969E-08  0.93827000000E+00  0.93827000000E+00 0. -1.
     999902    2    1    2    0    0  0.18417911162E-02 -0.99051197897E-02  0.96072856311E-02  0.10300086664E+01  0.10299145835E+01 0.  0.
     999903    2    3    3    0    0 -0.14336817380E-01  0.13017648921E+00 -0.65126091735E-02  0.13863643462E+00  0.45013156398E-01 0.  0.
         14    1    1    2    0    0 -0.18417911162E-02  0.99051197897E-02 -0.96072856311E-02  0.13921333620E-01  0.00000000000E+00 0. -1.
     999901    1    3    3    0    0  0.16178608496E-01 -0.14008160900E+00  0.16119894805E-01  0.89137223176E+00  0.88000000000E+00 0.  1.
        -11    1    4    4    0    0  0.13178591133E-01  0.28350294181E-01  0.77046442568E-02  0.32203060546E-01  0.51100000000E-03 0.  1.
         11    1    4    4    0    0 -0.27515408512E-01  0.10182619503E+00 -0.14217253430E-01  0.10643337407E+00  0.51100000000E-03 0. -1.
</event>
<event>
 8    1  0.2257781E+004  0.1043930E+01  0.7957747E-01            NaN
         13   -1    0    0    0    0  0.00000000000E+00  0.00000000000E+00  0.74505805969E-08  0.10566000000E+00  0.10566000000E+00 0.  1.
     999900   -1    0    0    0    0 -0.00000000000E+00 -0.00000000000E+00 -0.74505805969E-08  0.93827000000E+00  0.93827000000E+00 0.  1.
     999902    2    1    2    0    0 -0.18970943104E-02  0.13477067136E-01 -0.33819074034E-02  0.10299061773E+01  0.10298106945E+01 0.  0.
     999903    2    3    3    0    0  0.40939286024E-02 -0.11391886934E+00 -0.64073592401E-01  0.13864353497E+00  0.46068812693E-01 0.  0.
         14    1    1    2    0    0  0.18970943104E-02 -0.13477067136E-01  0.33819074034E-02  0.14023822699E-01  0.00000000000E+00 0. -1.
     999901    1    3    3    0    0 -0.59910229128E-02  0.12739593648E+00  0.60691684998E-01  0.89126264233E+00  0.88000000000E+00 0. -1.
        -11    1    4    4    0    0 -0.90148082828E-02 -0.22978011836E-01 -0.33893062743E-01  0.41931570676E-01  0.51100000000E-03 0. -1.
         11    1    4    4    0    0  0.13108736885E-01 -0.90940857504E-01 -0.30180529658E-01  0.96711964294E-01  0.51100000000E-03 0.  1.
</event>
<event>
 8    1  0.2257781E+004  0.1043930E+01  0.7957747E-01            NaN
         13   -1    0    0    0    0  0.00000000000E+00  0.00000000000E+00  0.74505805969E-08  0.10566000000E+00  0.10566000000E+00 0. -1.
     999900   -1    0    0    0    0 -0.00000000000E+00 -0.00000000000E+00 -0.74505805969E-08  0.93827000000E+00  0.93827000000E+00 0.  1.
     999902    2    1    2    0    0 -0.10601476308E-01 -0.37088981712E-02  0.16852512914E-01  0.10236777306E+01  0.10234773772E+01 0.  0.
     999903    2    3    3    0    0 -0.95401052584E-02 -0.18085559638E-01  0.12723092925E+00  0.13666521110E+00  0.45514497590E-01 0.  0.
         14    1    1    2    0    0  0.10601476308E-01  0.37088981712E-02 -0.16852512914E-01  0.20252269430E-01  0.00000000000E+00 0.  1.
     999901    1    3    3    0    0 -0.10613710495E-02  0.14376661467E-01 -0.11037841634E+00  0.88701251947E+00  0.88000000000E+00 0.  1.
        -11    1    4    4    0    0 -0.27062583554E-02 -0.33068441661E-01  0.78533942898E-01  0.85256594914E-01  0.51100000000E-03 0.  1.
         11    1    4    4    0    0 -0.68338469030E-02  0.14982882023E-01  0.48696986354E-01  0.51408616186E-01  0.51100000000E-03 0. -1.
</event>
<event>
 7    1  0.2257781E+004  0.1043930E+01  0.7957747E-01            NaN
         13   -1    0    0    0    0  0.00000000000E+00  0.00000000000E+00  0.74505805969E-08  0.10566000000E+00  0.10566000000E+00 0.  1.
     999900   -1    0    0    0    0 -0.00000000000E+00 -0.00000000000E+00 -0.74505805969E-08  0.93827000000E+00  0.93827000000E+00 0. -1.
     999902    2    1    2    0    0 -0.32598899515E-02  0.12167392503E-01 -0.92532389689E-04  0.10313331399E+01  0.10312562070E+01 0.  0.
         14    1    1    2    0    0  0.32598899515E-02 -0.12167392503E-01  0.92532389689E-04  0.12596860127E-01  0.00000000000E+00 0.  1.
     999901    1    3    3    0    0  0.97766656225E-01  0.44520398796E-01 -0.90293329243E-01  0.89111911117E+00  0.88000000000E+00 0. -1.
        -11    1    3    3    0    0 -0.47524697490E-01 -0.97848342167E-02  0.32848539179E-01  0.58597162895E-01  0.51100000000E-03 0.  1.
         11    1    3    3    0    0 -0.53501848687E-01 -0.22568172076E-01  0.57352257674E-01  0.81616865812E-01  0.51100000000E-03 0. -1.
</event>
<event>
 8    1  0.2257781E+004  0.1043930E+01  0.7957747E-01            NaN
         13   -1    0    0    0    0  0.00000000000E+00  0.00000000000E+00  0.74505805969E-08  0.10566000000E+00  0.10566000000E+00 0.  1.
     999900   -1    0    0    0    0 -0.00000000000E+00 -0.00000000000E+00 -0.74505805969E-08  0.93827000000E+00  0.93827000000E+00 0.  1.
     999902    2    1    2    0    0 -0.11402270204E-01 -0.78643873627E-03 -0.59155619851E-02  0.10310604963E+01  0.10309801758E+01 0.  0.
     999903    2    3    3    0    0 -0.12329334465E+00  0.31100303623E-01  0.44775207957E-01  0.14195649168E+00  0.44478630410E-01 0.  0.
         14    1    1    2    0    0  0.11402270204E-01  0.78643873627E-03  0.59155619851E-02  0.12869503692E-01  0.00000000000E+00 0.  1.
     999901    1    3    3    0    0  0.11189107445E+00 -0.31886742360E-01 -0.50690769942E-01  0.88910400462E+00  0.88000000000E+00 0.  1.
        -11    1    4    4    0    0 -0.17697013989E-01  0.13228643946E-01  0.24427397536E-01  0.32941466212E-01  0.51100000000E-03 0.  1.
         11    1    4    4    0    0 -0.10559633066E+00  0.17871659677E-01  0.20347810421E-01  0.10901502547E+00  0.51100000000E-03 0. -1.
</event>
<event>
 8    1  0.2257781E+004  0.1043930E+01  0.7957747E-01            NaN
         13   -1    0    0    0    0  0.00000000000E+00  0.00000000000E+00  0.74505805969E-08  0.10566000000E+00  0.10566000000E+00 0.  1.
     999900   -1    0    0    0    0 -0.00000000000E+00 -0.00000000000E+00 -0.74505805969E-08  0.93827000000E+00  0.93827000000E+00 0.  1.
     999902    2    1    2    0    0 -0.79704365323E-02 -0.11475369240E-01  0.51383297040E-03  0.10299487275E+01  0.10298538271E+01 0.  0.
     999903    2    3    3    0    0  0.12771050289E+00 -0.32863758992E-02  0.31521006430E-01  0.13897295801E+00  0.44711703128E-01 0.  0.
         14    1    1    2    0    0  0.79704365323E-02  0.11475369240E-01 -0.51383297040E-03  0.13981272547E-01  0.00000000000E+00 0.  1.
     999901    1    3    3    0    0 -0.13568093942E+00 -0.81889933412E-02 -0.31007173460E-01  0.89097576945E+00  0.88000000000E+00 0.  1.
        -11    1    4    4    0    0  0.28041499756E-01  0.49847918496E-03 -0.11541152581E-01  0.30332054232E-01  0.51100000000E-03 0.  1.
         11    1    4    4    0    0  0.99669003131E-01 -0.37848550841E-02  0.43062159012E-01  0.10864090377E+00  0.51100000000E-03 0. -1.
</event>
<event>
 8    1  0.2257781E+004  0.1043930E+01  0.7957747E-01            NaN
         13   -1    0    0    0    0  0.00000000000E+00  0.00000000000E+00  0.74505805969E-08  0.10566000000E+00  0.10566000000E+00 0. -1.
     999900   -1    0    0    0    0 -0.00000000000E+00 -0.00000000000E+00 -0.74505805969E-08  0.93827000000E+00  0.93827000000E+00 0.  1.
     999902    2    1    2    0    0 -0.36900728636E-02  0.11679968114E-01 -0.68329003522E-02  0.10299040662E+01  0.10298085544E+01 0.  0.
     999903    2    3    3    0    0  0.99706408405E-01  0.46054071260E-02 -0.87651365499E-01  0.14014426371E+00  0.44666263826E-01 0.  0.
         14    1    1    2    0    0  0.36900728636E-02 -0.11679968114E-01  0.68329003522E-02  0.14025933841E-01  0.00000000000E+00 0. -1.
     999901    1    3    3    0    0 -0.10339648127E+00  0.70745609880E-02  0.80818465146E-01  0.88975980245E+00  0.88000000000E+00 0. -1.
        -11    1    4    4    0    0  0.69481900038E-01 -0.17704864661E-01 -0.59989981388E-01  0.93489334437E-01  0.51100000000E-03 0. -1.
         11    1    4    4    0    0  0.30224508367E-01  0.22310271787E-01 -0.27661384110E-01  0.46654929269E-01  0.51100000000E-03 0.  1.
</event>
<event>
 8    1  0.2257781E+004  0.1043930E+01  0.7957747E-01            NaN
         13   -1    0    0    0    0  0.00000000000E+00  0.00000000000E+00  0.74505805969E-08  0.10566000000E+00  0.10566000000E+00 0. -1.
     999900   -1    0    0    0    0 -0.00000000000E+00 -0.00000000000E+00 -0.74505805969E-08  0.93827000000E+00  0.93827000000E+00 0.  1.
     999902    2    1    2    0    0 -0.65317151329E-02  0.95259353441E-02  0.85215644364E-02  0.10295764706E+01  0.10294764130E+01 0.  0.
     999903    2    3    3    0    0 -0.39164818435E-01 -0.11624574140E+00  0.47828298375E-01  0.13916732111E+00  0.45089264173E-01 0.  0.
         14    1    1    2    0    0  0.65317151329E-02 -0.95259353441E-02 -0.85215644364E-02  0.14353529434E-01  0.00000000000E+00 0. -1.
     999901    1    3    3    0    0  0.32633103302E-01  0.12577167674E+00 -0.39306733939E-01  0.89040914946E+00  0.88000000000E+00 0.  1.
        -11    1    4    4    0    0 -0.23605125847E-01 -0.36557796871E-01  0.37254511112E-01  0.57287295254E-01  0.51100000000E-03 0.  1.
         11    1    4    4    0    0 -0.15559692588E-01 -0.79687944526E-01  0.10573787263E-01  0.81880025857E-01  0.51100000000E-03 0. -1.
</event>
<event>
 8    1  0.2257781E+004  0.1043930E+01  0.7957747E-01            NaN
         13   -1    0    0    0    0  0.00000000000E+00  0.00000000000E+00  0.74505805969E-08  0.10566000000E+00  0.10566000000E+00 0.  1.
     999900   -1    0    0    0    0 -0.00000000000E+00 -0.00000000000E+00 -0.74505805969E-08  0.93827000000E+00  0.93827000000E+00 0. -1.
     999902    2    1    2    0    0  0.33400346445E-02 -0.11478752861E-01 -0.63155494988E-02  0.10304095058E+01  0.10303207975E+01 0.  0.
     999903    2    3    3    0    0  0.14420837724E-02 -0.96795388502E-01 -0.93711899710E-01  0.14197230903E+00  0.44752536708E-01 0.  0.
         14    1    1    2    0    0 -0.33400346445E-02  0.11478752861E-01  0.63155494988E-02  0.13520494227E-01  0.00000000000E+00 0.  1.
     999901    1    3    3    0    0  0.18979508721E-02  0.85316635642E-01  0.87396350211E-01  0.88843719675E+00  0.88000000000E+00 0.  1.
        -11    1    4    4    0    0 -0.69296845557E-02 -0.78942107776E-01 -0.49180278695E-01  0.93267560501E-01  0.51100000000E-03 0. -1.
         11    1    4    4    0    0  0.83717683281E-02 -0.17853280726E-01 -0.44531621015E-01  0.48704748525E-01  0.51100000000E-03 0.  1.
</event>
<event>
 8    1  0.2257781E+004  0.1043930E+01  0.7957747E-01            NaN
         13   -1    0    0    0    0  0.00000000000E+00  0.00000000000E+00  0.74505805969E-08  0.10566000000E+00  0.10566000000E+00 0. -1.
     999900   -1    0    0    0    0 -0.00000000000E+00 -0.00000000000E+00 -0.74505805969E-08  0.93827000000E+00  0.93827000000E+00 0.  1.
     999902    2    1    2    0    0  0.14459675043E-01 -0.10921174094E-01  0.92684144555E-02  0.10235766771E+01  0.10233742992E+01 0.  0.
     999903    2    3    3    0    0  0.10815603863E+00  0.65393878813E-01  0.16078910799E-01  0.13529216261E+00  0.45512084257E-01 0.  0.
         14    1    1    2    0    0 -0.14459675043E-01  0.10921174094E-01 -0.92684144555E-02  0.20353322885E-01  0.00000000000E+00 0.  1.
     999901    1    3    3    0    0 -0.93696363585E-01 -0.76315052907E-01 -0.68104963433E-02  0.88828451451E+00  0.88000000000E+00 0. -1.
        -11    1    4    4    0    0  0.84152683208E-01  0.70216061650E-01  0.16281439371E-01  0.11080304957E+00  0.51100000000E-03 0.  1.
         11    1    4    4    0    0  0.24003355420E-01 -0.48221828374E-02 -0.20252857256E-03  0.24489113041E-01  0.51100000000E-03 0. -1.
</event>
<event>
 8    1  0.2257781E+004  0.1043930E+01  0.7957747E-01            NaN
         13   -1    0    0    0    0  0.00000000000E+00  0.00000000000E+00  0.74505805969E-08  0.10566000000E+00  0.10566000000E+00 0.  1.
     999900   -1    0    0    0    0 -0.00000000000E+00 -0.00000000000E+00 -0.74505805969E-08  0.93827000000E+00  0.93827000000E+00 0. -1.
     999902    2    1    2    0    0 -0.83662166009E-02  0.83922993234E-02 -0.68405123689E-02  0.10302472781E+01  0.10301564140E+01 0.  0.
     999903    2    3    3    0    0  0.10562890493E+00  0.53626466545E-01 -0.60397507374E-01  0.14012966269E+00  0.44217643510E-01 0.  0.
         14    1    1    2    0    0  0.83662166009E-02 -0.83922993234E-02  0.68405123689E-02  0.13682721864E-01  0.00000000000E+00 0.  1.
     999901    1    3    3    0    0 -0.11399512153E+00 -0.45234167221E-01  0.53556995005E-01  0.89011761545E+00  0.88000000000E+00 0.  1.
        -11    1    4    4    0    0  0.66878058398E-01  0.10390438101E-01 -0.25138631068E-01  0.72200053961E-01  0.51100000000E-03 0. -1.
         11    1    4    4    0    0  0.38750846530E-01  0.43236028444E-01 -0.35258876306E-01  0.67929608727E-01  0.51100000000E-03 0.  1.
</event>
<event>
 8    1  0.2257781E+004  0.1043930E+01  0.7957747E-01            NaN
         13   -1    0    0    0    0  0.00000000000E+00  0.00000000000E+00  0.74505805969E-08  0.10566000000E+00  0.10566000000E+00 0. -1.
     999900   -1    0    0    0    0 -0.00000000000E+00 -0.00000000000E+00 -0.74505805969E-08  0.93827000000E+00  0.93827000000E+00 0. -1.
     999902    2    1    2    0    0  0.58822769297E-02  0.12410040683E-03 -0.11986810780E-01  0.10305770896E+01  0.10304905810E+01 0.  0.
     999903    2    3    3    0    0  0.25590562024E-01  0.25012503853E-01  0.12701245392E+00  0.13910154609E+00  0.44006527488E-01 0.  0.
         14    1    1    2    0    0 -0.58822769297E-02 -0.12410040683E-03  0.11986810780E-01  0.13352910374E-01  0.00000000000E+00 0. -1.
     999901    1    3    3    0    0 -0.19708285094E-01 -0.24888403446E-01 -0.13899926470E+00  0.89147554353E+00  0.88000000000E+00 0. -1.
        -11    1    4    4    0    0 -0.99198516213E-02  0.17712938683E-01  0.50626247900E-01  0.54547499946E-01  0.51100000000E-03 0.  1.
         11    1    4    4    0    0  0.35510413645E-01  0.72995651696E-02  0.76386206020E-01  0.84554046148E-01  0.51100000000E-03 0. -1.
</event>
<event>
 8    1  0.2257781E+004  0.1043930E+01  0.7957747E-01            NaN
         13   -1    0    0    0    0  0.00000000000E+00  0.00000000000E+00  0.74505805969E-08  0.10566000000E+00  0.10566000000E+00 0. -1.
     999900   -1    0    0    0    0 -0.00000000000E+00 -0.00000000000E+00 -0.74505805969E-08  0.93827000000E+00  0.93827000000E+00 0.  1.
     999902    2    1    2    0    0  0.38290349616E-02 -0.50546320715E-02 -0.15707747169E-01  0.10269905745E+01  0.10268508636E+01 0.  0.
     999903    2    3    3    0    0  0.64342615717E-01 -0.33387405125E-01 -0.11023281046E+00  0.13940980239E+00  0.45045859752E-01 0.  0.
         14    1    1    2    0    0 -0.38290349616E-02  0.50546320715E-02  0.15707747169E-01  0.16939425470E-01  0.00000000000E+00 0. -1.
     999901    1    3    3    0    0 -0.60513580756E-01  0.28332773053E-01  0.94525063295E-01  0.88758077214E+00  0.88000000000E+00 0. -1.
        -11    1    4    4    0    0  0.19428091610E-01 -0.28617946800E-02 -0.67513175225E-01  0.70313089552E-01  0.51100000000E-03 0. -1.
         11    1    4    4    0    0  0.44914524108E-01 -0.30525610445E-01 -0.42719635240E-01  0.69096712837E-01  0.51100000000E-03 0.  1.
</event>
<event>
 7    1  0.2257781E+004  0.1043930E+01  0.7957747E-01            NaN
         13   -1    0    0    0    0  0.00000000000E+00  0.00000000000E+00  0.74505805969E-08  0.10566000000E+00  0.10566000000E+00 0. -1.
     999900   -1    0    0    0    0 -0.00000000000E+00 -0.00000000000E+00 -0.74505805969E-08  0.93827000000E+00  0.93827000000E+00 0.  1.
     999902    2    1    2    0    0 -0.11727432623E-01 -0.59154368738E-03  0.75660888189E-02  0.10299611668E+01  0.10298664364E+01 0.  0.
         14    1    1    2    0    0  0.11727432623E-01  0.59154368738E-03 -0.75660888189E-02  0.13968833161E-01  0.00000000000E+00 0.  1.
     999901    1    3    3    0    0 -0.43949437448E-01  0.14845521155E-01 -0.11277051276E+00  0.88840820072E+00  0.88000000000E+00 0.  1.
        -11    1    3    3    0    0  0.79362211301E-02 -0.23312680029E-01  0.11202103656E+00  0.11469715955E+00  0.51100000000E-03 0. -1.
         11    1    3    3    0    0  0.24285783696E-01  0.78756151871E-02  0.83155650222E-02  0.26855806577E-01  0.51100000000E-03 0.  1.
</event>
<event>
 8    1  0.2257781E+004  0.1043930E+01  0.7957747E-01            NaN
         13   -1    0    0    0    0  0.00000000000E+00  0.00000000000E+00  0.74505805969E-08  0.10566000000E+00  0.10566000000E+00 0.  1.
     999900   -1    0    0    0    0 -0.00000000000E+00 -0.00000000000E+00 -0.74505805969E-08  0.93827000000E+00  0.93827000000E+00 0. -1.
     999902    2    1    2    0    0  0.10418219514E-01 -0.50672981279E-03  0.10649719642E-01  0.10290232028E+01  0.10289152246E+01 0.  0.
     999903    2    3    3    0    0 -0.29628114256E-01 -0.49370400272E-01  0.11921987863E+00  0.14010315776E+00  0.45828525787E-01 0.  0.
         14    1    1    2    0    0 -0.10418219514E-01  0.50672981279E-03 -0.10649719642E-01  0.14906797154E-01  0.00000000000E+00 0. -1.
     999901    1    3    3    0    0  0.40046333770E-01  0.48863670459E-01 -0.10857015899E+00  0.88892004509E+00  0.88000000000E+00 0. -1.
        -11    1    4    4    0    0 -0.23230576677E-01 -0.34434334113E-01  0.34973844219E-01  0.54302982966E-01  0.51100000000E-03 0.  1.
         11    1    4    4    0    0 -0.63975375792E-02 -0.14936066159E-01  0.84246034409E-01  0.85800174790E-01  0.51100000000E-03 0. -1.
</event>
<event>
 8    1  0.2257781E+004  0.1043930E+01  0.7957747E-01            NaN
         13   -1    0    0    0    0  0.00000000000E+00  0.00000000000E+00  0.74505805969E-08  0.10566000000E+00  0.10566000000E+00 0.  1.
     999900   -1    0    0    0    0 -0.00000000000E+00 -0.00000000000E+00 -0.74505805969E-08  0.93827000000E+00  0.93827000000E+00 0. -1.
     999902    2    1    2    0    0  0.63466528400E-03  0.14286725261E-01 -0.38135316472E-02  0.10291294479E+01  0.10290230144E+01 0.  0.
     999903    2    3    3    0    0  0.11641386398E+00 -0.42075192313E-01  0.42855564261E-01  0.13853442596E+00  0.45085233209E-01 0.  0.
         14    1    1    2    0    0 -0.63466528400E-03 -0.14286725261E-01  0.38135316472E-02  0.14800552095E-01  0.00000000000E+00 0. -1.
     999901    1    3    3    0    0 -0.11577919869E+00  0.56361917574E-01 -0.46669095908E-01  0.89059502195E+00  0.88000000000E+00 0.  1.
        -11    1    4    4    0    0  0.16252309068E-01  0.28669921099E-02  0.20801257068E-01  0.26557684583E-01  0.51100000000E-03 0. -1.
         11    1    4    4    0    0  0.10016155491E+00 -0.44942184423E-01  0.22054307193E-01  0.11197674138E+00  0.51100000000E-03 0.  1.
</event>
<event>
 8    1  0.2257781E+004  0.1043930E+01  0.7957747E-01            NaN
         13   -1    0    0    0    0  0.00000000000E+00  0.00000000000E+00  0.74505805969E-08  0.10566000000E+00  0.10566000000E+00 0. -1.
     999900   -1    0    0    0    0 -0.00000000000E+00 -0.00000000000E+00 -0.74505805969E-08  0.93827000000E+00  0.93827000000E+00 0. -1.
     999902    2    1    2    0    0  0.10680334611E-01  0.74003073892E-02 -0.49523105678E-02  0.10300246242E+01  0.10299307583E+01 0.  0.
     999903    2    3    3    0    0 -0.55102274989E-01  0.94946695317E-01 -0.75252459226E-01  0.14045515940E+00  0.44872970940E-01 0.  0.
         14    1    1    2    0    0 -0.10680334611E-01 -0.74003073892E-02  0.49523105678E-02  0.13905375825E-01  0.00000000000E+00 0. -1.
     999901    1    3    3    0    0  0.65782609600E-01 -0.87546387928E-01  0.70300148658E-01  0.88956946478E+00  0.88000000000E+00 0.  1.
        -11    1    4    4    0    0 -0.38769477612E-01  0.66737826571E-01 -0.75335490133E-01  0.10785502809E+00  0.51100000000E-03 0.  1.
         11    1    4    4    0    0 -0.16332797377E-01  0.28208868746E-01  0.83030906635E-04  0.32600131307E-01  0.51100000000E-03 0. -1.
</event>
<event>
 8    1  0.2257781E+004  0.1043930E+01  0.7957747E-01            NaN
         13   -1    0    0    0    0  0.00000000000E+00  0.00000000000E+00  0.74505805969E-08  0.10566000000E+00  0.10566000000E+00 0. -1.
     999900   -1    0    0    0    0 -0.00000000000E+00 -0.00000000000E+00 -0.74505805969E-08  0.93827000000E+00  0.93827000000E+00 0.  1.
     999902    2    1    2    0    0 -0.10142414844E-01 -0.92900086650E-02 -0.17314412749E-02  0.10300674343E+01  0.10299741494E+01 0.  0.
     999903    2    3    3    0    0  0.27076694161E-01 -0.11090034740E+00  0.67138117774E-01  0.14076830620E+00  0.47709063617E-01 0.  0.
         14    1    1    2    0    0  0.10142414844E-01  0.92900086650E-02  0.17314412749E-02  0.13862565734E-01  0.00000000000E+00 0.  1.
     999901    1    3    3    0    0 -0.37219109005E-01  0.10161033874E+00 -0.68869559049E-01  0.88929912807E+00  0.88000000000E+00 0.  1.
        -11    1    4    4    0    0  0.26246518030E-01 -0.25480591277E-01  0.97660510252E-02  0.37865249427E-01  0.51100000000E-03 0. -1.
         11    1    4    4    0    0  0.83017613114E-03 -0.85419756127E-01  0.57372066749E-01  0.10290305677E+00  0.51100000000E-03 0.  1.
</event>
<event>
 8    1  0.2257781E+004  0.1043930E+01  0.7957747E-01            NaN
         13   -1    0    0    0    0  0.00000000000E+00  0.00000000000E+00  0.74505805969E-08  0.10566000000E+00  0.10566000000E+00 0. -1.
     999900   -1    0    0    0    0 -0.00000000000E+00 -0.00000000000E+00 -0.74505805969E-08  0.93827000000E+00  0.93827000000E+00 0. -1.
     999902    2    1    2    0    0  0.13093763516E-01  0.30125283053E-02  0.22271315823E-02  0.10303108192E+01  0.10302208026E+01 0.  0.
     999903    2    3    3    0    0  0.12493657121E+00  0.54013530870E-02 -0.49634100028E-01  0.14171411236E+00  0.44508699324E-01 0.  0.
         14    1    1    2    0    0 -0.13093763516E-01 -0.30125283053E-02 -0.22271315823E-02  0.13619180771E-01  0.00000000000E+00 0. -1.
     999901    1    3    3    0    0 -0.11184280769E+00 -0.23888247817E-02  0.51861231610E-01  0.88859670687E+00  0.88000000000E+00 0.  1.
        -11    1    4    4    0    0  0.37908556868E-01  0.26922573921E-02 -0.38213657856E-01  0.53896676163E-01  0.51100000000E-03 0. -1.
         11    1    4    4    0    0  0.87028014341E-01  0.27090956948E-02 -0.11420442171E-01  0.87817436196E-01  0.51100000000E-03 0.  1.
</event>
<event>
 8    1  0.2257781E+004  0.1043930E+01  0.7957747E-01            NaN
         13   -1    0    0    0    0  0.00000000000E+00  0.00000000000E+00  0.74505805969E-08  0.10566000000E+00  0.10566000000E+00 0. -1.
     999900   -1    0    0    0    0 -0.00000000000E+00 -0.00000000000E+00 -0.74505805969E-08  0.93827000000E+00  0.93827000000E+00 0.  1.
     999902    2    1    2    0    0  0.89748895706E-02  0.80095331794E-02  0.99410535898E-02  0.10283246864E+01  0.10282062706E+01 0.  0.
     999903    2    3    3    0    0 -0.37972889173E-01  0.17834995494E-01 -0.12238941753E+00  0.13713896662E+00  0.45474160425E-01 0.  0.
         14    1    1    2    0    0 -0.89748895706E-02 -0.80095331794E-02 -0.99410535898E-02  0.15605313551E-01  0.00000000000E+00 0.  1.
     999901    1    3    3    0    0  0.46947778743E-01 -0.98254623142E-02  0.13233047112E+00  0.89118571983E+00  0.88000000000E+00 0. -1.
        -11    1    4    4    0    0 -0.21727038810E-01 -0.74800274021E-02 -0.20153192804E-01  0.30568404057E-01  0.51100000000E-03 0.  1.
         11    1    4    4    0    0 -0.16245850363E-01  0.25315022896E-01 -0.10223622473E+00  0.10657056256E+00  0.51100000000E-03 0. -1.
</event>
<event>
 7    1  0.2257781E+004  0.1043930E+01  0.7957747E-01            NaN
         13   -1    0    0    0    0  0.00000000000E+00  0.00000000000E+00  0.74505805969E-08  0.10566000000E+00  0.10566000000E+00 0.  1.
     999900   -1    0    0    0    0 -0.00000000000E+00 -0.00000000000E+00 -0.74505805969E-08  0.93827000000E+00  0.93827000000E+00 0. -1.
     999903    2    1    2    0    0  0.34136910136E-01  0.92109381382E-01  0.52419479383E-01  0.11975085161E+00  0.44079449518E-01 0.  0.
         14    1    1    2    0    0 -0.36107089812E-01 -0.12148358108E-01  0.62533046225E-02  0.38605807311E-01  0.00000000000E+00 0.  1.
     999901    1    1    2    0    0  0.19701796757E-02 -0.79961023274E-01 -0.58672784006E-01  0.88557334108E+00  0.88000000000E+00 0. -1.
        -11    1    3    3    0    0  0.21958975519E-01  0.52878670958E-01  0.57049541141E-02  0.57542663047E-01  0.51100000000E-03 0.  1.
         11    1    3    3    0    0  0.12177934617E-01  0.39230710424E-01  0.46714525269E-01  0.62208188561E-01  0.51100000000E-03 0. -1.
</event>
<event>
 8    1  0.2257781E+004  0.1043930E+01  0.7957747E-01            NaN
         13   -1    0    0    0    0  0.00000000000E+00  0.00000000000E+00  0.74505805969E-08  0.10566000000E+00  0.10566000000E+00 0.  1.
     999900   -1    0    0    0    0 -0.00000000000E+00 -0.00000000000E+00 -0.74505805969E-08  0.93827000000E+00  0.93827000000E+00 0. -1.
     999902    2    1    2    0    0 -0.70714599317E-02 -0.61632181428E-02 -0.10155598655E-01  0.10301051316E+01  0.10300123568E+01 0.  0.
     999903    2    3    3    0    0  0.10035981584E+00  0.78222305226E-01  0.31383392637E-01  0.13859636359E+00  0.45091163179E-01 0.  0.
         14    1    1    2    0    0  0.70714599317E-02  0.61632181428E-02  0.10155598655E-01  0.13824868444E-01  0.00000000000E+00 0.  1.
     999901    1    3    3    0    0 -0.10743127577E+00 -0.84385523369E-01 -0.41538991292E-01  0.89150876797E+00  0.88000000000E+00 0. -1.
        -11    1    4    4    0    0  0.48500155258E-01  0.10562939241E-01  0.88922538227E-02  0.50429892370E-01  0.51100000000E-03 0.  1.
         11    1    4    4    0    0  0.51859660578E-01  0.67659365985E-01  0.22491138814E-01  0.88166471217E-01  0.51100000000E-03 0. -1.
</event>
<event>
 8    1  0.2257781E+004  0.1043930E+01  0.7957747E-01            NaN
         13   -1    0    0    0    0  0.00000000000E+00  0.00000000000E+00  0.74505805969E-08  0.10566000000E+00  0.10566000000E+00 0.  1.
     999900   -1    0    0    0    0 -0.00000000000E+00 -0.00000000000E+00 -0.74505805969E-08  0.93827000000E+00  0.93827000000E+00 0. -1.
     999902    2    1    2    0    0 -0.54906098080E-03  0.11892742609E-01 -0.68940665172E-02  0.10301725675E+01  0.10300807017E+01 0.  0.
     999903    2    3    3    0    0  0.13425093970E-01 -0.12593544355E+00  0.33383269455E-01  0.13842476143E+00  0.44799584897E-01 0.  0.
         14    1    1    2    0    0  0.54906098080E-03 -0.11892742609E-01  0.68940665172E-02  0.13757432459E-01  0.00000000000E+00 0.  1.
     999901    1    3    3    0    0 -0.13974154951E-01  0.13782818616E+00 -0.40277335972E-01  0.89174780611E+00  0.88000000000E+00 0. -1.
        -11    1    4    4    0    0 -0.14794609393E-01 -0.56596154402E-01  0.22936278446E-01  0.62835811049E-01  0.51100000000E-03 0.  1.
         11    1    4    4    0    0  0.28219703363E-01 -0.69339289151E-01  0.10446991009E-01  0.75588950383E-01  0.51100000000E-03 0. -1.
</event>
<event>
 8    1  0.2257781E+004  0.1043930E+01  0.7957747E-01            NaN
         13   -1    0    0    0    0  0.00000000000E+00  0.00000000000E+00  0.74505805969E-08  0.10566000000E+00  0.10566000000E+00 0. -1.
     999900   -1    0    0    0    0 -0.00000000000E+00 -0.00000000000E+00 -0.74505805969E-08  0.93827000000E+00  0.93827000000E+00 0. -1.
     999902    2    1    2    0    0 -0.12127428521E-01  0.33539905144E-02  0.58313089906E-02  0.10300617651E+01  0.10299684034E+01 0.  0.
     999903    2    3    3    0    0 -0.36332592896E-01 -0.20383957150E-01  0.12685783027E+00  0.14113162217E+00  0.45712828189E-01 0.  0.
         14    1    1    2    0    0  0.12127428521E-01 -0.33539905144E-02 -0.58313089906E-02  0.13868234908E-01  0.00000000000E+00 0.  1.
     999901    1    3    3    0    0  0.24205164375E-01  0.23737947665E-01 -0.12102652128E+00  0.88893014292E+00  0.88000000000E+00 0. -1.
        -11    1    4    4    0    0 -0.13271670509E-01 -0.94261113172E-02  0.10841417786E+00  0.10963067041E+00  0.51100000000E-03 0. -1.
         11    1    4    4    0    0 -0.23060922387E-01 -0.10957845833E-01  0.18443652404E-01  0.31500951757E-01  0.51100000000E-03 0.  1.
</event>
<event>
 8    1  0.2257781E+004  0.1043930E+01  0.7957747E-01            NaN
         13   -1    0    0    0    0  0.00000000000E+00  0.00000000000E+00  0.74505805969E-08  0.10566000000E+00  0.10566000000E+00 0.  1.
     999900   -1    0    0    0    0 -0.00000000000E+00 -0.00000000000E+00 -0.74505805969E-08  0.93827000000E+00  0.93827000000E+00 0.  1.
     999902    2    1    2    0    0 -0.10827934233E-01 -0.13291205145E-01 -0.18163664202E-02  0.10266905255E+01  0.10265457787E+01 0.  0.
     999903    2    3    3    0    0 -0.94445929975E-01  0.46213341791E-01  0.75825679023E-01  0.13733061661E+00  0.45326129462E-01 0.  0.
         14    1    1    2    0    0  0.10827934233E-01  0.13291205145E-01  0.18163664202E-02  0.17239474497E-01  0.00000000000E+00 0. -1.
     999901    1    3    3    0    0  0.83617995743E-01 -0.59504546936E-01 -0.77642045443E-01  0.88935990889E+00  0.88000000000E+00 0.  1.
        -11    1    4    4    0    0 -0.77845839535E-01  0.21514764784E-01  0.38165729293E-01  0.89329412011E-01  0.51100000000E-03 0. -1.
         11    1    4    4    0    0 -0.16600090440E-01  0.24698577007E-01  0.37659949730E-01  0.48001204604E-01  0.51100000000E-03 0.  1.
</event>
<event>
 8    1  0.2257781E+004  0.1043930E+01  0.7957747E-01            NaN
         13   -1    0    0    0    0  0.00000000000E+00  0.00000000000E+00  0.74505805969E-08  0.10566000000E+00  0.10566000000E+00 0. -1.
     999900   -1    0    0    0    0 -0.00000000000E+00 -0.00000000000E+00 -0.74505805969E-08  0.93827000000E+00  0.93827000000E+00 0. -1.
     999902    2    1    2    0    0  0.10138995262E-01 -0.28393450846E-02  0.97331898676E-02  0.10295913777E+01  0.10294915293E+01 0.  0.
     999903    2    3    3    0    0 -0.40524946205E-01  0.58449161637E-01 -0.10957504258E+00  0.13798744634E+00  0.44444005558E-01 0.  0.
         14    1    1    2    0    0 -0.10138995262E-01  0.28393450846E-02 -0.97331898676E-02  0.14338622334E-01  0.00000000000E+00 0.  1.
     999901    1    3    3    0    0  0.50663941467E-01 -0.61288506722E-01  0.11930823245E+00  0.89160393132E+00  0.88000000000E+00 0.  1.
        -11    1    4    4    0    0 -0.42787977618E-01  0.58766036580E-01 -0.79130681089E-01  0.10745317071E+00  0.51100000000E-03 0. -1.
         11    1    4    4    0    0  0.22630314134E-02 -0.31687494308E-03 -0.30444361494E-01  0.30534275637E-01  0.51100000000E-03 0.  1.
</event>
<event>
 8    1  0.2257781E+004  0.1043930E+01  0.7957747E-01            NaN
         13   -1    0    0    0    0  0.00000000000E+00  0.00000000000E+00  0.74505805969E-08  0.10566000000E+00  0.10566000000E+00 0. -1.
     999900   -1    0    0    0    0 -0.00000000000E+00 -0.00000000000E+00 -0.74505805969E-08  0.93827000000E+00  0.93827000000E+00 0.  1.
     999902    2    1    2    0    0  0.10190268179E-01  0.22949621040E-04 -0.11316567349E-01  0.10287015139E+01  0.10285887895E+01 0.  0.
     999903    2    3    3    0    0 -0.65752684576E-01 -0.43724783214E-01  0.10377676425E+00  0.13689005895E+00  0.41641316584E-01 0.  0.
         14    1    1    2    0    0 -0.10190268179E-01 -0.22949621040E-04  0.11316567349E-01  0.15228486097E-01  0.00000000000E+00 0. -1.
     999901    1    3    3    0    0  0.75942952755E-01  0.43747732835E-01 -0.11509333160E+00  0.89181145495E+00  0.88000000000E+00 0.  1.
        -11    1    4    4    0    0 -0.25784991227E-01 -0.11360352734E-01  0.99394992234E-02  0.29882740045E-01  0.51100000000E-03 0.  1.
         11    1    4    4    0    0 -0.39967693349E-01 -0.32364430480E-01  0.93837265023E-01  0.10700731891E+00  0.51100000000E-03 0. -1.
</event>
<event>
 8    1  0.2257781E+004  0.1043930E+01  0.7957747E-01            NaN
         13   -1    0    0    0    0  0.00000000000E+00  0.00000000000E+00  0.74505805969E-08  0.10566000000E+00  0.10566000000E+00 0. -1.
     999900   -1    0    0    0    0 -0.00000000000E+00 -0.00000000000E+00 -0.74505805969E-08  0.93827000000E+00  0.93827000000E+00 0. -1.
     999902    2    1    2    0    0 -0.44775629796E-02 -0.25293339240E-02  0.91564865806E-02  0.10334282217E+01  0.10333748604E+01 0.  0.
     999903    2    3    3    0    0  0.53843404100E-01  0.12362974574E+00 -0.10150139078E-01  0.14231083643E+00  0.44338726267E-01 0.  0.
         14    1    1    2    0    0  0.44775629796E-02  0.25293339240E-02 -0.91564865806E-02  0.10501778270E-01  0.00000000000E+00 0.  1.
     999901    1    3    3    0    0 -0.58320967079E-01 -0.12615907966E+00  0.19306625658E-01  0.89111738530E+00  0.88000000000E+00 0.  1.
        -11    1    4    4    0    0  0.88163646773E-02  0.75360491750E-01 -0.33641230216E-02  0.75950710646E-01  0.51100000000E-03 0.  1.
         11    1    4    4    0    0  0.45027039422E-01  0.48269253988E-01 -0.67860160563E-02  0.66360125788E-01  0.51100000000E-03 0. -1.
</event>
<event>
 8    1  0.2257781E+004  0.1043930E+01  0.7957747E-01            NaN
         13   -1    0    0    0    0  0.00000000000E+00  0.00000000000E+00  0.74505805969E-08  0.10566000000E+00  0.10566000000E+00 0. -1.
     999900   -1    0    0    0    0 -0.00000000000E+00 -0.00000000000E+00 -0.74505805969E-08  0.93827000000E+00  0.93827000000E+00 0.  1.
     999902    2    1    2    0    0 -0.19098700707E-02  0.80148139846E-02  0.10120885773E-01  0.10308794377E+01  0.10307968267E+01 0.  0.
     999903    2    3    3    0    0  0.12958633458E+00 -0.10034843017E-01 -0.19077941172E-01  0.14044717559E+00  0.49680228548E-01 0.  0.
         14    1    1    2    0    0  0.19098700707E-02 -0.80148139846E-02 -0.10120885773E-01  0.13050562276E-01  0.00000000000E+00 0.  1.
     999901    1    3    3    0    0 -0.13149620465E+00  0.18049657002E-01  0.29198826944E-01  0.89043226213E+00  0.88000000000E+00 0.  1.
        -11    1    4    4    0    0  0.50231320940E-01  0.19830076525E-01 -0.12280061742E-01  0.55384822612E-01  0.51100000000E-03 0. -1.
         11    1    4    4    0    0  0.79355013636E-01 -0.29864919542E-01 -0.67978794295E-02  0.85062352978E-01  0.51100000000E-03 0.  1.
</event>
<event>
 7    1  0.2257781E+004  0.1043930E+01  0.7957747E-01            NaN
         13   -1    0    0    0    0  0.00000000000E+00  0.00000000000E+00  0.74505805969E-08  0.10566000000E+00  0.10566000000E+00 0.  1.
     999900   -1    0    0    0    0 -0.00000000000E+00 -0.00000000000E+00 -0.74505805969E-08  0.93827000000E+00  0.93827000000E+00 0. -1.
     999902    2    1    2    0    0  0.87511298759E-02  0.58694990730E-02  0.84295603233E-02  0.10304358983E+01  0.10303475383E+01 0.  0.
         14    1    1    2    0    0 -0.87511298759E-02 -0.58694990730E-02 -0.84295603233E-02  0.13494101701E-01  0.00000000000E+00 0. -1.
     999901    1    3    3    0    0  0.11660189603E+00  0.43643735405E-01 -0.66555799389E-01  0.89125218217E+00  0.88000000000E+00 0. -1.
        -11    1    3    3    0    0 -0.24154068123E-01  0.20125814091E-02  0.11371023033E-01  0.26777430359E-01  0.51100000000E-03 0.  1.
         11    1    3    3    0    0 -0.83696698032E-01 -0.39786817741E-01  0.63614336680E-01  0.11240628577E+00  0.51100000000E-03 0. -1.
</event>
<event>
 8    1  0.2257781E+004  0.1043930E+01  0.7957747E-01            NaN
         13   -1    0    0    0    0  0.00000000000E+00  0.00000000000E+00  0.74505805969E-08  0.10566000000E+00  0.10566000000E+00 0. -1.
     999900   -1    0    0    0    0 -0.00000000000E+00 -0.00000000000E+00 -0.74505805969E-08  0.93827000000E+00  0.93827000000E+00 0. -1.
     999902    2    1    2    0    0  0.13762095839E-01 -0.86792379707E-03  0.64392243324E-03  0.10301255366E+01  0.10300330373E+01 0.  0.
     999903    2    3    3    0    0 -0.26444457534E-01  0.12952415208E+00 -0.30446866917E-02  0.13960194555E+00  0.44761789256E-01 0.  0.
         14    1    1    2    0    0 -0.13762095839E-01  0.86792379707E-03 -0.64392243324E-03  0.13804463397E-01  0.00000000000E+00 0. -1.
     999901    1    3    3    0    0  0.40206553373E-01 -0.13039207588E+00  0.36886091249E-02  0.89052359105E+00  0.88000000000E+00 0.  1.
        -11    1    4    4    0    0 -0.10833531159E-01  0.10807750154E+00 -0.16478698153E-01  0.10986318924E+00  0.51100000000E-03 0.  1.
         11    1    4    4    0    0 -0.15610926376E-01  0.21446650539E-01  0.13434011461E-01  0.29738756306E-01  0.51100000000E-03 0. -1.
</event>
<event>
 8    1  0.2257781E+004  0.1043930E+01  0.7957747E-01            NaN
         13   -1    0    0    0    0  0.00000000000E+00  0.00000000000E+00  0.74505805969E-08  0.10566000000E+00  0.10566000000E+00 0.  1.
     999900   -1    0    0    0    0 -0.00000000000E+00 -0.00000000000E+00 -0.74505805969E-08  0.93827000000E+00  0.93827000000E+00 0. -1.
     999902    2    1    2    0    0  0.13551688487E-01  0.18213829623E-02  0.15206790978E-02  0.10301721600E+01  0.10300802886E+01 0.  0.
     999903    2    3    3    0    0 -0.42608942598E-01 -0.24541598397E-01 -0.12189337486E+00  0.13939718729E+00  0.46430258980E-01 0.  0.
         14    1    1    2    0    0 -0.13551688487E-01 -0.18213829623E-02 -0.15206790978E-02  0.13757840007E-01  0.00000000000E+00 0.  1.
     999901    1    3    3    0    0  0.56160631085E-01  0.26362981360E-01  0.12341405396E+00  0.89077497270E+00  0.88000000000E+00 0.  1.
        -11    1    4    4    0    0  0.54630928222E-02 -0.53265441652E-02 -0.51229215699E-01  0.51796825366E-01  0.51100000000E-03 0. -1.
         11    1    4    4    0    0 -0.48072035420E-01 -0.19215054232E-01 -0.70664159165E-01  0.87600361929E-01  0.51100000000E-03 0.  1.
</event>
<event>
 8    1  0.2257781E+004  0.1043930E+01  0.7957747E-01            NaN
         13   -1    0    0    0    0  0.00000000000E+00  0.00000000000E+00  0.74505805969E-08  0.10566000000E+00  0.10566000000E+00 0.  1.
     999900   -1    0    0    0    0 -0.00000000000E+00 -0.00000000000E+00 -0.74505805969E-08  0.93827000000E+00  0.93827000000E+00 0.  1.
     999902    2    1    2    0    0 -0.66172525597E-02 -0.26662488169E-03  0.12999903713E-01  0.10293403935E+01  0.10292369937E+01 0.  0.
     999903    2    3    3    0    0  0.10891077842E+00  0.45491042380E-01 -0.54477799478E-01  0.13805271243E+00  0.46472875769E-01 0.  0.
         14    1    1    2    0    0  0.66172525597E-02  0.26662488169E-03 -0.12999903713E-01  0.14589606466E-01  0.00000000000E+00 0. -1.
     999901    1    3    3    0    0 -0.11552803098E+00 -0.45757667262E-01  0.67477703191E-01  0.89128768110E+00  0.88000000000E+00 0. -1.
        -11    1    4    4    0    0  0.79894517146E-01  0.96479757718E-02 -0.30399282135E-01  0.86026709700E-01  0.51100000000E-03 0.  1.
         11    1    4    4    0    0  0.29016261270E-01  0.35843066608E-01 -0.24078517343E-01  0.52026002734E-01  0.51100000000E-03 0. -1.
</event>
<event>
 8    1  0.2257781E+004  0.1043930E+01  0.7957747E-01            NaN
         13   -1    0    0    0    0  0.00000000000E+00  0.00000000000E+00  0.74505805969E-08  0.10566000000E+00  0.10566000000E+00 0. -1.
     999900   -1    0    0    0    0 -0.00000000000E+00 -0.00000000000E+00 -0.74505805969E-08  0.93827000000E+00  0.93827000000E+00 0.  1.
     999902    2    1    2    0    0 -0.53615721668E-02 -0.11719977717E-01 -0.34784480561E-02  0.10305806953E+01  0.10304942337E+01 0.  0.
     999903    2    3    3    0    0  0.64567491894E-01  0.31399108922E-03  0.11558963586E+00  0.13973160655E+00  0.44664284960E-01 0.  0.
         14    1    1    2    0    0  0.53615721668E-02  0.11719977717E-01  0.34784480561E-02  0.13349304651E-01  0.00000000000E+00 0. -1.
     999901    1    3    3    0    0 -0.69929064061E-01 -0.12033968806E-01 -0.11906808392E+00  0.89084908880E+00  0.88000000000E+00 0.  1.
        -11    1    4    4    0    0  0.49534814374E-01  0.17119487076E-01  0.97979746189E-01  0.11111735444E+00  0.51100000000E-03 0.  1.
         11    1    4    4    0    0  0.15032677520E-01 -0.16805495987E-01  0.17609889672E-01  0.28614252114E-01  0.51100000000E-03 0. -1.
</event>
<event>
 8    1  0.2257781E+004  0.1043930E+01  0.7957747E-01            NaN
         13   -1    0    0    0    0  0.00000000000E+00  0.00000000000E+00  0.74505805969E-08  0.10566000000E+00  0.10566000000E+00 0.  1.
     999900   -1    0    0    0    0 -0.00000000000E+00 -0.00000000000E+00 -0.74505805969E-08  0.93827000000E+00  0.93827000000E+00 0.  1.
     999902    2    1    2    0    0 -0.12204207667E-01 -0.45514734306E-02  0.74931559215E-02  0.10289031580E+01  0.10287934207E+01 0.  0.
     999903    2    3    3    0    0  0.63444421826E-01 -0.90565914026E-01  0.72446209498E-01  0.13910537293E+00  0.43295173655E-01 0.  0.
         14    1    1    2    0    0  0.12204207667E-01  0.45514734306E-02 -0.74931559215E-02  0.15026842011E-01  0.00000000000E+00 0.  1.
     999901    1    3    3    0    0 -0.75648629493E-01  0.86014440596E-01 -0.64953053576E-01  0.88979778506E+00  0.88000000000E+00 0.  1.
        -11    1    4    4    0    0  0.53090612055E-01 -0.39213439397E-01  0.45729156926E-01  0.80297719967E-01  0.51100000000E-03 0.  1.
         11    1    4    4    0    0  0.10353809771E-01 -0.51352474630E-01  0.26717052572E-01  0.58807652959E-01  0.51100000000E-03 0. -1.
</event>
<event>
 8    1  0.2257781E+004  0.1043930E+01  0.7957747E-01            NaN
         13   -1    0    0    0    0  0.00000000000E+00  0.00000000000E+00  0.74505805969E-08  0.10566000000E+00  0.10566000000E+00 0.  1.
     999900   -1    0    0    0    0 -0.00000000000E+00 -0.00000000000E+00 -0.74505805969E-08  0.93827000000E+00  0.93827000000E+00 0.  1.
     999902    2    1    2    0    0 -0.69176363322E-02  0.94750141404E-03 -0.11888578799E-01  0.10301426958E+01  0.10300504279E+01 0.  0.
     999903    2    3    3    0    0 -0.13266377593E+00  0.92219674768E-02  0.14921894785E-01  0.14076124787E+00  0.43661697521E-01 0.  0.
         14    1    1    2    0    0  0.69176363322E-02 -0.94750141404E-03  0.11888578799E-01  0.13787304204E-01  0.00000000000E+00 0.  1.
     999901    1    3    3    0    0  0.12574613960E+00 -0.82744660627E-02 -0.26810473584E-01  0.88938144792E+00  0.88000000000E+00 0.  1.
        -11    1    4    4    0    0 -0.75883807269E-01  0.16086759914E-01 -0.10297332433E-01  0.78252362433E-01  0.51100000000E-03 0. -1.
         11    1    4    4    0    0 -0.56779968663E-01 -0.68647924375E-02  0.25219227217E-01  0.62508885441E-01  0.51100000000E-03 0.  1.
</event>
<event>
 8    1  0.2257781E+004  0.1043930E+01  0.7957747E-01            NaN
         13   -1    0    0    0    0  0.00000000000E+00  0.00000000000E+00  0.74505805969E-08  0.10566000000E+00  0.10566000000E+00 0. -1.
     999900   -1    0    0    0    0 -0.00000000000E+00 -0.00000000000E+00 -0.74505805969E-08  0.93827000000E+00  0.93827000000E+00 0.  1.
     999902    2    1    2    0    0  0.47058530401E-02 -0.12187862518E-01  0.53452535767E-02  0.10298140239E+01  0.10297172733E+01 0.  0.
     999903    2    3    3    0    0 -0.48074521075E-01  0.14068700259E-01  0.12295534253E+00  0.14003466473E+00  0.44526432187E-01 0.  0.
         14    1    1    2    0    0 -0.47058530401E-02  0.12187862518E-01 -0.53452535767E-02  0.14115976104E-01  0.00000000000E+00 0.  1.
     999901    1    3    3    0    0  0.52780374115E-01 -0.26256562776E-01 -0.11761008896E+00  0.88977935917E+00  0.88000000000E+00 0.  1.
        -11    1    4    4    0    0 -0.14464245962E-01 -0.15036853806E-01  0.54984774792E-01  0.58812481359E-01  0.51100000000E-03 0. -1.
         11    1    4    4    0    0 -0.33610275113E-01  0.29105554065E-01  0.67970567743E-01  0.81222183367E-01  0.51100000000E-03 0.  1.
</event>
<event>
 8    1  0.2257781E+004  0.1043930E+01  0.7957747E-01            NaN
         13   -1    0    0    0    0  0.00000000000E+00  0.00000000000E+00  0.74505805969E-08  0.10566000000E+00  0.10566000000E+00 0. -1.
     999900   -1    0    0    0    0 -0.00000000000E+00 -0.00000000000E+00 -0.74505805969E-08  0.93827000000E+00  0.93827000000E+00 0. -1.
     999902    2    1    2    0    0 -0.12970534437E-01  0.12369652046E-02 -0.56372793625E-02  0.10297333890E+01  0.10296355222E+01 0.  0.
     999903    2    3    3    0    0 -0.21593538638E-01  0.13083795100E+00  0.21349442021E-01  0.13979010152E+00  0.38737881650E-01 0.  0.
         14    1    1    2    0    0  0.12970534437E-01 -0.12369652046E-02  0.56372793625E-02  0.14196611043E-01  0.00000000000E+00 0. -1.
     999901    1    3    3    0    0  0.86230042009E-02 -0.12960098580E+00 -0.26986721383E-01  0.88994328744E+00  0.88000000000E+00 0. -1.
        -11    1    4    4    0    0 -0.15327377310E-01  0.14189739000E-01 -0.72117566269E-03  0.20905941822E-01  0.51100000000E-03 0. -1.
         11    1    4    4    0    0 -0.62661613274E-02  0.11664821200E+00  0.22070617683E-01  0.11888415970E+00  0.51100000000E-03 0.  1.
</event>
<event>
 8    1  0.2257781E+004  0.1043930E+01  0.7957747E-01            NaN
         13   -1    0    0    0    0  0.00000000000E+00  0.00000000000E+00  0.74505805969E-08  0.10566000000E+00  0.10566000000E+00 0.  1.
     999900   -1    0    0    0    0 -0.00000000000E+00 -0.00000000000E+00 -0.74505805969E-08  0.93827000000E+00  0.93827000000E+00 0. -1.
     999902    2    1    2    0    0 -0.12042637003E-01 -0.71342024266E-02 -0.50368223573E-02  0.10290541293E+01  0.10289466018E+01 0.  0.
     999903    2    3    3    0    0 -0.44854850050E-01  0.90672690632E-01  0.83540233129E-01  0.13861113592E+00  0.44727866611E-01 0.  0.
         14    1    1    2    0    0  0.12042637003E-01  0.71342024266E-02  0.50368223573E-02  0.14875870721E-01  0.00000000000E+00 0.  1.
     999901    1    3    3    0    0  0.32812213048E-01 -0.97806893059E-01 -0.88577055487E-01  0.89044299335E+00  0.88000000000E+00 0. -1.
        -11    1    4    4    0    0 -0.24314863114E-01  0.73351214390E-01  0.38925299453E-01  0.86527760165E-01  0.51100000000E-03 0.  1.
         11    1    4    4    0    0 -0.20539986936E-01  0.17321476242E-01  0.44614933676E-01  0.52083375760E-01  0.51100000000E-03 0. -1.
</event>
<event>
 8    1  0.2257781E+004  0.1043930E+01  0.7957747E-01            NaN
         13   -1    0    0    0    0  0.00000000000E+00  0.00000000000E+00  0.74505805969E-08  0.10566000000E+00  0.10566000000E+00 0. -1.
     999900   -1    0    0    0    0 -0.00000000000E+00 -0.00000000000E+00 -0.74505805969E-08  0.93827000000E+00  0.93827000000E+00 0. -1.
     999902    2    1    2    0    0 -0.15814098721E-02  0.13559507351E-01 -0.29860099533E-02  0.10299558327E+01  0.10298610294E+01 0.  0.
     999903    2    3    3    0    0 -0.15218490923E-01 -0.31152797991E-01  0.12694903170E+00  0.13918747038E+00  0.45332063408E-01 0.  0.
         14    1    1    2    0    0  0.15814098721E-02 -0.13559507351E-01  0.29860099533E-02  0.13974167318E-01  0.00000000000E+00 0.  1.
     999901    1    3    3    0    0  0.13637081051E-01  0.44712305342E-01 -0.12993504165E+00  0.89076836230E+00  0.88000000000E+00 0. -1.
        -11    1    4    4    0    0 -0.23521101339E-01  0.83605720177E-03  0.61835690580E-01  0.66165360654E-01  0.51100000000E-03 0. -1.
         11    1    4    4    0    0  0.83026104162E-02 -0.31988855192E-01  0.65113341119E-01  0.73022109727E-01  0.51100000000E-03 0.  1.
</event>
<event>
 8    1  0.2257781E+004  0.1043930E+01  0.7957747E-01            NaN
         13   -1    0    0    0    0  0.00000000000E+00  0.00000000000E+00  0.74505805969E-08  0.10566000000E+00  0.10566000000E+00 0.  1.
     999900   -1    0    0    0    0 -0.00000000000E+00 -0.00000000000E+00 -0.74505805969E-08  0.93827000000E+00  0.93827000000E+00 0.  1.
     999902    2    1    2    0    0 -0.72253735421E-02 -0.10720709322E-01 -0.45079707051E-02  0.10302383445E+01  0.10301473608E+01 0.  0.
     999903    2    3    3    0    0  0.10053616663E+00  0.11121387058E-01  0.83726449053E-01  0.13901730593E+00  0.45656182786E-01 0.  0.
         14    1    1    2    0    0  0.72253735421E-02  0.10720709322E-01  0.45079707051E-02  0.13691655527E-01  0.00000000000E+00 0.  1.
     999901    1    3    3    0    0 -0.10776154017E+00 -0.21842096380E-01 -0.88234419758E-01  0.89122103854E+00  0.88000000000E+00 0.  1.
        -11    1    4    4    0    0  0.55106834915E-01  0.74198822224E-02  0.16886668809E-01  0.58114013895E-01  0.51100000000E-03 0.  1.
         11    1    4    4    0    0  0.45429331713E-01  0.37015048357E-02  0.66839780244E-01  0.80903292034E-01  0.51100000000E-03 0. -1.
</event>
<event>
 8    1  0.2257781E+004  0.1043930E+01  0.7957747E-01            NaN
         13   -1    0    0    0    0  0.00000000000E+00  0.00000000000E+00  0.74505805969E-08  0.10566000000E+00  0.10566000000E+00 0. -1.
     999900   -1    0    0    0    0 -0.00000000000E+00 -0.00000000000E+00 -0.74505805969E-08  0.93827000000E+00  0.93827000000E+00 0. -1.
     999902    2    1    2    0    0 -0.66996073918E-02  0.61196178921E-02  0.21983737219E-01  0.10201472507E+01  0.10198699887E+01 0.  0.
     999903    2    3    3    0    0 -0.71275018294E-01  0.78937520988E-01 -0.61452072314E-01  0.13085879074E+00  0.45126549488E-01 0.  0.
         14    1    1    2    0    0  0.66996073918E-02 -0.61196178921E-02 -0.21983737219E-01  0.23782749304E-01  0.00000000000E+00 0.  1.
     999901    1    3    3    0    0  0.64575410903E-01 -0.72817903096E-01  0.83435809533E-01  0.88928845996E+00  0.88000000000E+00 0.  1.
        -11    1    4    4    0    0 -0.39407558325E-01  0.54811363112E-01 -0.60842575192E-01  0.90880807965E-01  0.51100000000E-03 0.  1.
         11    1    4    4    0    0 -0.31867459969E-01  0.24126157876E-01 -0.60949712226E-03  0.39977982771E-01  0.51100000000E-03 0. -1.
</event>
<event>
 8    1  0.2257781E+004  0.1043930E+01  0.7957747E-01            NaN
         13   -1    0    0    0    0  0.00000000000E+00  0.00000000000E+00  0.74505805969E-08  0.10566000000E+00  0.10566000000E+00 0.  1.
     999900   -1    0    0    0    0 -0.00000000000E+00 -0.00000000000E+00 -0.74505805969E-08  0.93827000000E+00  0.93827000000E+00 0.  1.
     999902    2    1    2    0    0 -0.28183638681E-02  0.10775117789E-01  0.69475350024E-02  0.10308031351E+01  0.10307195491E+01 0.  0.
     999903    2    3    3    0    0  0.11723627864E+00 -0.40668453355E-01  0.46664491473E-01  0.14027688914E+00  0.45844985934E-01 0.  0.
         14    1    1    2    0    0  0.28183638681E-02 -0.10775117789E-01 -0.69475350024E-02  0.13126864853E-01  0.00000000000E+00 0. -1.
     999901    1    3    3    0    0 -0.12005464250E+00  0.51443571144E-01 -0.39716956470E-01  0.89052624601E+00  0.88000000000E+00 0. -1.
        -11    1    4    4    0    0  0.31025953271E-01 -0.15545086941E-01  0.35737568190E-01  0.49816607728E-01  0.51100000000E-03 0.  1.
         11    1    4    4    0    0  0.86210325364E-01 -0.25123366415E-01  0.10926923283E-01  0.90460281411E-01  0.51100000000E-03 0. -1.
</event>
<event>
 8    1  0.2257781E+004  0.1043930E+01  0.7957747E-01            NaN
         13   -1    0    0    0    0  0.00000000000E+00  0.00000000000E+00  0.74505805969E-08  0.10566000000E+00  0.10566000000E+00 0.  1.
     999900   -1    0    0    0    0 -0.00000000000E+00 -0.00000000000E+00 -0.74505805969E-08  0.93827000000E+00  0.93827000000E+00 0.  1.
     999902    2    1    2    0    0  0.10169915928E-01 -0.42169758276E-02 -0.75475765048E-02  0.10305817422E+01  0.10304952942E+01 0.  0.
     999903    2    3    3    0    0  0.12707218599E+00  0.35477769106E-01  0.21975111144E-01  0.14147353585E+00  0.46106868049E-01 0.  0.
         14    1    1    2    0    0 -0.10169915928E-01  0.42169758276E-02  0.75475765048E-02  0.13348257797E-01  0.00000000000E+00 0.  1.
     999901    1    3    3    0    0 -0.11690227007E+00 -0.39694744934E-01 -0.29522687649E-01  0.88910820636E+00  0.88000000000E+00 0. -1.
        -11    1    4    4    0    0  0.97115906114E-01  0.46065920868E-01  0.11938828799E-01  0.10814973435E+00  0.51100000000E-03 0.  1.
         11    1    4    4    0    0  0.29956279880E-01 -0.10588151762E-01  0.10036282345E-01  0.33323801498E-01  0.51100000000E-03 0. -1.
</event>
<event>
 8    1  0.2257781E+004  0.1043930E+01  0.7957747E-01            NaN
         13   -1    0    0    0    0  0.00000000000E+00  0.00000000000E+00  0.74505805969E-08  0.10566000000E+00  0.10566000000E+00 0.  1.
     999900   -1    0    0    0    0 -0.00000000000E+00 -0.00000000000E+00 -0.74505805969E-08  0.93827000000E+00  0.93827000000E+00 0.  1.
     999902    2    1    2    0    0  0.80264313562E-02 -0.10455450796E-01 -0.45383623471E-02  0.10299895271E+01  0.10298951836E+01 0.  0.
     999903    2    3    3    0    0  0.11530663653E+00  0.11461110548E-01 -0.66860783028E-01  0.14101626418E+00  0.44589740665E-01 0.  0.
         14    1    1    2    0    0 -0.80264313562E-02  0.10455450796E-01  0.45383623471E-02  0.13940472892E-01  0.00000000000E+00 0.  1.
     999901    1    3    3    0    0 -0.10728020517E+00 -0.21916561344E-01  0.62322420681E-01  0.88897326293E+00  0.88000000000E+00 0. -1.
        -11    1    4    4    0    0  0.10314589627E-01  0.13239839931E-01 -0.19753115716E-01  0.25925485956E-01  0.51100000000E-03 0. -1.
         11    1    4    4    0    0  0.10499204690E+00 -0.17787293827E-02 -0.47107667313E-01  0.11509077822E+00  0.51100000000E-03 0.  1.
</event>
<event>
 8    1  0.2257781E+004  0.1043930E+01  0.7957747E-01            NaN
         13   -1    0    0    0    0  0.00000000000E+00  0.00000000000E+00  0.74505805969E-08  0.10566000000E+00  0.10566000000E+00 0. -1.
     999900   -1    0    0    0    0 -0.00000000000E+00 -0.00000000000E+00 -0.74505805969E-08  0.93827000000E+00  0.93827000000E+00 0. -1.
     999902    2    1    2    0    0  0.84507786655E-02  0.35728124738E-02  0.10307998456E-01  0.10301301637E+01  0.10300377269E+01 0.  0.
     999903    2    3    3    0    0 -0.44262271670E-01  0.11083519935E+00  0.60581509910E-01  0.14062956717E+00  0.43162086512E-01 0.  0.
         14    1    1    2    0    0 -0.84507786655E-02 -0.35728124738E-02 -0.10307998456E-01  0.13799836275E-01  0.00000000000E+00 0.  1.
     999901    1    3    3    0    0  0.52713050335E-01 -0.10726238688E+00 -0.50273511453E-01  0.88950059655E+00  0.88000000000E+00 0. -1.
        -11    1    4    4    0    0 -0.26911696977E-01  0.26472699908E-01  0.33136748128E-01  0.50232942101E-01  0.51100000000E-03 0. -1.
         11    1    4    4    0    0 -0.17350574692E-01  0.84362499441E-01  0.27444761782E-01  0.90396625072E-01  0.51100000000E-03 0.  1.
</event>
<event>
 8    1  0.2257781E+004  0.1043930E+01  0.7957747E-01            NaN
         13   -1    0    0    0    0  0.00000000000E+00  0.00000000000E+00  0.74505805969E-08  0.10566000000E+00  0.10566000000E+00 0. -1.
     999900   -1    0    0    0    0 -0.00000000000E+00 -0.00000000000E+00 -0.74505805969E-08  0.93827000000E+00  0.93827000000E+00 0. -1.
     999902    2    1    2    0    0 -0.90935614863E-02 -0.86324597241E-02 -0.57034143840E-02  0.10301553437E+01  0.10300632461E+01 0.  0.
     999903    2    3    3    0    0 -0.64472968945E-01  0.11483321738E+00  0.11600700411E-01  0.13964420697E+00  0.44972177541E-01 0.  0.
         14    1    1    2    0    0  0.90935614863E-02  0.86324597241E-02  0.57034143840E-02  0.13774656331E-01  0.00000000000E+00 0.  1.
     999901    1    3    3    0    0  0.55379407459E-01 -0.12346567710E+00 -0.17304114795E-01  0.89051113670E+00  0.88000000000E+00 0.  1.
        -11    1    4    4    0    0 -0.63267509794E-01  0.72302952850E-01  0.13665031654E-01  0.97043747854E-01  0.51100000000E-03 0. -1.
         11    1    4    4    0    0 -0.12054591508E-02  0.42530264528E-01 -0.20643312429E-02  0.42600459118E-01  0.51100000000E-03 0.  1.
</event>
<event>
 8    1  0.2257781E+004  0.1043930E+01  0.7957747E-01            NaN
         13   -1    0    0    0    0  0.00000000000E+00  0.00000000000E+00  0.74505805969E-08  0.10566000000E+00  0.10566000000E+00 0. -1.
     999900   -1    0    0    0    0 -0.00000000000E+00 -0.00000000000E+00 -0.74505805969E-08  0.93827000000E+00  0.93827000000E+00 0.  1.
     999902    2    1    2    0    0  0.25330145632E-02  0.12248711295E-01  0.64758314273E-02  0.10298451328E+01  0.10297488112E+01 0.  0.
     999903    2    3    3    0    0 -0.66066063882E-01 -0.10593182312E+00  0.40262707163E-01  0.13865826955E+00  0.44930548405E-01 0.  0.
         14    1    1    2    0    0 -0.25330145632E-02 -0.12248711295E-01 -0.64758314273E-02  0.14084867193E-01  0.00000000000E+00 0. -1.
     999901    1    3    3    0    0  0.68599078445E-01  0.11818053441E+00 -0.33786875736E-01  0.89118686326E+00  0.88000000000E+00 0.  1.
        -11    1    4    4    0    0 -0.28159440118E-01 -0.73317396496E-01  0.41095662827E-01  0.88642593154E-01  0.51100000000E-03 0. -1.
         11    1    4    4    0    0 -0.37906623764E-01 -0.32614426619E-01 -0.83295566434E-03  0.50015676392E-01  0.51100000000E-03 0.  1.
</event>
<event>
 8    1  0.2257781E+004  0.1043930E+01  0.7957747E-01            NaN
         13   -1    0    0    0    0  0.00000000000E+00  0.00000000000E+00  0.74505805969E-08  0.10566000000E+00  0.10566000000E+00 0.  1.
     999900   -1    0    0    0    0 -0.00000000000E+00 -0.00000000000E+00 -0.74505805969E-08  0.93827000000E+00  0.93827000000E+00 0.  1.
     999902    2    1    2    0    0  0.66948914158E-02 -0.11961828841E-01  0.27568506220E-02  0.10299476130E+01  0.10298526974E+01 0.  0.
     999903    2    3    3    0    0  0.51926662547E-01  0.12008804737E+00  0.13825557785E-01  0.13887769477E+00  0.44478653896E-01 0.  0.
         14    1    1    2    0    0 -0.66948914158E-02  0.11961828841E-01 -0.27568506220E-02  0.13982386979E-01  0.00000000000E+00 0. -1.
     999901    1    3    3    0    0 -0.45231771131E-01 -0.13204987621E+00 -0.11068707163E-01  0.89106991825E+00  0.88000000000E+00 0.  1.
        -11    1    4    4    0    0  0.18762013883E-01  0.91409562746E-02  0.96615261617E-02  0.23003835665E-01  0.51100000000E-03 0.  1.
         11    1    4    4    0    0  0.33164648664E-01  0.11094709110E+00  0.41640316237E-02  0.11587385911E+00  0.51100000000E-03 0. -1.
</event>
<event>
 8    1  0.2257781E+004  0.1043930E+01  0.7957747E-01            NaN
         13   -1    0    0    0    0  0.00000000000E+00  0.00000000000E+00  0.74505805969E-08  0.10566000000E+00  0.10566000000E+00 0.  1.
     999900   -1    0    0    0    0 -0.00000000000E+00 -0.00000000000E+00 -0.74505805969E-08  0.93827000000E+00  0.93827000000E+00 0. -1.
     999902    2    1    2    0    0 -0.52191125421E-02 -0.14491128879E-01  0.55357641021E-03  0.10285177192E+01  0.10284022367E+01 0.  0.
     999903    2    3    3    0    0  0.47155046051E-01  0.19324820152E-01  0.12048021925E+00  0.13819813022E+00  0.44566724418E-01 0.  0.
         14    1    1    2    0    0  0.52191125421E-02  0.14491128879E-01 -0.55357641021E-03  0.15412280777E-01  0.00000000000E+00 0. -1.
     999901    1    3    3    0    0 -0.52374158593E-01 -0.33815949031E-01 -0.11992664284E+00  0.89031958900E+00  0.88000000000E+00 0. -1.
        -11    1    4    4    0    0  0.69346235084E-02 -0.13747780094E-01  0.32386566135E-01  0.35864205661E-01  0.51100000000E-03 0.  1.
         11    1    4    4    0    0  0.40220422542E-01  0.33072600246E-01  0.88093653111E-01  0.10233392456E+00  0.51100000000E-03 0. -1.
</event>
<event>
 8    1  0.2257781E+004  0.1043930E+01  0.7957747E-01            NaN
         13   -1    0    0    0    0  0.00000000000E+00  0.00000000000E+00  0.74505805969E-08  0.10566000000E+00  0.10566000000E+00 0.  1.
     999900   -1    0    0    0    0 -0.00000000000E+00 -0.00000000000E+00 -0.74505805969E-08  0.93827000000E+00  0.93827000000E+00 0. -1.
     999902    2    1    2    0    0  0.31489120852E-02 -0.95416520295E-02 -0.89087907686E-02  0.10305014735E+01  0.10304139758E+01 0.  0.
     999903    2    3    3    0    0 -0.11666772677E+00 -0.39516364398E-01  0.48763428071E-01  0.14000689455E+00  0.45289701688E-01 0.  0.
         14    1    1    2    0    0 -0.31489120852E-02  0.95416520295E-02  0.89087907686E-02  0.13428526491E-01  0.00000000000E+00 0.  1.
     999901    1    3    3    0    0  0.11981663886E+00  0.29974712369E-01 -0.57672218839E-01  0.89049457896E+00  0.88000000000E+00 0. -1.
        -11    1    4    4    0    0 -0.75474583053E-01 -0.20199005808E-02  0.29573985342E-01  0.81088682412E-01  0.51100000000E-03 0. -1.
         11    1    4    4    0    0 -0.41193143719E-01 -0.37496463818E-01  0.19189442729E-01  0.58918212138E-01  0.51100000000E-03 0.  1.
</event>
<event>
 8    1  0.2257781E+004  0.1043930E+01  0.7957747E-01            NaN
         13   -1    0    0    0    0  0.00000000000E+00  0.00000000000E+00  0.74505805969E-08  0.10566000000E+00  0.10566000000E+00 0. -1.
     999900   -1    0    0    0    0 -0.00000000000E+00 -0.00000000000E+00 -0.74505805969E-08  0.93827000000E+00  0.93827000000E+00 0.  1.
     999902    2    1    2    0    0 -0.17648019427E-01  0.13085456355E-01  0.38044090555E-02  0.10216330207E+01  0.10213896777E+01 0.  0.
     999903    2    3    3    0    0 -0.30080966065E-01 -0.11941505960E+00 -0.12925661989E-01  0.13146963111E+00  0.44185633260E-01 0.  0.
         14    1    1    2    0    0  0.17648019427E-01 -0.13085456355E-01 -0.38044090555E-02  0.22296979301E-01  0.00000000000E+00 0.  1.
     999901    1    3    3    0    0  0.12432946638E-01  0.13250051596E+00  0.16730071045E-01  0.89016338959E+00  0.88000000000E+00 0.  1.
        -11    1    4    4    0    0 -0.30546375275E-01 -0.48071581836E-01 -0.18547067141E-01  0.59901693158E-01  0.51100000000E-03 0. -1.
         11    1    4    4    0    0  0.46540921020E-03 -0.71343477766E-01  0.56214051519E-02  0.71567937950E-01  0.51100000000E-03 0.  1.
</event>
<event>
 8    1  0.2710105E+004  0.1043930E+01  0.7957747E-01            NaN
         13   -1    0    0    0    0  0.00000000000E+00  0.00000000000E+00  0.74505805969E-08  0.10566000000E+00  0.10566000000E+00 0.  1.
     999900   -1    0    0    0    0 -0.00000000000E+00 -0.00000000000E+00 -0.74505805969E-08  0.93827000000E+00  0.93827000000E+00 0. -1.
     999902    2    1    2    0    0 -0.10995588586E-01  0.10773655811E-01  0.33754111710E-02  0.10281703037E+01  0.10280495150E+01 0.  0.
     999903    2    3    3    0    0 -0.10874767916E+00 -0.16346815970E-01 -0.71074232052E-01  0.13921938231E+00  0.47299194875E-01 0.  0.
         14    1    1    2    0    0  0.10995588586E-01 -0.10773655811E-01 -0.33754111710E-02  0.15759696331E-01  0.00000000000E+00 0. -1.
     999901    1    3    3    0    0  0.97752090571E-01  0.27120471781E-01  0.74449643223E-01  0.88895092135E+00  0.88000000000E+00 0.  1.
        -11    1    4    4    0    0 -0.61936834384E-01  0.13420794034E-01 -0.46163698180E-01  0.78406870341E-01  0.51100000000E-03 0.  1.
         11    1    4    4    0    0 -0.46810844772E-01 -0.29767610004E-01 -0.24910533872E-01  0.60812511973E-01  0.51100000000E-03 0. -1.
</event>
<event>
 8    1  0.2257781E+004  0.1043930E+01  0.7957747E-01            NaN
         13   -1    0    0    0    0  0.00000000000E+00  0.00000000000E+00  0.74505805969E-08  0.10566000000E+00  0.10566000000E+00 0. -1.
     999900   -1    0    0    0    0 -0.00000000000E+00 -0.00000000000E+00 -0.74505805969E-08  0.93827000000E+00  0.93827000000E+00 0.  1.
     999902    2    1    2    0    0 -0.10981961425E-01  0.10169247317E-01  0.20834697143E-01  0.10182765076E+01  0.10179533114E+01 0.  0.
     999903    2    3    3    0    0  0.14055027910E-01  0.12141130927E+00  0.12866937302E-02  0.13070466733E+00  0.46301238145E-01 0.  0.
         14    1    1    2    0    0  0.10981961425E-01 -0.10169247317E-01 -0.20834697143E-01  0.25653492409E-01  0.00000000000E+00 0.  1.
     999901    1    3    3    0    0 -0.25036989335E-01 -0.11124206195E+00  0.19548003413E-01  0.88757184026E+00  0.88000000000E+00 0. -1.
        -11    1    4    4    0    0  0.26867673369E-01  0.70506170238E-01  0.13880684725E-01  0.76719791732E-01  0.51100000000E-03 0.  1.
         11    1    4    4    0    0 -0.12812645459E-01  0.50905139031E-01 -0.12593990995E-01  0.53984875601E-01  0.51100000000E-03 0. -1.
</event>
<event>
 8    1  0.2257781E+004  0.1043930E+01  0.7957747E-01            NaN
         13   -1    0    0    0    0  0.00000000000E+00  0.00000000000E+00  0.74505805969E-08  0.10566000000E+00  0.10566000000E+00 0. -1.
     999900   -1    0    0    0    0 -0.00000000000E+00 -0.00000000000E+00 -0.74505805969E-08  0.93827000000E+00  0.93827000000E+00 0.  1.
     999902    2    1    2    0    0 -0.75736170099E-02 -0.21320906016E-03 -0.10735841039E-01  0.10307898548E+01  0.10307060984E+01 0.  0.
     999903    2    3    3    0    0  0.80185711370E-01  0.10730838156E+00 -0.37740167837E-02  0.13988522515E+00  0.40109798693E-01 0.  0.
         14    1    1    2    0    0  0.75736170099E-02  0.21320906016E-03  0.10735841039E-01  0.13140145187E-01  0.00000000000E+00 0. -1.
     999901    1    3    3    0    0 -0.87759328380E-01 -0.10752159062E+00 -0.69618242551E-02  0.89090462967E+00  0.88000000000E+00 0.  1.
        -11    1    4    4    0    0  0.86413578563E-02  0.23453899765E-02 -0.90588288132E-02  0.12747447596E-01  0.51100000000E-03 0. -1.
         11    1    4    4    0    0  0.71544353514E-01  0.10496299158E+00  0.52848120295E-02  0.12713777755E+00  0.51100000000E-03 0.  1.
</event>
<event>
 8    1  0.2257781E+004  0.1043930E+01  0.7957747E-01            NaN
         13   -1    0    0    0    0  0.00000000000E+00  0.00000000000E+00  0.74505805969E-08  0.10566000000E+00  0.10566000000E+00 0.  1.
     999900   -1    0    0    0    0 -0.00000000000E+00 -0.00000000000E+00 -0.74505805969E-08  0.93827000000E+00  0.93827000000E+00 0. -1.
     999902    2    1    2    0    0 -0.12751962822E-01 -0.41902927405E-02  0.18920546070E-02  0.10303745222E+01  0.10302853512E+01 0.  0.
     999903    2    3    3    0    0  0.40928455792E-01 -0.11426033159E-01 -0.12518327125E+00  0.13959841014E+00  0.44846092198E-01 0.  0.
         14    1    1    2    0    0  0.12751962822E-01  0.41902927405E-02 -0.18920546070E-02  0.13555477848E-01  0.00000000000E+00 0. -1.
     999901    1    3    3    0    0 -0.53680418614E-01  0.72357404190E-02  0.12707532586E+00  0.89077611201E+00  0.88000000000E+00 0.  1.
        -11    1    4    4    0    0 -0.49155006476E-02 -0.11424333355E-01 -0.50110728127E-01  0.51633552402E-01  0.51100000000E-03 0. -1.
         11    1    4    4    0    0  0.45843956440E-01 -0.16998041530E-05 -0.75072543127E-01  0.87964857742E-01  0.51100000000E-03 0.  1.
</event>
<event>
 8    1  0.2257781E+004  0.1043930E+01  0.7957747E-01            NaN
         13   -1    0    0    0    0  0.00000000000E+00  0.00000000000E+00  0.74505805969E-08  0.10566000000E+00  0.10566000000E+00 0.  1.
     999900   -1    0    0    0    0 -0.00000000000E+00 -0.00000000000E+00 -0.74505805969E-08  0.93827000000E+00  0.93827000000E+00 0.  1.
     999902    2    1    2    0    0 -0.14789744867E-01 -0.13496938752E-02  0.10836632197E-02  0.10290393132E+01  0.10289315699E+01 0.  0.
     999903    2    3    3    0    0  0.11228827553E+00  0.17367090152E-01 -0.63876483516E-01  0.13734488017E+00  0.43279768023E-01 0.  0.
         14    1    1    2    0    0  0.14789744867E-01  0.13496938752E-02 -0.10836632197E-02  0.14890686780E-01  0.00000000000E+00 0. -1.
     999901    1    3    3    0    0 -0.12707802040E+00 -0.18716784027E-01  0.64960146736E-01  0.89169443305E+00  0.88000000000E+00 0. -1.
        -11    1    4    4    0    0  0.39202181350E-01  0.26875185178E-01 -0.30173424529E-01  0.56300828322E-01  0.51100000000E-03 0.  1.
         11    1    4    4    0    0  0.73086094180E-01 -0.95080950262E-02 -0.33703058988E-01  0.81044051846E-01  0.51100000000E-03 0. -1.
</event>
<event>
 8    1  0.2257781E+004  0.1043930E+01  0.7957747E-01            NaN
         13   -1    0    0    0    0  0.00000000000E+00  0.00000000000E+00  0.74505805969E-08  0.10566000000E+00  0.10566000000E+00 0. -1.
     999900   -1    0    0    0    0 -0.00000000000E+00 -0.00000000000E+00 -0.74505805969E-08  0.93827000000E+00  0.93827000000E+00 0. -1.
     999902    2    1    2    0    0  0.43138731305E-02 -0.10220861095E-02 -0.15782022858E-01  0.10275371233E+01  0.10274063526E+01 0.  0.
     999903    2    3    3    0    0  0.10935177297E+00 -0.29429829624E-01  0.63181274541E-01  0.13732638272E+00  0.45196646046E-01 0.  0.
         14    1    1    2    0    0 -0.43138731305E-02  0.10220861095E-02  0.15782022858E-01  0.16392876712E-01  0.00000000000E+00 0.  1.
     999901    1    3    3    0    0 -0.10503789984E+00  0.28407743515E-01 -0.78963297400E-01  0.89021074057E+00  0.88000000000E+00 0. -1.
        -11    1    4    4    0    0  0.15941828114E-01  0.96027443846E-02  0.19819813646E-01  0.27192659254E-01  0.51100000000E-03 0.  1.
         11    1    4    4    0    0  0.93409944855E-01 -0.39032574009E-01  0.43361460896E-01  0.11013372346E+00  0.51100000000E-03 0. -1.
</event>
<event>
 8    1  0.2257781E+004  0.1043930E+01  0.7957747E-01            NaN
         13   -1    0    0    0    0  0.00000000000E+00  0.00000000000E+00  0.74505805969E-08  0.10566000000E+00  0.10566000000E+00 0. -1.
     999900   -1    0    0    0    0 -0.00000000000E+00 -0.00000000000E+00 -0.74505805969E-08  0.93827000000E+00  0.93827000000E+00 0.  1.
     999902    2    1    2    0    0 -0.23194760724E-02  0.47025348282E-02  0.12413165484E-01  0.10304548198E+01  0.10303667091E+01 0.  0.
     999903    2    3    3    0    0  0.35234366988E-02  0.89170646074E-01  0.10085532988E+00  0.14197802335E+00  0.44968242371E-01 0.  0.
         14    1    1    2    0    0  0.23194760724E-02 -0.47025348282E-02 -0.12413165484E-01  0.13475180162E-01  0.00000000000E+00 0.  1.
     999901    1    3    3    0    0 -0.58429127712E-02 -0.84468111245E-01 -0.88442164401E-01  0.88847679648E+00  0.88000000000E+00 0.  1.
        -11    1    4    4    0    0  0.10917230802E-01  0.84661838199E-01  0.10224119199E+00  0.13319284979E+00  0.51100000000E-03 0.  1.
         11    1    4    4    0    0 -0.73937941036E-02  0.45088078751E-02 -0.13858621060E-02  0.87851735599E-02  0.51100000000E-03 0. -1.
</event>
<event>
 8    1  0.2257781E+004  0.1043930E+01  0.7957747E-01            NaN
         13   -1    0    0    0    0  0.00000000000E+00  0.00000000000E+00  0.74505805969E-08  0.10566000000E+00  0.10566000000E+00 0.  1.
     999900   -1    0    0    0    0 -0.00000000000E+00 -0.00000000000E+00 -0.74505805969E-08  0.93827000000E+00  0.93827000000E+00 0. -1.
     999902    2    1    2    0    0  0.64706903202E-02 -0.12048761263E-01  0.12716282561E-01  0.10252552490E+01  0.10250851571E+01 0.  0.
     999903    2    3    3    0    0  0.16187209438E-01 -0.12526175591E+00 -0.29016912434E-01  0.13696855407E+00  0.44338136565E-01 0.  0.
         14    1    1    2    0    0 -0.64706903202E-02  0.12048761263E-01 -0.12716282561E-01  0.18674750959E-01  0.00000000000E+00 0. -1.
     999901    1    3    3    0    0 -0.97165191175E-02  0.11321299464E+00  0.41733194995E-01  0.88828669497E+00  0.88000000000E+00 0.  1.
        -11    1    4    4    0    0 -0.13992825384E-01 -0.28965380073E-01 -0.80195714693E-03  0.32182241396E-01  0.51100000000E-03 0.  1.
         11    1    4    4    0    0  0.30180034822E-01 -0.96296375834E-01 -0.28214955287E-01  0.10478631267E+00  0.51100000000E-03 0. -1.
</event>
<event>
 8    1  0.2257781E+004  0.1043930E+01  0.7957747E-01            NaN
         13   -1    0    0    0    0  0.00000000000E+00  0.00000000000E+00  0.74505805969E-08  0.10566000000E+00  0.10566000000E+00 0. -1.
     999900   -1    0    0    0    0 -0.00000000000E+00 -0.00000000000E+00 -0.74505805969E-08  0.93827000000E+00  0.93827000000E+00 0. -1.
     999902    2    1    2    0    0  0.11823013997E-01 -0.82129291863E-02  0.25876459181E-02  0.10293035932E+01  0.10291996673E+01 0.  0.
     999903    2    3    3    0    0 -0.54914847535E-01  0.60056078867E-01 -0.10204938946E+00  0.13797676825E+00  0.44734076483E-01 0.  0.
         14    1    1    2    0    0 -0.11823013997E-01  0.82129291863E-02 -0.25876459181E-02  0.14626406844E-01  0.00000000000E+00 0.  1.
     999901    1    3    3    0    0  0.66737861532E-01 -0.68269008054E-01  0.10463703538E+00  0.89132682491E+00  0.88000000000E+00 0. -1.
        -11    1    4    4    0    0 -0.13474001731E-01  0.29414528483E-01 -0.12567834436E-01  0.34712746822E-01  0.51100000000E-03 0.  1.
         11    1    4    4    0    0 -0.41440845804E-01  0.30641550385E-01 -0.89481555025E-01  0.10326402143E+00  0.51100000000E-03 0. -1.
</event>
<event>
 8    1  0.2257781E+004  0.1043930E+01  0.7957747E-01            NaN
         13   -1    0    0    0    0  0.00000000000E+00  0.00000000000E+00  0.74505805969E-08  0.10566000000E+00  0.10566000000E+00 0.  1.
     999900   -1    0    0    0    0 -0.00000000000E+00 -0.00000000000E+00 -0.74505805969E-08  0.93827000000E+00  0.93827000000E+00 0. -1.
     999902    2    1    2    0    0 -0.92853248412E-02 -0.77988970053E-02 -0.80883751213E-02  0.10293539284E+01  0.10292507216E+01 0.  0.
     999903    2    3    3    0    0 -0.80281088047E-01  0.74022126896E-01 -0.75109032167E-01  0.14018192768E+00  0.45664841700E-01 0.  0.
         14    1    1    2    0    0  0.92853248412E-02  0.77988970053E-02  0.80883751213E-02  0.14576071625E-01  0.00000000000E+00 0.  1.
     999901    1    3    3    0    0  0.70995763206E-01 -0.81821023901E-01  0.67020657045E-01  0.88917200069E+00  0.88000000000E+00 0.  1.
        -11    1    4    4    0    0 -0.70734311142E-01  0.78895492125E-01 -0.60379871640E-01  0.12195831858E+00  0.51100000000E-03 0.  1.
         11    1    4    4    0    0 -0.95467769048E-02 -0.48733652290E-02 -0.14729160527E-01  0.18223609103E-01  0.51100000000E-03 0. -1.
</event>
<event>
 8    1  0.2257781E+004  0.1043930E+01  0.7957747E-01            NaN
         13   -1    0    0    0    0  0.00000000000E+00  0.00000000000E+00  0.74505805969E-08  0.10566000000E+00  0.10566000000E+00 0.  1.
     999900   -1    0    0    0    0 -0.00000000000E+00 -0.00000000000E+00 -0.74505805969E-08  0.93827000000E+00  0.93827000000E+00 0.  1.
     999902    2    1    2    0    0  0.20517023242E-02 -0.33749846342E-02  0.12521750898E-01  0.10308001009E+01  0.10307164760E+01 0.  0.
     999903    2    3    3    0    0 -0.84173468937E-01  0.41718503316E-01  0.96053591450E-01  0.14150500301E+00  0.44404583724E-01 0.  0.
         14    1    1    2    0    0 -0.20517023242E-02  0.33749846342E-02 -0.12521750898E-01  0.13129899058E-01  0.00000000000E+00 0. -1.
     999901    1    3    3    0    0  0.86225171261E-01 -0.45093487950E-01 -0.83531840551E-01  0.88929509793E+00  0.88000000000E+00 0. -1.
        -11    1    4    4    0    0 -0.55956336009E-01  0.21627847048E-01  0.87034328825E-01  0.10570766681E+00  0.51100000000E-03 0. -1.
         11    1    4    4    0    0 -0.28217132928E-01  0.20090656267E-01  0.90192626242E-02  0.35797336203E-01  0.51100000000E-03 0.  1.
</event>
<event>
 8    1  0.2257781E+004  0.1043930E+01  0.7957747E-01            NaN
         13   -1    0    0    0    0  0.00000000000E+00  0.00000000000E+00  0.74505805969E-08  0.10566000000E+00  0.10566000000E+00 0.  1.
     999900   -1    0    0    0    0 -0.00000000000E+00 -0.00000000000E+00 -0.74505805969E-08  0.93827000000E+00  0.93827000000E+00 0.  1.
     999902    2    1    2    0    0  0.37683729770E-02 -0.98688160407E-02 -0.93982838403E-02  0.10297906258E+01  0.10296935520E+01 0.  0.
     999903    2    3    3    0    0  0.67840109366E-01  0.82865074845E-02 -0.11491638087E+00  0.14098869508E+00  0.44733554551E-01 0.  0.
         14    1    1    2    0    0 -0.37683729770E-02  0.98688160407E-02  0.93982838403E-02  0.14139374246E-01  0.00000000000E+00 0.  1.
     999901    1    3    3    0    0 -0.64071736389E-01 -0.18155323525E-01  0.10551809703E+00  0.88880193068E+00  0.88000000000E+00 0. -1.
        -11    1    4    4    0    0 -0.46986804261E-02 -0.26103233170E-02 -0.21750405819E-01  0.22410547960E-01  0.51100000000E-03 0.  1.
         11    1    4    4    0    0  0.72538789792E-01  0.10896830801E-01 -0.93165975047E-01  0.11857814712E+00  0.51100000000E-03 0. -1.
</event>
<event>
 8    1  0.2257781E+004  0.1043930E+01  0.7957747E-01            NaN
         13   -1    0    0    0    0  0.00000000000E+00  0.00000000000E+00  0.74505805969E-08  0.10566000000E+00  0.10566000000E+00 0. -1.
     999900   -1    0    0    0    0 -0.00000000000E+00 -0.00000000000E+00 -0.74505805969E-08  0.93827000000E+00  0.93827000000E+00 0.  1.
     999902    2    1    2    0    0  0.10030131157E-01  0.28367931208E-02  0.66858033440E-02  0.10315465073E+01  0.10314721740E+01 0.  0.
     999903    2    3    3    0    0 -0.17657827363E-02 -0.54434054884E-01  0.12323740280E+00  0.14193795910E+00  0.44640144089E-01 0.  0.
         14    1    1    2    0    0 -0.10030131157E-01 -0.28367931208E-02 -0.66858033440E-02  0.12383492746E-01  0.00000000000E+00 0.  1.
     999901    1    3    3    0    0  0.11795913893E-01  0.57270848005E-01 -0.11655159946E+00  0.88960854816E+00  0.88000000000E+00 0.  1.
        -11    1    4    4    0    0 -0.44720006328E-02 -0.43851711778E-01  0.45195503719E-01  0.63133715976E-01  0.51100000000E-03 0. -1.
         11    1    4    4    0    0  0.27062178966E-02 -0.10582343106E-01  0.78041899081E-01  0.78804243123E-01  0.51100000000E-03 0.  1.
</event>
<event>
 8    1  0.2257781E+004  0.1043930E+01  0.7957747E-01            NaN
         13   -1    0    0    0    0  0.00000000000E+00  0.00000000000E+00  0.74505805969E-08  0.10566000000E+00  0.10566000000E+00 0.  1.
     999900   -1    0    0    0    0 -0.00000000000E+00 -0.00000000000E+00 -0.74505805969E-08  0.93827000000E+00  0.93827000000E+00 0.  1.
     999902    2    1    2    0    0  0.59149600848E-02 -0.11084360942E-01 -0.63897700730E-02  0.10298346472E+01  0.10297381810E+01 0.  0.
     999903    2    3    3    0    0 -0.20196090509E-01 -0.10914927331E+00 -0.75371438458E-01  0.14132072797E+00  0.44376215306E-01 0.  0.
         14    1    1    2    0    0 -0.59149600848E-02  0.11084360942E-01  0.63897700730E-02  0.14095352847E-01  0.00000000000E+00 0.  1.
     999901    1    3    3    0    0  0.26111050593E-01  0.98064912364E-01  0.68981668385E-01  0.88851391918E+00  0.88000000000E+00 0. -1.
        -11    1    4    4    0    0 -0.57318457005E-02 -0.10085694477E+00 -0.55106589620E-01  0.11507377939E+00  0.51100000000E-03 0. -1.
         11    1    4    4    0    0 -0.14464244808E-01 -0.82923285380E-02 -0.20264848837E-01  0.26246948582E-01  0.51100000000E-03 0.  1.
</event>
<event>
 8    1  0.2257781E+004  0.1043930E+01  0.7957747E-01            NaN
         13   -1    0    0    0    0  0.00000000000E+00  0.00000000000E+00  0.74505805969E-08  0.10566000000E+00  0.10566000000E+00 0. -1.
     999900   -1    0    0    0    0 -0.00000000000E+00 -0.00000000000E+00 -0.74505805969E-08  0.93827000000E+00  0.93827000000E+00 0.  1.
     999902    2    1    2    0    0  0.21823546153E-02 -0.86909317359E-03 -0.13140517950E-01  0.10305811721E+01  0.10304947167E+01 0.  0.
     999903    2    3    3    0    0 -0.43274260360E-01  0.10365148735E+00 -0.73273972988E-01  0.14119549196E+00  0.44167854754E-01 0.  0.
         14    1    1    2    0    0 -0.21823546153E-02  0.86909317359E-03  0.13140517950E-01  0.13348827911E-01  0.00000000000E+00 0. -1.
     999901    1    3    3    0    0  0.45456614975E-01 -0.10452058052E+00  0.60133455038E-01  0.88938568013E+00  0.88000000000E+00 0.  1.
        -11    1    4    4    0    0 -0.17937641537E-01  0.46934620897E-01 -0.76411654066E-02  0.50825841385E-01  0.51100000000E-03 0. -1.
         11    1    4    4    0    0 -0.25336618823E-01  0.56716866453E-01 -0.65632807581E-01  0.90369650578E-01  0.51100000000E-03 0.  1.
</event>
<event>
 8    1  0.2257781E+004  0.1043930E+01  0.7957747E-01            NaN
         13   -1    0    0    0    0  0.00000000000E+00  0.00000000000E+00  0.74505805969E-08  0.10566000000E+00  0.10566000000E+00 0.  1.
     999900   -1    0    0    0    0 -0.00000000000E+00 -0.00000000000E+00 -0.74505805969E-08  0.93827000000E+00  0.93827000000E+00 0. -1.
     999902    2    1    2    0    0 -0.62678703758E-02 -0.89976391573E-02 -0.73345467558E-02  0.10307376050E+01  0.10306531769E+01 0.  0.
     999903    2    3    3    0    0  0.11956381814E+00  0.65713508678E-02  0.55787942523E-01  0.13941249264E+00  0.44551759936E-01 0.  0.
         14    1    1    2    0    0  0.62678703758E-02  0.89976391573E-02  0.73345467558E-02  0.13192394990E-01  0.00000000000E+00 0.  1.
     999901    1    3    3    0    0 -0.12583168852E+00 -0.15568990025E-01 -0.63122489278E-01  0.89132511237E+00  0.88000000000E+00 0. -1.
        -11    1    4    4    0    0  0.64138411816E-01  0.39400014420E-02  0.53927747910E-01  0.83891135392E-01  0.51100000000E-03 0. -1.
         11    1    4    4    0    0  0.55425406324E-01  0.26313494258E-02  0.18601946126E-02  0.55521357251E-01  0.51100000000E-03 0.  1.
</event>
<event>
 8    1  0.2257781E+004  0.1043930E+01  0.7957747E-01            NaN
         13   -1    0    0    0    0  0.00000000000E+00  0.00000000000E+00  0.74505805969E-08  0.10566000000E+00  0.10566000000E+00 0.  1.
     999900   -1    0    0    0    0 -0.00000000000E+00 -0.00000000000E+00 -0.74505805969E-08  0.93827000000E+00  0.93827000000E+00 0. -1.
     999902    2    1    2    0    0 -0.49950119231E-03 -0.62956588409E-02  0.11952539199E-01  0.10304115676E+01  0.10303228866E+01 0.  0.
     999903    2    3    3    0    0  0.94961255181E-01 -0.95544693079E-01 -0.34737844815E-02  0.14062725800E+00  0.40218529967E-01 0.  0.
         14    1    1    2    0    0  0.49950119231E-03  0.62956588409E-02 -0.11952539199E-01  0.13518432416E-01  0.00000000000E+00 0. -1.
     999901    1    3    3    0    0 -0.95460756373E-01  0.89249034238E-01  0.15426323681E-01  0.88978430958E+00  0.88000000000E+00 0. -1.
        -11    1    4    4    0    0  0.53831220775E-01 -0.27212639634E-01  0.44079725026E-02  0.60481562716E-01  0.51100000000E-03 0. -1.
         11    1    4    4    0    0  0.41130034406E-01 -0.68332053446E-01 -0.78817569842E-02  0.80145695284E-01  0.51100000000E-03 0.  1.
</event>
<event>
 8    1  0.2257781E+004  0.1043930E+01  0.7957747E-01            NaN
         13   -1    0    0    0    0  0.00000000000E+00  0.00000000000E+00  0.74505805969E-08  0.10566000000E+00  0.10566000000E+00 0.  1.
     999900   -1    0    0    0    0 -0.00000000000E+00 -0.00000000000E+00 -0.74505805969E-08  0.93827000000E+00  0.93827000000E+00 0.  1.
     999902    2    1    2    0    0 -0.88737183024E-02 -0.78510028485E-02 -0.52814305916E-02  0.10309579288E+01  0.10308763148E+01 0.  0.
     999903    2    3    3    0    0 -0.12050637430E+00  0.85480338451E-02  0.58201614891E-01  0.14148568339E+00  0.45121120295E-01 0.  0.
         14    1    1    2    0    0  0.88737183024E-02  0.78510028485E-02  0.52814305916E-02  0.12972071204E-01  0.00000000000E+00 0.  1.
     999901    1    3    3    0    0  0.11163265600E+00 -0.16399036694E-01 -0.63483045483E-01  0.88947224541E+00  0.88000000000E+00 0.  1.
        -11    1    4    4    0    0 -0.31131292204E-01 -0.17176409648E-01  0.21139553709E-01  0.41368203426E-01  0.51100000000E-03 0. -1.
         11    1    4    4    0    0 -0.89375082101E-01  0.25724443493E-01  0.37062061182E-01  0.10011747996E+00  0.51100000000E-03 0.  1.
</event>
<event>
 8    1  0.2257781E+004  0.1043930E+01  0.7957747E-01            NaN
         13   -1    0    0    0    0  0.00000000000E+00  0.00000000000E+00  0.74505805969E-08  0.10566000000E+00  0.10566000000E+00 0.  1.
     999900   -1    0    0    0    0 -0.00000000000E+00 -0.00000000000E+00 -0.74505805969E-08  0.93827000000E+00  0.93827000000E+00 0. -1.
     999902    2    1    2    0    0 -0.12906213092E-01 -0.34448660541E-02  0.31231775046E-02  0.10302117029E+01  0.10301203624E+01 0.  0.
     999903    2    3    3    0    0  0.89768428369E-02 -0.11942001863E+00  0.57385904544E-01  0.14067612309E+00  0.46420954421E-01 0.  0.
         14    1    1    2    0    0  0.12906213092E-01  0.34448660541E-02 -0.31231775046E-02  0.13718297133E-01  0.00000000000E+00 0.  1.
     999901    1    3    3    0    0 -0.21883055929E-01  0.11597515257E+00 -0.54262727039E-01  0.88953557978E+00  0.88000000000E+00 0. -1.
        -11    1    4    4    0    0 -0.47445830785E-02 -0.66167893482E-01  0.81066370388E-02  0.66833224384E-01  0.51100000000E-03 0.  1.
         11    1    4    4    0    0  0.13721425915E-01 -0.53252125146E-01  0.49279267505E-01  0.73842898701E-01  0.51100000000E-03 0. -1.
</event>
<event>
 8    1  0.2257781E+004  0.1043930E+01  0.7957747E-01            NaN
         13   -1    0    0    0    0  0.00000000000E+00  0.00000000000E+00  0.74505805969E-08  0.10566000000E+00  0.10566000000E+00 0. -1.
     999900   -1    0    0    0    0 -0.00000000000E+00 -0.00000000000E+00 -0.74505805969E-08  0.93827000000E+00  0.93827000000E+00 0. -1.
     999902    2    1    2    0    0  0.71722922345E-03 -0.12557231327E-01 -0.35127231664E-02  0.10308709916E+01  0.10307882729E+01 0.  0.
     999903    2    3    3    0    0 -0.38424649021E-01 -0.72857466787E-01 -0.10598413765E+00  0.14201296254E+00  0.46372189706E-01 0.  0.
         14    1    1    2    0    0 -0.71722922345E-03  0.12557231327E-01  0.35127231664E-02  0.13059008400E-01  0.00000000000E+00 0. -1.
     999901    1    3    3    0    0  0.39141878244E-01  0.60300235460E-01  0.10247141448E+00  0.88885802906E+00  0.88000000000E+00 0.  1.
        -11    1    4    4    0    0 -0.34428953156E-02 -0.49091748193E-01 -0.39001673855E-01  0.62795262188E-01  0.51100000000E-03 0. -1.
         11    1    4    4    0    0 -0.34981753705E-01 -0.23765718594E-01 -0.66982463796E-01  0.79217700356E-01  0.51100000000E-03 0.  1.
</event>
<event>
 8    1  0.2257781E+004  0.1043930E+01  0.7957747E-01            NaN
         13   -1    0    0    0    0  0.00000000000E+00  0.00000000000E+00  0.74505805969E-08  0.10566000000E+00  0.10566000000E+00 0. -1.
     999900   -1    0    0    0    0 -0.00000000000E+00 -0.00000000000E+00 -0.74505805969E-08  0.93827000000E+00  0.93827000000E+00 0.  1.
     999902    2    1    2    0    0  0.11412529299E-01 -0.69411654714E-02 -0.38024013788E-02  0.10300417366E+01  0.10299481032E+01 0.  0.
     999903    2    3    3    0    0  0.12160419490E+00  0.54474922170E-01  0.73251741948E-02  0.14097595621E+00  0.45447383741E-01 0.  0.
         14    1    1    2    0    0 -0.11412529299E-01  0.69411654714E-02  0.38024013788E-02  0.13888263367E-01  0.00000000000E+00 0. -1.
     999901    1    3    3    0    0 -0.11019166560E+00 -0.61416087641E-01 -0.11127575574E-01  0.88906578043E+00  0.88000000000E+00 0.  1.
        -11    1    4    4    0    0  0.59433385252E-01  0.11860395727E-01 -0.14861604412E-01  0.62402922015E-01  0.51100000000E-03 0. -1.
         11    1    4    4    0    0  0.62170809646E-01  0.42614526443E-01  0.22186778607E-01  0.78573034191E-01  0.51100000000E-03 0.  1.
</event>
<event>
 8    1  0.2257781E+004  0.1043930E+01  0.7957747E-01            NaN
         13   -1    0    0    0    0  0.00000000000E+00  0.00000000000E+00  0.74505805969E-08  0.10566000000E+00  0.10566000000E+00 0. -1.
     999900   -1    0    0    0    0 -0.00000000000E+00 -0.00000000000E+00 -0.74505805969E-08  0.93827000000E+00  0.93827000000E+00 0.  1.
     999902    2    1    2    0    0  0.59363746878E-02 -0.25528986031E-02  0.13561333710E-01  0.10289077629E+01  0.10287980934E+01 0.  0.
     999903    2    3    3    0    0  0.16536988720E-01  0.95838316947E-02  0.13178616622E+00  0.14085552104E+00  0.45906016769E-01 0.  0.
         14    1    1    2    0    0 -0.59363746878E-02  0.25528986031E-02 -0.13561333710E-01  0.15022237107E-01  0.00000000000E+00 0.  1.
     999901    1    3    3    0    0 -0.10600614032E-01 -0.12136730298E-01 -0.11822483251E+00  0.88805224185E+00  0.88000000000E+00 0.  1.
        -11    1    4    4    0    0  0.32325145135E-01  0.88106633824E-02  0.80791188811E-01  0.87464393371E-01  0.51100000000E-03 0.  1.
         11    1    4    4    0    0 -0.15788156415E-01  0.77316831226E-03  0.50994977405E-01  0.53391127668E-01  0.51100000000E-03 0. -1.
</event>
<event>
 8    1  0.2257781E+004  0.1043930E+01  0.7957747E-01            NaN
         13   -1    0    0    0    0  0.00000000000E+00  0.00000000000E+00  0.74505805969E-08  0.10566000000E+00  0.10566000000E+00 0. -1.
     999900   -1    0    0    0    0 -0.00000000000E+00 -0.00000000000E+00 -0.74505805969E-08  0.93827000000E+00  0.93827000000E+00 0. -1.
     999902    2    1    2    0    0 -0.16372330960E-02 -0.88010586015E-02  0.10185602792E-01  0.10303695550E+01  0.10302803183E+01 0.  0.
     999903    2    3    3    0    0  0.56314418654E-01 -0.89604625074E-01  0.82841264988E-01  0.14179403454E+00  0.45194805699E-01 0.  0.
         14    1    1    2    0    0  0.16372330960E-02  0.88010586015E-02 -0.10185602792E-01  0.13560445013E-01  0.00000000000E+00 0.  1.
     999901    1    3    3    0    0 -0.57951651750E-01  0.80803566473E-01 -0.72655662195E-01  0.88857552045E+00  0.88000000000E+00 0. -1.
        -11    1    4    4    0    0  0.34894730433E-01 -0.19799893700E-01  0.42185042847E-01  0.58219558256E-01  0.51100000000E-03 0.  1.
         11    1    4    4    0    0  0.21419688222E-01 -0.69804731374E-01  0.40656222140E-01  0.83574476280E-01  0.51100000000E-03 0. -1.
</event>
<event>
 8    1  0.2257781E+004  0.1043930E+01  0.7957747E-01            NaN
         13   -1    0    0    0    0  0.00000000000E+00  0.00000000000E+00  0.74505805969E-08  0.10566000000E+00  0.10566000000E+00 0. -1.
     999900   -1    0    0    0    0 -0.00000000000E+00 -0.00000000000E+00 -0.74505805969E-08  0.93827000000E+00  0.93827000000E+00 0. -1.
     999902    2    1    2    0    0 -0.28456192878E-02  0.87085184896E-02  0.10359213915E-01  0.10301007138E+01  0.10300078793E+01 0.  0.
     999903    2    3    3    0    0  0.41237511441E-01 -0.69242411743E-01  0.10560311626E+00  0.14044287460E+00  0.45575639635E-01 0.  0.
         14    1    1    2    0    0  0.28456192878E-02 -0.87085184896E-02 -0.10359213915E-01  0.13829286184E-01  0.00000000000E+00 0. -1.
     999901    1    3    3    0    0 -0.44083130729E-01  0.77950930233E-01 -0.95243902349E-01  0.88965783921E+00  0.88000000000E+00 0. -1.
        -11    1    4    4    0    0  0.22600348790E-01 -0.31156938237E-02  0.17724461185E-01  0.28894652770E-01  0.51100000000E-03 0. -1.
         11    1    4    4    0    0  0.18637162651E-01 -0.66126717920E-01  0.87878655079E-01  0.11154822183E+00  0.51100000000E-03 0.  1.
</event>
<event>
 8    1  0.2257781E+004  0.1043930E+01  0.7957747E-01            NaN
         13   -1    0    0    0    0  0.00000000000E+00  0.00000000000E+00  0.74505805969E-08  0.10566000000E+00  0.10566000000E+00 0. -1.
     999900   -1    0    0    0    0 -0.00000000000E+00 -0.00000000000E+00 -0.74505805969E-08  0.93827000000E+00  0.93827000000E+00 0.  1.
     999902    2    1    2    0    0  0.74887444397E-02 -0.12513844477E-01 -0.37839312024E-04  0.10293464809E+01  0.10292431679E+01 0.  0.
     999903    2    3    3    0    0  0.32052800873E-01 -0.82268652906E-01 -0.99475057170E-01  0.14066381176E+00  0.45776715109E-01 0.  0.
         14    1    1    2    0    0 -0.74887444397E-02  0.12513844477E-01  0.37839312024E-04  0.14583519078E-01  0.00000000000E+00 0. -1.
     999901    1    3    3    0    0 -0.24564056433E-01  0.69754808429E-01  0.99437217858E-01  0.88868266916E+00  0.88000000000E+00 0. -1.
        -11    1    4    4    0    0  0.34525667224E-01 -0.27863923336E-01 -0.52524865603E-01  0.68757127257E-01  0.51100000000E-03 0. -1.
         11    1    4    4    0    0 -0.24728663517E-02 -0.54404729571E-01 -0.46950191567E-01  0.71906684507E-01  0.51100000000E-03 0.  1.
</event>
<event>
 7    1  0.2257781E+004  0.1043930E+01  0.7957747E-01            NaN
         13   -1    0    0    0    0  0.00000000000E+00  0.00000000000E+00  0.74505805969E-08  0.10566000000E+00  0.10566000000E+00 0. -1.
     999900   -1    0    0    0    0 -0.00000000000E+00 -0.00000000000E+00 -0.74505805969E-08  0.93827000000E+00  0.93827000000E+00 0. -1.
     999903    2    1    2    0    0  0.39763712205E-02  0.83593091104E-01 -0.65918466718E-01  0.11564437913E+00  0.44997352830E-01 0.  0.
         14    1    1    2    0    0 -0.40584557122E-01  0.66137376742E-03 -0.37634715430E-02  0.40764045556E-01  0.00000000000E+00 0. -1.
     999901    1    1    2    0    0  0.36608185901E-01 -0.84254464871E-01  0.69681938261E-01  0.88752157531E+00  0.88000000000E+00 0.  1.
        -11    1    3    3    0    0  0.13899211791E-01  0.72739820058E-01 -0.68292880926E-01  0.10073950673E+00  0.51100000000E-03 0.  1.
         11    1    3    3    0    0 -0.99228405707E-02  0.10853271046E-01  0.23744142080E-02  0.14904872399E-01  0.51100000000E-03 0. -1.
</event>
<event>
 7    1  0.2257781E+004  0.1043930E+01  0.7957747E-01            NaN
         13   -1    0    0    0    0  0.00000000000E+00  0.00000000000E+00  0.74505805969E-08  0.10566000000E+00  0.10566000000E+00 0. -1.
     999900   -1    0    0    0    0 -0.00000000000E+00 -0.00000000000E+00 -0.74505805969E-08  0.93827000000E+00  0.93827000000E+00 0.  1.
     999902    2    1    2    0    0 -0.54452711987E-02 -0.11633180841E-01  0.86756974485E-02  0.10284300129E+01  0.10283132022E+01 0.  0.
         14    1    1    2    0    0  0.54452711987E-02  0.11633180841E-01 -0.86756974485E-02  0.15499987133E-01  0.00000000000E+00 0.  1.
     999901    1    3    3    0    0 -0.61852972217E-01  0.32398872235E-01  0.12236338774E+00  0.89120607928E+00  0.88000000000E+00 0.  1.
        -11    1    3    3    0    0  0.34959369583E-01 -0.31022661364E-01 -0.95205916439E-01  0.10606125912E+00  0.51100000000E-03 0. -1.
         11    1    3    3    0    0  0.21448331436E-01 -0.13009391712E-01 -0.18481773852E-01  0.31162674465E-01  0.51100000000E-03 0.  1.
</event>
<event>
 7    1  0.2257781E+004  0.1043930E+01  0.7957747E-01            NaN
         13   -1    0    0    0    0  0.00000000000E+00  0.00000000000E+00  0.74505805969E-08  0.10566000000E+00  0.10566000000E+00 0.  1.
     999900   -1    0    0    0    0 -0.00000000000E+00 -0.00000000000E+00 -0.74505805969E-08  0.93827000000E+00  0.93827000000E+00 0. -1.
     999903    2    1    2    0    0 -0.60637258595E-01  0.23340253757E-01 -0.25030552920E-01  0.83183368556E-01  0.45511533148E-01 0.  0.
         14    1    1    2    0    0 -0.35562958896E-02 -0.50013738651E-02  0.76473900825E-01  0.76719739887E-01  0.00000000000E+00 0.  1.
     999901    1    1    2    0    0  0.64193554484E-01 -0.18338879892E-01 -0.51443347905E-01  0.88402689156E+00  0.88000000000E+00 0. -1.
        -11    1    3    3    0    0 -0.14382681496E-01 -0.13833388805E-01 -0.54406038234E-02  0.20690226287E-01  0.51100000000E-03 0.  1.
         11    1    3    3    0    0 -0.46254577099E-01  0.37173642563E-01 -0.19589949096E-01  0.62493142268E-01  0.51100000000E-03 0. -1.
</event>
<event>
 8    1  0.2257781E+004  0.1043930E+01  0.7957747E-01            NaN
         13   -1    0    0    0    0  0.00000000000E+00  0.00000000000E+00  0.74505805969E-08  0.10566000000E+00  0.10566000000E+00 0.  1.
     999900   -1    0    0    0    0 -0.00000000000E+00 -0.00000000000E+00 -0.74505805969E-08  0.93827000000E+00  0.93827000000E+00 0. -1.
     999902    2    1    2    0    0 -0.98959051106E-02  0.28172044460E-02  0.93695104022E-02  0.10300140629E+01  0.10299200535E+01 0.  0.
     999903    2    3    3    0    0  0.21607855391E-01  0.33265623002E-01  0.12715291516E+00  0.14108632485E+00  0.46518664426E-01 0.  0.
         14    1    1    2    0    0  0.98959051106E-02 -0.28172044460E-02 -0.93695104022E-02  0.13915937052E-01  0.00000000000E+00 0. -1.
     999901    1    3    3    0    0 -0.31503760501E-01 -0.30448418556E-01 -0.11778340475E+00  0.88892773809E+00  0.88000000000E+00 0.  1.
        -11    1    4    4    0    0 -0.76881677680E-02 -0.70902453133E-02  0.31794472448E-01  0.33474305093E-01  0.51100000000E-03 0.  1.
         11    1    4    4    0    0  0.29296023159E-01  0.40355868315E-01  0.95358442708E-01  0.10761201976E+00  0.51100000000E-03 0. -1.
</event>
<event>
 8    1  0.2257781E+004  0.1043930E+01  0.7957747E-01            NaN
         13   -1    0    0    0    0  0.00000000000E+00  0.00000000000E+00  0.74505805969E-08  0.10566000000E+00  0.10566000000E+00 0. -1.
     999900   -1    0    0    0    0 -0.00000000000E+00 -0.00000000000E+00 -0.74505805969E-08  0.93827000000E+00  0.93827000000E+00 0.  1.
     999902    2    1    2    0    0 -0.10961142469E-01  0.62182185672E-02  0.54049515757E-02  0.10302177286E+01  0.10301264689E+01 0.  0.
     999903    2    3    3    0    0  0.49912765190E-01 -0.12092465006E+00  0.16778830447E-01  0.13892635825E+00  0.43645718524E-01 0.  0.
         14    1    1    2    0    0  0.10961142469E-01 -0.62182185672E-02 -0.54049515757E-02  0.13712271435E-01  0.00000000000E+00 0.  1.
     999901    1    3    3    0    0 -0.60873907659E-01  0.12714286862E+00 -0.11373878872E-01  0.89129137031E+00  0.88000000000E+00 0.  1.
        -11    1    4    4    0    0  0.30155866973E-01 -0.63184949897E-01  0.30508815120E-01  0.76372528617E-01  0.51100000000E-03 0. -1.
         11    1    4    4    0    0  0.19756898217E-01 -0.57739700160E-01 -0.13729984673E-01  0.62553829634E-01  0.51100000000E-03 0.  1.
</event>
<event>
 8    1  0.2257781E+004  0.1043930E+01  0.7957747E-01            NaN
         13   -1    0    0    0    0  0.00000000000E+00  0.00000000000E+00  0.74505805969E-08  0.10566000000E+00  0.10566000000E+00 0. -1.
     999900   -1    0    0    0    0 -0.00000000000E+00 -0.00000000000E+00 -0.74505805969E-08  0.93827000000E+00  0.93827000000E+00 0. -1.
     999902    2    1    2    0    0  0.47798145861E-02  0.82621992993E-02  0.88303839644E-02  0.10309266833E+01  0.10308446731E+01 0.  0.
     999903    2    3    3    0    0 -0.10419027203E+00  0.52794950087E-01 -0.62816547270E-01  0.14020173784E+00  0.45471850015E-01 0.  0.
         14    1    1    2    0    0 -0.47798145861E-02 -0.82621992993E-02 -0.88303839644E-02  0.13003316719E-01  0.00000000000E+00 0.  1.
     999901    1    3    3    0    0  0.10897008661E+00 -0.44532750788E-01  0.71646931235E-01  0.89072494544E+00  0.88000000000E+00 0. -1.
        -11    1    4    4    0    0 -0.42500754293E-01  0.17145498804E-01 -0.49963639658E-01  0.67800506293E-01  0.51100000000E-03 0. -1.
         11    1    4    4    0    0 -0.61689517734E-01  0.35649451283E-01 -0.12852907613E-01  0.72401231551E-01  0.51100000000E-03 0.  1.
</event>
<event>
 8    1  0.2257781E+004  0.1043930E+01  0.7957747E-01            NaN
         13   -1    0    0    0    0  0.00000000000E+00  0.00000000000E+00  0.74505805969E-08  0.10566000000E+00  0.10566000000E+00 0. -1.
     999900   -1    0    0    0    0 -0.00000000000E+00 -0.00000000000E+00 -0.74505805969E-08  0.93827000000E+00  0.93827000000E+00 0. -1.
     999902    2    1    2    0    0  0.58967863349E-02 -0.20503813887E-02 -0.13655372474E-01  0.10289151623E+01  0.10288056016E+01 0.  0.
     999903    2    3    3    0    0 -0.40315136863E-01 -0.73280960780E-02 -0.12665252024E+00  0.14047171927E+00  0.44860135746E-01 0.  0.
         14    1    1    2    0    0 -0.58967863349E-02  0.20503813887E-02  0.13655372474E-01  0.15014837672E-01  0.00000000000E+00 0. -1.
     999901    1    3    3    0    0  0.46211923197E-01  0.52777146893E-02  0.11299714776E+00  0.88844344306E+00  0.88000000000E+00 0.  1.
        -11    1    4    4    0    0  0.22900081623E-02 -0.12711813835E-01 -0.58537857302E-01  0.59948112622E-01  0.51100000000E-03 0. -1.
         11    1    4    4    0    0 -0.42605145025E-01  0.53837177574E-02 -0.68114662933E-01  0.80523606644E-01  0.51100000000E-03 0.  1.
</event>
<event>
 8    1  0.2257781E+004  0.1043930E+01  0.7957747E-01            NaN
         13   -1    0    0    0    0  0.00000000000E+00  0.00000000000E+00  0.74505805969E-08  0.10566000000E+00  0.10566000000E+00 0. -1.
     999900   -1    0    0    0    0 -0.00000000000E+00 -0.00000000000E+00 -0.74505805969E-08  0.93827000000E+00  0.93827000000E+00 0. -1.
     999902    2    1    2    0    0  0.35378886879E-02 -0.11787142265E-01  0.86259961780E-02  0.10289013211E+01  0.10287915568E+01 0.  0.
     999903    2    3    3    0    0 -0.40315945977E-02 -0.74456918852E-01 -0.10810447714E+00  0.13895143411E+00  0.45396437566E-01 0.  0.
         14    1    1    2    0    0 -0.35378886879E-02  0.11787142265E-01 -0.86259961780E-02  0.15028678891E-01  0.00000000000E+00 0.  1.
     999901    1    3    3    0    0  0.75694832855E-02  0.62669776587E-01  0.11673047331E+00  0.88994988700E+00  0.88000000000E+00 0.  1.
        -11    1    4    4    0    0  0.20293916234E-01 -0.41548731967E-01 -0.61108104252E-01  0.76632902140E-01  0.51100000000E-03 0.  1.
         11    1    4    4    0    0 -0.24325510831E-01 -0.32908186885E-01 -0.46996372884E-01  0.62318531967E-01  0.51100000000E-03 0. -1.
</event>
<event>
 8    1  0.2257781E+004  0.1043930E+01  0.7957747E-01            NaN
         13   -1    0    0    0    0  0.00000000000E+00  0.00000000000E+00  0.74505805969E-08  0.10566000000E+00  0.10566000000E+00 0. -1.
     999900   -1    0    0    0    0 -0.00000000000E+00 -0.00000000000E+00 -0.74505805969E-08  0.93827000000E+00  0.93827000000E+00 0.  1.
     999902    2    1    2    0    0  0.28772659536E-03 -0.13831280728E-01 -0.35671277718E-02  0.10296432399E+01  0.10295441176E+01 0.  0.
     999903    2    3    3    0    0  0.92470302046E-01 -0.67053080496E-02  0.93937080073E-01  0.13944355600E+00  0.44995692902E-01 0.  0.
         14    1    1    2    0    0 -0.28772659536E-03  0.13831280728E-01  0.35671277718E-02  0.14286760084E-01  0.00000000000E+00 0. -1.
     999901    1    3    3    0    0 -0.92182575450E-01 -0.71259726779E-02 -0.97504207845E-01  0.89019968392E+00  0.88000000000E+00 0.  1.
        -11    1    4    4    0    0  0.25870813766E-01  0.12251882536E-01  0.93304220853E-02  0.30111883499E-01  0.51100000000E-03 0. -1.
         11    1    4    4    0    0  0.66599488280E-01 -0.18957190586E-01  0.84606657988E-01  0.10933167250E+00  0.51100000000E-03 0.  1.
</event>
<event>
 7    1  0.2257781E+004  0.1043930E+01  0.7957747E-01            NaN
         13   -1    0    0    0    0  0.00000000000E+00  0.00000000000E+00  0.74505805969E-08  0.10566000000E+00  0.10566000000E+00 0. -1.
     999900   -1    0    0    0    0 -0.00000000000E+00 -0.00000000000E+00 -0.74505805969E-08  0.93827000000E+00  0.93827000000E+00 0. -1.
     999902    2    1    2    0    0  0.27598963699E-02 -0.14186203081E-01 -0.26154099835E-03  0.10294754578E+01  0.10293739770E+01 0.  0.
         14    1    1    2    0    0 -0.27598963699E-02  0.14186203081E-01  0.26154099835E-03  0.14454542176E-01  0.00000000000E+00 0.  1.
     999901    1    3    3    0    0  0.90285250077E-01  0.76851842749E-02  0.87211216794E-01  0.88894110310E+00  0.88000000000E+00 0.  1.
        -11    1    3    3    0    0 -0.21833297933E-01 -0.83718752171E-02  0.72371487877E-02  0.24483027526E-01  0.51100000000E-03 0.  1.
         11    1    3    3    0    0 -0.65692055774E-01 -0.13499512139E-01 -0.94709906580E-01  0.11605132720E+00  0.51100000000E-03 0. -1.
</event>
<event>
 8    1  0.2257781E+004  0.1043930E+01  0.7957747E-01            NaN
         13   -1    0    0    0    0  0.00000000000E+00  0.00000000000E+00  0.74505805969E-08  0.10566000000E+00  0.10566000000E+00 0.  1.
     999900   -1    0    0    0    0 -0.00000000000E+00 -0.00000000000E+00 -0.74505805969E-08  0.93827000000E+00  0.93827000000E+00 0.  1.
     999902    2    1    2    0    0  0.28680341597E-02 -0.96597843750E-02  0.82778154803E-03  0.10338194967E+01  0.10337700564E+01 0.  0.
     999903    2    3    3    0    0  0.68800812617E-01 -0.84279712429E-01  0.82527516834E-01  0.14444324807E+00  0.47079073201E-01 0.  0.
         14    1    1    2    0    0 -0.28680341597E-02  0.96597843750E-02 -0.82778154803E-03  0.10110503272E-01  0.00000000000E+00 0. -1.
     999901    1    3    3    0    0 -0.65932778458E-01  0.74619928054E-01 -0.81699735286E-01  0.88937624866E+00  0.88000000000E+00 0.  1.
        -11    1    4    4    0    0  0.71055863329E-01 -0.67336934418E-01  0.81382669436E-01  0.12730513916E+00  0.51100000000E-03 0.  1.
         11    1    4    4    0    0 -0.22550507121E-02 -0.16942778011E-01  0.11448473978E-02  0.17138108910E-01  0.51100000000E-03 0. -1.
</event>
<event>
 8    1  0.2257781E+004  0.1043930E+01  0.7957747E-01            NaN
         13   -1    0    0    0    0  0.00000000000E+00  0.00000000000E+00  0.74505805969E-08  0.10566000000E+00  0.10566000000E+00 0.  1.
     999900   -1    0    0    0    0 -0.00000000000E+00 -0.00000000000E+00 -0.74505805969E-08  0.93827000000E+00  0.93827000000E+00 0.  1.
     999902    2    1    2    0    0  0.84900978079E-02  0.51035494125E-02  0.16359924762E-02  0.10338898581E+01  0.10338411069E+01 0.  0.
     999903    2    3    3    0    0 -0.54316810700E-01  0.12454969377E+00  0.11398489302E-01  0.14354869009E+00  0.44870466061E-01 0.  0.
         14    1    1    2    0    0 -0.84900978079E-02 -0.51035494125E-02 -0.16359924762E-02  0.10040141870E-01  0.00000000000E+00 0. -1.
     999901    1    3    3    0    0  0.62806908508E-01 -0.11944614436E+00 -0.97624968255E-02  0.89034116804E+00  0.88000000000E+00 0.  1.
        -11    1    4    4    0    0 -0.64297637175E-02  0.32526001868E-01 -0.15165154950E-01  0.36462661788E-01  0.51100000000E-03 0.  1.
         11    1    4    4    0    0 -0.47887046983E-01  0.92023691907E-01  0.26563644252E-01  0.10708602830E+00  0.51100000000E-03 0. -1.
</event>
<event>
 8    1  0.2257781E+004  0.1043930E+01  0.7957747E-01            NaN
         13   -1    0    0    0    0  0.00000000000E+00  0.00000000000E+00  0.74505805969E-08  0.10566000000E+00  0.10566000000E+00 0. -1.
     999900   -1    0    0    0    0 -0.00000000000E+00 -0.00000000000E+00 -0.74505805969E-08  0.93827000000E+00  0.93827000000E+00 0.  1.
     999902    2    1    2    0    0 -0.62200428910E-02  0.44163873224E-02 -0.11696649072E-01  0.10299655806E+01  0.10298709104E+01 0.  0.
     999903    2    3    3    0    0 -0.69074689013E-01  0.98419237938E-01  0.56157627052E-01  0.14013894282E+00  0.45028714830E-01 0.  0.
         14    1    1    2    0    0  0.62200428910E-02 -0.44163873224E-02  0.11696649072E-01  0.13964419432E-01  0.00000000000E+00 0. -1.
     999901    1    3    3    0    0  0.62854646122E-01 -0.94002850616E-01 -0.67854276125E-01  0.88982663775E+00  0.88000000000E+00 0.  1.
        -11    1    4    4    0    0 -0.23491042491E-01  0.69476677357E-01  0.23415414626E-01  0.76989483288E-01  0.51100000000E-03 0. -1.
         11    1    4    4    0    0 -0.45583646522E-01  0.28942560581E-01  0.32742212427E-01  0.63149459529E-01  0.51100000000E-03 0.  1.
</event>
<event>
 8    1  0.2257781E+004  0.1043930E+01  0.7957747E-01            NaN
         13   -1    0    0    0    0  0.00000000000E+00  0.00000000000E+00  0.74505805969E-08  0.10566000000E+00  0.10566000000E+00 0. -1.
     999900   -1    0    0    0    0 -0.00000000000E+00 -0.00000000000E+00 -0.74505805969E-08  0.93827000000E+00  0.93827000000E+00 0.  1.
     999902    2    1    2    0    0  0.12150948632E-01  0.58983277435E-02  0.37702316532E-04  0.10304230668E+01  0.10303345376E+01 0.  0.
     999903    2    3    3    0    0  0.11851132868E+00 -0.70720248320E-02 -0.62799639384E-01  0.14169966101E+00  0.45166920016E-01 0.  0.
         14    1    1    2    0    0 -0.12150948632E-01 -0.58983277435E-02 -0.37702316532E-04  0.13506933193E-01  0.00000000000E+00 0. -1.
     999901    1    3    3    0    0 -0.10636038005E+00  0.12970352575E-01  0.62837341701E-01  0.88872340579E+00  0.88000000000E+00 0. -1.
        -11    1    4    4    0    0  0.57845595901E-01  0.14786413353E-01 -0.45107599330E-01  0.74831194186E-01  0.51100000000E-03 0. -1.
         11    1    4    4    0    0  0.60665732780E-01 -0.21858438185E-01 -0.17692040054E-01  0.66868466828E-01  0.51100000000E-03 0.  1.
</event>
<event>
 8    1  0.2257781E+004  0.1043930E+01  0.7957747E-01            NaN
         13   -1    0    0    0    0  0.00000000000E+00  0.00000000000E+00  0.74505805969E-08  0.10566000000E+00  0.10566000000E+00 0.  1.
     999900   -1    0    0    0    0 -0.00000000000E+00 -0.00000000000E+00 -0.74505805969E-08  0.93827000000E+00  0.93827000000E+00 0.  1.
     999902    2    1    2    0    0  0.10438369987E-02 -0.41739651867E-02 -0.11870596565E-01  0.10313037320E+01  0.10312264373E+01 0.  0.
     999903    2    3    3    0    0  0.17845168709E-01  0.89524708455E-01 -0.98881188164E-01  0.14190361436E+00  0.45011364404E-01 0.  0.
         14    1    1    2    0    0 -0.10438369987E-02  0.41739651867E-02  0.11870596565E-01  0.12626268010E-01  0.00000000000E+00 0.  1.
     999901    1    3    3    0    0 -0.16801331710E-01 -0.93698673641E-01  0.87010591599E-01  0.88940011763E+00  0.88000000000E+00 0. -1.
        -11    1    4    4    0    0  0.20339595280E-01  0.12489961762E-01 -0.31512753276E-01  0.39534959479E-01  0.51100000000E-03 0.  1.
         11    1    4    4    0    0 -0.24944265709E-02  0.77034746693E-01 -0.67368434889E-01  0.10236865488E+00  0.51100000000E-03 0. -1.
</event>
<event>
 8    1  0.2257781E+004  0.1043930E+01  0.7957747E-01            NaN
         13   -1    0    0    0    0  0.00000000000E+00  0.00000000000E+00  0.74505805969E-08  0.10566000000E+00  0.10566000000E+00 0. -1.
     999900   -1    0    0    0    0 -0.00000000000E+00 -0.00000000000E+00 -0.74505805969E-08  0.93827000000E+00  0.93827000000E+00 0. -1.
     999902    2    1    2    0    0 -0.38569074339E-02 -0.78513282650E-02 -0.96930359195E-02  0.10308734294E+01  0.10307907418E+01 0.  0.
     999903    2    3    3    0    0  0.22698923825E-01  0.76303988839E-02  0.12978398813E+00  0.13935857462E+00  0.44760078381E-01 0.  0.
         14    1    1    2    0    0  0.38569074339E-02  0.78513282650E-02  0.96930359195E-02  0.13056570599E-01  0.00000000000E+00 0. -1.
     999901    1    3    3    0    0 -0.26555831259E-01 -0.15481727149E-01 -0.13947702405E+00  0.89151485478E+00  0.88000000000E+00 0. -1.
        -11    1    4    4    0    0  0.11825894536E-01 -0.19416480254E-02  0.38568365264E-02  0.12599924112E-01  0.51100000000E-03 0.  1.
         11    1    4    4    0    0  0.10873029289E-01  0.95720469093E-02  0.12592715160E+00  0.12675865051E+00  0.51100000000E-03 0. -1.
</event>
<event>
 8    1  0.2257781E+004  0.1043930E+01  0.7957747E-01            NaN
         13   -1    0    0    0    0  0.00000000000E+00  0.00000000000E+00  0.74505805969E-08  0.10566000000E+00  0.10566000000E+00 0.  1.
     999900   -1    0    0    0    0 -0.00000000000E+00 -0.00000000000E+00 -0.74505805969E-08  0.93827000000E+00  0.93827000000E+00 0. -1.
     999902    2    1    2    0    0  0.48874708053E-02  0.86538218082E-03 -0.11395739256E-01  0.10315002321E+01  0.10314253389E+01 0.  0.
     999903    2    3    3    0    0  0.12490265901E+00 -0.32623049231E-02  0.48568123588E-01  0.14132252621E+00  0.44742339262E-01 0.  0.
         14    1    1    2    0    0 -0.48874708053E-02 -0.86538218082E-03  0.11395739256E-01  0.12429767913E-01  0.00000000000E+00 0.  1.
     999901    1    3    3    0    0 -0.12001518821E+00  0.41276871040E-02 -0.59963862844E-01  0.89017770588E+00  0.88000000000E+00 0.  1.
        -11    1    4    4    0    0  0.61785408447E-01  0.20353192739E-01  0.28351533057E-01  0.70963086878E-01  0.51100000000E-03 0. -1.
         11    1    4    4    0    0  0.63117250565E-01 -0.23615497662E-01  0.20216590531E-01  0.70359439327E-01  0.51100000000E-03 0.  1.
</event>
<event>
 8    1  0.2257781E+004  0.1043930E+01  0.7957747E-01            NaN
         13   -1    0    0    0    0  0.00000000000E+00  0.00000000000E+00  0.74505805969E-08  0.10566000000E+00  0.10566000000E+00 0. -1.
     999900   -1    0    0    0    0 -0.00000000000E+00 -0.00000000000E+00 -0.74505805969E-08  0.93827000000E+00  0.93827000000E+00 0.  1.
     999902    2    1    2    0    0 -0.73069406066E-02 -0.68668111917E-02  0.38576762493E-02  0.10331863441E+01  0.10331304832E+01 0.  0.
     999903    2    3    3    0    0  0.78434578150E-01  0.82807335847E-01 -0.70474211382E-01  0.14138014863E+00  0.44863058711E-01 0.  0.
         14    1    1    2    0    0  0.73069406066E-02  0.68668111917E-02 -0.38576762493E-02  0.10743655943E-01  0.00000000000E+00 0. -1.
     999901    1    3    3    0    0 -0.85741518757E-01 -0.89674147038E-01  0.74331887631E-01  0.89180619543E+00  0.88000000000E+00 0. -1.
        -11    1    4    4    0    0  0.43037660591E-01  0.61779532940E-01 -0.23415730587E-01  0.78851179315E-01  0.51100000000E-03 0.  1.
         11    1    4    4    0    0  0.35396917559E-01  0.21027802907E-01 -0.47058480795E-01  0.62528969314E-01  0.51100000000E-03 0. -1.
</event>
<event>
 8    1  0.2257781E+004  0.1043930E+01  0.7957747E-01            NaN
         13   -1    0    0    0    0  0.00000000000E+00  0.00000000000E+00  0.74505805969E-08  0.10566000000E+00  0.10566000000E+00 0. -1.
     999900   -1    0    0    0    0 -0.00000000000E+00 -0.00000000000E+00 -0.74505805969E-08  0.93827000000E+00  0.93827000000E+00 0. -1.
     999902    2    1    2    0    0 -0.55896413690E-02 -0.11827724925E-01  0.17320962503E-02  0.10307338140E+01  0.10306493371E+01 0.  0.
     999903    2    3    3    0    0  0.34999939096E-02 -0.35979126828E-01 -0.12859758270E+00  0.14076092852E+00  0.44379648444E-01 0.  0.
         14    1    1    2    0    0  0.55896413690E-02  0.11827724925E-01 -0.17320962503E-02  0.13196186000E-01  0.00000000000E+00 0.  1.
     999901    1    3    3    0    0 -0.90896352786E-02  0.24151401903E-01  0.13032967895E+00  0.88997288548E+00  0.88000000000E+00 0.  1.
        -11    1    4    4    0    0  0.24784796462E-03  0.10553150788E-01 -0.25297857827E-01  0.27416658290E-01  0.51100000000E-03 0. -1.
         11    1    4    4    0    0  0.32521459450E-02 -0.46532277616E-01 -0.10329972487E+00  0.11334427023E+00  0.51100000000E-03 0.  1.
</event>
<event>
 8    1  0.2257781E+004  0.1043930E+01  0.7957747E-01            NaN
         13   -1    0    0    0    0  0.00000000000E+00  0.00000000000E+00  0.74505805969E-08  0.10566000000E+00  0.10566000000E+00 0. -1.
     999900   -1    0    0    0    0 -0.00000000000E+00 -0.00000000000E+00 -0.74505805969E-08  0.93827000000E+00  0.93827000000E+00 0.  1.
     999902    2    1    2    0    0  0.66110660398E-02 -0.23661129962E-02  0.10741143516E-01  0.10310973522E+01  0.10310174940E+01 0.  0.
     999903    2    3    3    0    0  0.94819743163E-01  0.93681567137E-01 -0.17611019314E-02  0.14139951941E+00  0.47156154360E-01 0.  0.
         14    1    1    2    0    0 -0.66110660398E-02  0.23661129962E-02 -0.10741143516E-01  0.12832647775E-01  0.00000000000E+00 0.  1.
     999901    1    3    3    0    0 -0.88208677123E-01 -0.96047680133E-01  0.12502245447E-01  0.88969783282E+00  0.88000000000E+00 0. -1.
        -11    1    4    4    0    0  0.30040540158E-01  0.57037327952E-02 -0.90754870350E-02  0.31899721107E-01  0.51100000000E-03 0. -1.
         11    1    4    4    0    0  0.64779203005E-01  0.87977834342E-01  0.73143851036E-02  0.10949979830E+00  0.51100000000E-03 0.  1.
</event>
<event>
 8    1  0.2257781E+004  0.1043930E+01  0.7957747E-01            NaN
         13   -1    0    0    0    0  0.00000000000E+00  0.00000000000E+00  0.74505805969E-08  0.10566000000E+00  0.10566000000E+00 0. -1.
     999900   -1    0    0    0    0 -0.00000000000E+00 -0.00000000000E+00 -0.74505805969E-08  0.93827000000E+00  0.93827000000E+00 0.  1.
     999902    2    1    2    0    0 -0.23239421728E-02  0.13015731681E-01 -0.45508594897E-02  0.10299471426E+01  0.10298522206E+01 0.  0.
     999903    2    3    3    0    0 -0.11897336742E+00  0.39878027950E-01 -0.50523145962E-01  0.14065409615E+00  0.38549542378E-01 0.  0.
         14    1    1    2    0    0  0.23239421728E-02 -0.13015731681E-01  0.45508594897E-02  0.13982857380E-01  0.00000000000E+00 0. -1.
     999901    1    3    3    0    0  0.11664942525E+00 -0.26862296269E-01  0.45972286472E-01  0.88929304647E+00  0.88000000000E+00 0. -1.
        -11    1    4    4    0    0 -0.86639377456E-01  0.10089360792E-01 -0.35800753991E-01  0.94287496703E-01  0.51100000000E-03 0. -1.
         11    1    4    4    0    0 -0.32333989966E-01  0.29788667158E-01 -0.14722391970E-01  0.46366599450E-01  0.51100000000E-03 0.  1.
</event>
<event>
 8    1  0.2257781E+004  0.1043930E+01  0.7957747E-01            NaN
         13   -1    0    0    0    0  0.00000000000E+00  0.00000000000E+00  0.74505805969E-08  0.10566000000E+00  0.10566000000E+00 0. -1.
     999900   -1    0    0    0    0 -0.00000000000E+00 -0.00000000000E+00 -0.74505805969E-08  0.93827000000E+00  0.93827000000E+00 0.  1.
     999902    2    1    2    0    0 -0.47915644653E-02  0.13501442341E-01 -0.18121096466E-02  0.10294893706E+01  0.10293880864E+01 0.  0.
     999903    2    3    3    0    0  0.36631201407E-01 -0.82446557164E-01  0.94314668489E-01  0.13810717335E+00  0.45155895902E-01 0.  0.
         14    1    1    2    0    0  0.47915644653E-02 -0.13501442341E-01  0.18121096466E-02  0.14440629373E-01  0.00000000000E+00 0.  1.
     999901    1    3    3    0    0 -0.41422765872E-01  0.95947999505E-01 -0.96126778136E-01  0.89138219727E+00  0.88000000000E+00 0.  1.
        -11    1    4    4    0    0  0.38450262852E-01 -0.52026825919E-01  0.40693446599E-01  0.76429255169E-01  0.51100000000E-03 0. -1.
         11    1    4    4    0    0 -0.18190614451E-02 -0.30419731245E-01  0.53621221890E-01  0.61677918184E-01  0.51100000000E-03 0.  1.
</event>
<event>
 8    1  0.2257781E+004  0.1043930E+01  0.7957747E-01            NaN
         13   -1    0    0    0    0  0.00000000000E+00  0.00000000000E+00  0.74505805969E-08  0.10566000000E+00  0.10566000000E+00 0. -1.
     999900   -1    0    0    0    0 -0.00000000000E+00 -0.00000000000E+00 -0.74505805969E-08  0.93827000000E+00  0.93827000000E+00 0. -1.
     999902    2    1    2    0    0 -0.38216755190E-02 -0.62744598692E-03 -0.12882124245E-01  0.10304783080E+01  0.10303905062E+01 0.  0.
     999903    2    3    3    0    0  0.12467555509E+00  0.30972046505E-01 -0.33220352333E-01  0.14035263727E+00  0.45738487910E-01 0.  0.
         14    1    1    2    0    0  0.38216755190E-02  0.62744598692E-03  0.12882124245E-01  0.13451691986E-01  0.00000000000E+00 0. -1.
     999901    1    3    3    0    0 -0.12849723061E+00 -0.31599492492E-01  0.20338228088E-01  0.89012567075E+00  0.88000000000E+00 0.  1.
        -11    1    4    4    0    0  0.71195183899E-01  0.34606694801E-02 -0.36571756885E-01  0.80115447739E-01  0.51100000000E-03 0.  1.
         11    1    4    4    0    0  0.53480371193E-01  0.27511377025E-01  0.33514045527E-02  0.60237189528E-01  0.51100000000E-03 0. -1.
</event>
<event>
 8    1  0.2257781E+004  0.1043930E+01  0.7957747E-01            NaN
         13   -1    0    0    0    0  0.00000000000E+00  0.00000000000E+00  0.74505805969E-08  0.10566000000E+00  0.10566000000E+00 0.  1.
     999900   -1    0    0    0    0 -0.00000000000E+00 -0.00000000000E+00 -0.74505805969E-08  0.93827000000E+00  0.93827000000E+00 0.  1.
     999902    2    1    2    0    0 -0.11529327452E-01  0.18817139313E-02 -0.10007326349E-01  0.10285477759E+01  0.10284327467E+01 0.  0.
     999903    2    3    3    0    0  0.40271986868E-01 -0.56038452332E-01 -0.11184724780E+00  0.13927307622E+00  0.46098176225E-01 0.  0.
         14    1    1    2    0    0  0.11529327452E-01 -0.18817139313E-02  0.10007326349E-01  0.15382224139E-01  0.00000000000E+00 0.  1.
     999901    1    3    3    0    0 -0.51801314320E-01  0.57920166264E-01  0.10183992146E+00  0.88927469964E+00  0.88000000000E+00 0. -1.
        -11    1    4    4    0    0  0.16026792344E-01  0.51928490002E-02 -0.27587354542E-01  0.32328733430E-01  0.51100000000E-03 0.  1.
         11    1    4    4    0    0  0.24245194524E-01 -0.61231301332E-01 -0.84259893263E-01  0.10694434279E+00  0.51100000000E-03 0. -1.
</event>
<event>
 7    1  0.2572288E+004  0.1043930E+01  0.7957747E-01            NaN
         13   -1    0    0    0    0  0.00000000000E+00  0.00000000000E+00  0.74505805969E-08  0.10566000000E+00  0.10566000000E+00 0.  1.
     999900   -1    0    0    0    0 -0.00000000000E+00 -0.00000000000E+00 -0.74505805969E-08  0.93827000000E+00  0.93827000000E+00 0.  1.
     999903    2    1    2    0    0 -0.20742389372E-01  0.21860681185E-01  0.96329575400E-01  0.11051807087E+00  0.45019115856E-01 0.  0.
         14    1    1    2    0    0 -0.30178197096E-01  0.27163894650E-01  0.15628530740E-01  0.43506915836E-01  0.00000000000E+00 0. -1.
     999901    1    1    2    0    0  0.50920586468E-01 -0.49024575834E-01 -0.11195810614E+00  0.88990501330E+00  0.88000000000E+00 0.  1.
        -11    1    3    3    0    0 -0.18925022396E-01 -0.97374839236E-02  0.50652910264E-01  0.54945004369E-01  0.51100000000E-03 0. -1.
         11    1    3    3    0    0 -0.18173669757E-02  0.31598165108E-01  0.45676665136E-01  0.55573066497E-01  0.51100000000E-03 0.  1.
</event>
<event>
 8    1  0.2257781E+004  0.1043930E+01  0.7957747E-01            NaN
         13   -1    0    0    0    0  0.00000000000E+00  0.00000000000E+00  0.74505805969E-08  0.10566000000E+00  0.10566000000E+00 0.  1.
     999900   -1    0    0    0    0 -0.00000000000E+00 -0.00000000000E+00 -0.74505805969E-08  0.93827000000E+00  0.93827000000E+00 0.  1.
     999902    2    1    2    0    0 -0.83725828544E-02  0.60960120039E-02  0.81648796736E-02  0.10307418703E+01  0.10306574971E+01 0.  0.
     999903    2    3    3    0    0  0.15091079058E-01 -0.95668358884E-01 -0.91456869217E-01  0.13898460314E+00  0.39650793477E-01 0.  0.
         14    1    1    2    0    0  0.83725828544E-02 -0.60960120039E-02 -0.81648796736E-02  0.13188129742E-01  0.00000000000E+00 0.  1.
     999901    1    3    3    0    0 -0.23463661913E-01  0.10176437089E+00  0.99621748890E-01  0.89175726712E+00  0.88000000000E+00 0. -1.
        -11    1    4    4    0    0  0.27320366888E-01 -0.48372952683E-01 -0.53371229823E-01  0.77039563161E-01  0.51100000000E-03 0. -1.
         11    1    4    4    0    0 -0.12229287830E-01 -0.47295406201E-01 -0.38085639393E-01  0.61945039975E-01  0.51100000000E-03 0.  1.
</event>
<event>
 8    1  0.2257781E+004  0.1043930E+01  0.7957747E-01            NaN
         13   -1    0    0    0    0  0.00000000000E+00  0.00000000000E+00  0.74505805969E-08  0.10566000000E+00  0.10566000000E+00 0.  1.
     999900   -1    0    0    0    0 -0.00000000000E+00 -0.00000000000E+00 -0.74505805969E-08  0.93827000000E+00  0.93827000000E+00 0.  1.
     999902    2    1    2    0    0 -0.78251327196E-02  0.11304518129E-01  0.16030819291E-02  0.10300882261E+01  0.10299952228E+01 0.  0.
     999903    2    3    3    0    0  0.29962232389E-02  0.67125599808E-01 -0.11484847782E+00  0.14059732642E+00  0.45415986555E-01 0.  0.
         14    1    1    2    0    0  0.78251327196E-02 -0.11304518129E-01 -0.16030819291E-02  0.13841773870E-01  0.00000000000E+00 0. -1.
     999901    1    3    3    0    0 -0.10821355959E-01 -0.55821081679E-01  0.11645155975E+00  0.88949089971E+00  0.88000000000E+00 0. -1.
        -11    1    4    4    0    0  0.16557004822E-01  0.49390817659E-01 -0.10274482743E+00  0.11519699632E+00  0.51100000000E-03 0.  1.
         11    1    4    4    0    0 -0.13560781584E-01  0.17734782149E-01 -0.12103650391E-01  0.25400330093E-01  0.51100000000E-03 0. -1.
</event>
<event>
 8    1  0.2257781E+004  0.1043930E+01  0.7957747E-01            NaN
         13   -1    0    0    0    0  0.00000000000E+00  0.00000000000E+00  0.74505805969E-08  0.10566000000E+00  0.10566000000E+00 0.  1.
     999900   -1    0    0    0    0 -0.00000000000E+00 -0.00000000000E+00 -0.74505805969E-08  0.93827000000E+00  0.93827000000E+00 0.  1.
     999902    2    1    2    0    0 -0.96547241977E-03  0.13812576023E-01  0.13518382046E-02  0.10300178880E+01  0.10299239306E+01 0.  0.
     999903    2    3    3    0    0 -0.10931966679E+00 -0.72328190534E-01 -0.85046484137E-02  0.13914302956E+00  0.45894410741E-01 0.  0.
         14    1    1    2    0    0  0.96547241977E-03 -0.13812576023E-01 -0.13518382046E-02  0.13912111986E-01  0.00000000000E+00 0. -1.
     999901    1    3    3    0    0  0.10835419437E+00  0.86140766556E-01  0.98564866184E-02  0.89087485846E+00  0.88000000000E+00 0.  1.
        -11    1    4    4    0    0 -0.42409012699E-02 -0.21426077209E-01  0.18450692419E-02  0.21925497249E-01  0.51100000000E-03 0.  1.
         11    1    4    4    0    0 -0.10507876552E+00 -0.50902113325E-01 -0.10349717656E-01  0.11721753231E+00  0.51100000000E-03 0. -1.
</event>
<event>
 8    1  0.2257781E+004  0.1043930E+01  0.7957747E-01            NaN
         13   -1    0    0    0    0  0.00000000000E+00  0.00000000000E+00  0.74505805969E-08  0.10566000000E+00  0.10566000000E+00 0.  1.
     999900   -1    0    0    0    0 -0.00000000000E+00 -0.00000000000E+00 -0.74505805969E-08  0.93827000000E+00  0.93827000000E+00 0.  1.
     999902    2    1    2    0    0 -0.11416142093E-01  0.95335791326E-02  0.14199252579E-02  0.10289889954E+01  0.10288805174E+01 0.  0.
     999903    2    3    3    0    0  0.78389666782E-01  0.10071768193E+00  0.31745285473E-01  0.13921416353E+00  0.45648974431E-01 0.  0.
         14    1    1    2    0    0  0.11416142093E-01 -0.95335791326E-02 -0.14199252579E-02  0.14941004622E-01  0.00000000000E+00 0. -1.
     999901    1    3    3    0    0 -0.89805808875E-01 -0.91184102800E-01 -0.30325360215E-01  0.88977483184E+00  0.88000000000E+00 0.  1.
        -11    1    4    4    0    0  0.68483682163E-01  0.52932516501E-01  0.16791269799E-01  0.88170708788E-01  0.51100000000E-03 0. -1.
         11    1    4    4    0    0  0.99059846192E-02  0.47785165432E-01  0.14954015674E-01  0.51043454746E-01  0.51100000000E-03 0.  1.
</event>
<event>
 8    1  0.2257781E+004  0.1043930E+01  0.7957747E-01            NaN
         13   -1    0    0    0    0  0.00000000000E+00  0.00000000000E+00  0.74505805969E-08  0.10566000000E+00  0.10566000000E+00 0.  1.
     999900   -1    0    0    0    0 -0.00000000000E+00 -0.00000000000E+00 -0.74505805969E-08  0.93827000000E+00  0.93827000000E+00 0. -1.
     999902    2    1    2    0    0  0.16901868927E-01 -0.35153838183E-03 -0.21308597939E-02  0.10268907126E+01  0.10267493357E+01 0.  0.
     999903    2    3    3    0    0  0.44069695735E-02 -0.42670981156E-01  0.12233313754E+00  0.13703772226E+00  0.44426419698E-01 0.  0.
         14    1    1    2    0    0 -0.16901868927E-01  0.35153838183E-03  0.21308597939E-02  0.17039287424E-01  0.00000000000E+00 0. -1.
     999901    1    3    3    0    0  0.12494899354E-01  0.42319442774E-01 -0.12446399733E+00  0.88985299032E+00  0.88000000000E+00 0. -1.
        -11    1    4    4    0    0 -0.19398995029E-01 -0.11589719102E-01  0.44745525376E-01  0.50130487323E-01  0.51100000000E-03 0. -1.
         11    1    4    4    0    0  0.23805964603E-01 -0.31081262054E-01  0.77587612165E-01  0.86907234934E-01  0.51100000000E-03 0.  1.
</event>
<event>
 8    1  0.2257781E+004  0.1043930E+01  0.7957747E-01            NaN
         13   -1    0    0    0    0  0.00000000000E+00  0.00000000000E+00  0.74505805969E-08  0.10566000000E+00  0.10566000000E+00 0. -1.
     999900   -1    0    0    0    0 -0.00000000000E+00 -0.00000000000E+00 -0.74505805969E-08  0.93827000000E+00  0.93827000000E+00 0.  1.
     999902    2    1    2    0    0 -0.60913362105E-02  0.78626555472E-02 -0.90495949250E-02  0.10304830339E+01  0.10303952942E+01 0.  0.
     999903    2    3    3    0    0 -0.97442945630E-01 -0.59542662742E-01 -0.69303532853E-01  0.14114669116E+00  0.45595530702E-01 0.  0.
         14    1    1    2    0    0  0.60913362105E-02 -0.78626555472E-02  0.90495949250E-02  0.13446966104E-01  0.00000000000E+00 0. -1.
     999901    1    3    3    0    0  0.91351609419E-01  0.67405318289E-01  0.60253937928E-01  0.88933634274E+00  0.88000000000E+00 0. -1.
        -11    1    4    4    0    0  0.20280304844E-02 -0.86988288524E-02 -0.13694809717E-01  0.16358223169E-01  0.51100000000E-03 0. -1.
         11    1    4    4    0    0 -0.99470976114E-01 -0.50843833889E-01 -0.55608723136E-01  0.12478846799E+00  0.51100000000E-03 0.  1.
</event>
<event>
 8    1  0.2257781E+004  0.1043930E+01  0.7957747E-01            NaN
         13   -1    0    0    0    0  0.00000000000E+00  0.00000000000E+00  0.74505805969E-08  0.10566000000E+00  0.10566000000E+00 0.  1.
     999900   -1    0    0    0    0 -0.00000000000E+00 -0.00000000000E+00 -0.74505805969E-08  0.93827000000E+00  0.93827000000E+00 0.  1.
     999902    2    1    2    0    0 -0.13300066677E-01 -0.18085484520E-02  0.52453634974E-02  0.10295190160E+01  0.10294181502E+01 0.  0.
     999903    2    3    3    0    0  0.92407169184E-01  0.18076219526E-01 -0.89937755783E-01  0.13787488863E+00  0.45330457423E-01 0.  0.
         14    1    1    2    0    0  0.13300066677E-01  0.18085484520E-02 -0.52453634974E-02  0.14410983982E-01  0.00000000000E+00 0.  1.
     999901    1    3    3    0    0 -0.10570723586E+00 -0.19884767978E-01  0.95183119281E-01  0.89164412739E+00  0.88000000000E+00 0. -1.
        -11    1    4    4    0    0  0.22895487080E-02  0.14099650307E-01 -0.12584681116E-01  0.19044093359E-01  0.51100000000E-03 0. -1.
         11    1    4    4    0    0  0.90117620476E-01  0.39765692189E-02 -0.77353074667E-01  0.11883079527E+00  0.51100000000E-03 0.  1.
</event>
<event>
 8    1  0.2257781E+004  0.1043930E+01  0.7957747E-01            NaN
         13   -1    0    0    0    0  0.00000000000E+00  0.00000000000E+00  0.74505805969E-08  0.10566000000E+00  0.10566000000E+00 0.  1.
     999900   -1    0    0    0    0 -0.00000000000E+00 -0.00000000000E+00 -0.74505805969E-08  0.93827000000E+00  0.93827000000E+00 0.  1.
     999902    2    1    2    0    0  0.24726857149E-02 -0.16892335221E-01  0.16072617377E-01  0.10204823094E+01  0.10202128943E+01 0.  0.
     999903    2    3    3    0    0  0.12688054516E-01  0.12031465228E+00 -0.10645263904E-01  0.12939086835E+00  0.44632643743E-01 0.  0.
         14    1    1    2    0    0 -0.24726857149E-02  0.16892335221E-01 -0.16072617377E-01  0.23447690573E-01  0.00000000000E+00 0. -1.
     999901    1    3    3    0    0 -0.10215368801E-01 -0.13720698750E+00  0.26717881281E-01  0.89109144108E+00  0.88000000000E+00 0. -1.
        -11    1    4    4    0    0 -0.91463709303E-02  0.61832100293E-01 -0.21348884343E-01  0.66052257430E-01  0.51100000000E-03 0. -1.
         11    1    4    4    0    0  0.21834425446E-01  0.58482551990E-01  0.10703620439E-01  0.63338610921E-01  0.51100000000E-03 0.  1.
</event>
<event>
 8    1  0.2257781E+004  0.1043930E+01  0.7957747E-01            NaN
         13   -1    0    0    0    0  0.00000000000E+00  0.00000000000E+00  0.74505805969E-08  0.10566000000E+00  0.10566000000E+00 0.  1.
     999900   -1    0    0    0    0 -0.00000000000E+00 -0.00000000000E+00 -0.74505805969E-08  0.93827000000E+00  0.93827000000E+00 0. -1.
     999902    2    1    2    0    0  0.25081191878E-02  0.85263764830E-04 -0.14175057355E-01  0.10295345082E+01  0.10294338607E+01 0.  0.
     999903    2    3    3    0    0 -0.13924638412E-01 -0.12421892929E-01  0.12887249144E+00  0.13774469798E+00  0.44914182531E-01 0.  0.
         14    1    1    2    0    0 -0.25081191878E-02 -0.85263764830E-04  0.14175057355E-01  0.14395491752E-01  0.00000000000E+00 0.  1.
     999901    1    3    3    0    0  0.16432757600E-01  0.12507156694E-01 -0.14304754879E+00  0.89178981027E+00  0.88000000000E+00 0. -1.
        -11    1    4    4    0    0 -0.15844808600E-01  0.14358740583E-01  0.65935504502E-01  0.69317986596E-01  0.51100000000E-03 0. -1.
         11    1    4    4    0    0  0.19201701887E-02 -0.26780633512E-01  0.62936986934E-01  0.68426711379E-01  0.51100000000E-03 0.  1.
</event>
<event>
 8    1  0.2257781E+004  0.1043930E+01  0.7957747E-01            NaN
         13   -1    0    0    0    0  0.00000000000E+00  0.00000000000E+00  0.74505805969E-08  0.10566000000E+00  0.10566000000E+00 0.  1.
     999900   -1    0    0    0    0 -0.00000000000E+00 -0.00000000000E+00 -0.74505805969E-08  0.93827000000E+00  0.93827000000E+00 0. -1.
     999902    2    1    2    0    0  0.12696781141E-02 -0.49953437216E-02 -0.12999539863E-01  0.10299459527E+01  0.10298510145E+01 0.  0.
     999903    2    3    3    0    0  0.12738142804E+00  0.27069383398E-01 -0.27370178736E-01  0.14026126957E+00  0.44331899696E-01 0.  0.
         14    1    1    2    0    0 -0.12696781141E-02  0.49953437216E-02  0.12999539863E-01  0.13984047270E-01  0.00000000000E+00 0.  1.
     999901    1    3    3    0    0 -0.12611174992E+00 -0.32064727120E-01  0.14370638873E-01  0.88968468316E+00  0.88000000000E+00 0. -1.
        -11    1    4    4    0    0  0.86940451774E-01  0.31465816586E-01 -0.23298740655E-02  0.92490157326E-01  0.51100000000E-03 0. -1.
         11    1    4    4    0    0  0.40440976261E-01 -0.43964331873E-02 -0.25040304670E-01  0.47771112240E-01  0.51100000000E-03 0.  1.
</event>
<event>
 8    1  0.2257781E+004  0.1043930E+01  0.7957747E-01            NaN
         13   -1    0    0    0    0  0.00000000000E+00  0.00000000000E+00  0.74505805969E-08  0.10566000000E+00  0.10566000000E+00 0. -1.
     999900   -1    0    0    0    0 -0.00000000000E+00 -0.00000000000E+00 -0.74505805969E-08  0.93827000000E+00  0.93827000000E+00 0.  1.
     999902    2    1    2    0    0 -0.11427396387E-01 -0.63506688304E-02  0.26035492584E-02  0.10305997768E+01  0.10305135637E+01 0.  0.
     999903    2    3    3    0    0  0.88507909907E-01  0.56933337441E-01 -0.74649633471E-01  0.13933102653E+00  0.52588136965E-01 0.  0.
         14    1    1    2    0    0  0.11427396387E-01  0.63506688304E-02 -0.26035492584E-02  0.13330223236E-01  0.00000000000E+00 0. -1.
     999901    1    3    3    0    0 -0.99935306294E-01 -0.63284006272E-01  0.77253182730E-01  0.89126875023E+00  0.88000000000E+00 0.  1.
        -11    1    4    4    0    0  0.66194004757E-01  0.46410707427E-01 -0.80374649400E-01  0.11399976060E+00  0.51100000000E-03 0.  1.
         11    1    4    4    0    0  0.22313905150E-01  0.10522630014E-01  0.57250159289E-02  0.25331265935E-01  0.51100000000E-03 0. -1.
</event>
<event>
 7    1  0.2257781E+004  0.1043930E+01  0.7957747E-01            NaN
         13   -1    0    0    0    0  0.00000000000E+00  0.00000000000E+00  0.74505805969E-08  0.10566000000E+00  0.10566000000E+00 0. -1.
     999900   -1    0    0    0    0 -0.00000000000E+00 -0.00000000000E+00 -0.74505805969E-08  0.93827000000E+00  0.93827000000E+00 0. -1.
     999903    2    1    2    0    0 -0.87547432919E-01 -0.51325131415E-01 -0.52750210577E-01  0.12318368203E+00  0.45747269624E-01 0.  0.
         14    1    1    2    0    0 -0.63052521683E-03 -0.12822526520E-01 -0.27543354743E-01  0.30388338864E-01  0.00000000000E+00 0.  1.
     999901    1    1    2    0    0  0.88177958136E-01  0.64147657935E-01  0.80293565320E-01  0.89035797910E+00  0.88000000000E+00 0. -1.
        -11    1    3    3    0    0 -0.32738435233E-01 -0.34282346893E-01 -0.34729474366E-02  0.47533219277E-01  0.51100000000E-03 0. -1.
         11    1    3    3    0    0 -0.54808997687E-01 -0.17042784522E-01 -0.49277263140E-01  0.75650462756E-01  0.51100000000E-03 0.  1.
</event>
<event>
 8    1  0.2257781E+004  0.1043930E+01  0.7957747E-01            NaN
         13   -1    0    0    0    0  0.00000000000E+00  0.00000000000E+00  0.74505805969E-08  0.10566000000E+00  0.10566000000E+00 0.  1.
     999900   -1    0    0    0    0 -0.00000000000E+00 -0.00000000000E+00 -0.74505805969E-08  0.93827000000E+00  0.93827000000E+00 0.  1.
     999902    2    1    2    0    0  0.12508298097E-02  0.61773604232E-02 -0.12258168057E-01  0.10301464213E+01  0.10300542036E+01 0.  0.
     999903    2    3    3    0    0 -0.16419183335E-01 -0.11919712504E+00  0.52292982604E-01  0.13874424384E+00  0.45142717786E-01 0.  0.
         14    1    1    2    0    0 -0.12508298097E-02 -0.61773604232E-02  0.12258168057E-01  0.13783578676E-01  0.00000000000E+00 0.  1.
     999901    1    3    3    0    0  0.17670013145E-01  0.12537448547E+00 -0.64551150661E-01  0.89140217748E+00  0.88000000000E+00 0.  1.
        -11    1    4    4    0    0 -0.31986553144E-01 -0.88030144191E-01  0.37456765640E-01  0.10087475542E+00  0.51100000000E-03 0.  1.
         11    1    4    4    0    0  0.15567369809E-01 -0.31166980852E-01  0.14836216964E-01  0.37869488418E-01  0.51100000000E-03 0. -1.
</event>
<event>
 8    1  0.2257781E+004  0.1043930E+01  0.7957747E-01            NaN
         13   -1    0    0    0    0  0.00000000000E+00  0.00000000000E+00  0.74505805969E-08  0.10566000000E+00  0.10566000000E+00 0.  1.
     999900   -1    0    0    0    0 -0.00000000000E+00 -0.00000000000E+00 -0.74505805969E-08  0.93827000000E+00  0.93827000000E+00 0. -1.
     999902    2    1    2    0    0 -0.65771937964E-02  0.97118402334E-02  0.82698495787E-02  0.10295783544E+01  0.10294783233E+01 0.  0.
     999903    2    3    3    0    0  0.12738229627E+00 -0.11181126920E-01 -0.28072770550E-01  0.13845409423E+00  0.45057616004E-01 0.  0.
         14    1    1    2    0    0  0.65771937964E-02 -0.97118402334E-02 -0.82698495787E-02  0.14351645585E-01  0.00000000000E+00 0.  1.
     999901    1    3    3    0    0 -0.13395949007E+00  0.20892967154E-01  0.36342620128E-01  0.89112426019E+00  0.88000000000E+00 0. -1.
        -11    1    4    4    0    0  0.85913754242E-01 -0.28641033393E-01 -0.19801870114E-01  0.92703058972E-01  0.51100000000E-03 0.  1.
         11    1    4    4    0    0  0.41468542028E-01  0.17459906473E-01 -0.82709004352E-02  0.45751035256E-01  0.51100000000E-03 0. -1.
</event>
<event>
 8    1  0.2257781E+004  0.1043930E+01  0.7957747E-01            NaN
         13   -1    0    0    0    0  0.00000000000E+00  0.00000000000E+00  0.74505805969E-08  0.10566000000E+00  0.10566000000E+00 0.  1.
     999900   -1    0    0    0    0 -0.00000000000E+00 -0.00000000000E+00 -0.74505805969E-08  0.93827000000E+00  0.93827000000E+00 0.  1.
     999902    2    1    2    0    0  0.42804162994E-02  0.35386211713E-02 -0.12592826988E-01  0.10301668937E+01  0.10300749515E+01 0.  0.
     999903    2    3    3    0    0 -0.62506311583E-02 -0.82817652124E-01  0.10081772789E+00  0.13863435764E+00  0.46448218121E-01 0.  0.
         14    1    1    2    0    0 -0.42804162994E-02 -0.35386211713E-02  0.12592826988E-01  0.13763106301E-01  0.00000000000E+00 0.  1.
     999901    1    3    3    0    0  0.10531047458E-01  0.86356273295E-01 -0.11341055488E+00  0.89153253606E+00  0.88000000000E+00 0.  1.
        -11    1    4    4    0    0  0.17502420644E-01 -0.22143716986E-01  0.18947920034E-01  0.33999466540E-01  0.51100000000E-03 0. -1.
         11    1    4    4    0    0 -0.23753051802E-01 -0.60673935138E-01  0.81869807860E-01  0.10463489110E+00  0.51100000000E-03 0.  1.
</event>
<event>
 8    1  0.2257781E+004  0.1043930E+01  0.7957747E-01            NaN
         13   -1    0    0    0    0  0.00000000000E+00  0.00000000000E+00  0.74505805969E-08  0.10566000000E+00  0.10566000000E+00 0. -1.
     999900   -1    0    0    0    0 -0.00000000000E+00 -0.00000000000E+00 -0.74505805969E-08  0.93827000000E+00  0.93827000000E+00 0. -1.
     999902    2    1    2    0    0 -0.57340195804E-02 -0.21647657027E-03 -0.12190956944E-01  0.10304561262E+01  0.10303680327E+01 0.  0.
     999903    2    3    3    0    0 -0.31697270694E-01 -0.28695774111E-01  0.12462353848E+00  0.13905084976E+00  0.44451637249E-01 0.  0.
         14    1    1    2    0    0  0.57340195804E-02  0.21647657027E-03  0.12190956944E-01  0.13473873751E-01  0.00000000000E+00 0. -1.
     999901    1    3    3    0    0  0.25963251114E-01  0.28479297540E-01 -0.13681449542E+00  0.89140527649E+00  0.88000000000E+00 0. -1.
        -11    1    4    4    0    0 -0.21691289384E-01 -0.39705415914E-01  0.10567530918E+00  0.11495461791E+00  0.51100000000E-03 0.  1.
         11    1    4    4    0    0 -0.10005981310E-01  0.11009641803E-01  0.18948229303E-01  0.24096231849E-01  0.51100000000E-03 0. -1.
</event>
<event>
 8    1  0.2257781E+004  0.1043930E+01  0.7957747E-01            NaN
         13   -1    0    0    0    0  0.00000000000E+00  0.00000000000E+00  0.74505805969E-08  0.10566000000E+00  0.10566000000E+00 0.  1.
     999900   -1    0    0    0    0 -0.00000000000E+00 -0.00000000000E+00 -0.74505805969E-08  0.93827000000E+00  0.93827000000E+00 0. -1.
     999902    2    1    2    0    0 -0.12499142837E-02  0.10059916659E-01 -0.99673296096E-02  0.10297133946E+01  0.10296152501E+01 0.  0.
     999903    2    3    3    0    0 -0.43749246285E-02  0.12755280626E+00 -0.40408831507E-01  0.14137729278E+00  0.45451148502E-01 0.  0.
         14    1    1    2    0    0  0.12499142837E-02 -0.10059916659E-01  0.99673296096E-02  0.14216605377E-01  0.00000000000E+00 0.  1.
     999901    1    3    3    0    0  0.31250103448E-02 -0.11749288960E+00  0.30441501897E-01  0.88833610184E+00  0.88000000000E+00 0.  1.
        -11    1    4    4    0    0 -0.16766023914E-01  0.10325961344E+00 -0.44705963561E-01  0.11376524787E+00  0.51100000000E-03 0. -1.
         11    1    4    4    0    0  0.12391099286E-01  0.24293192825E-01  0.42971320543E-02  0.27612044908E-01  0.51100000000E-03 0.  1.
</event>
<event>
 8    1  0.2257781E+004  0.1043930E+01  0.7957747E-01            NaN
         13   -1    0    0    0    0  0.00000000000E+00  0.00000000000E+00  0.74505805969E-08  0.10566000000E+00  0.10566000000E+00 0.  1.
     999900   -1    0    0    0    0 -0.00000000000E+00 -0.00000000000E+00 -0.74505805969E-08  0.93827000000E+00  0.93827000000E+00 0.  1.
     999902    2    1    2    0    0 -0.39144666931E-02 -0.44089152394E-02  0.15766545577E-01  0.10270971291E+01  0.10269591847E+01 0.  0.
     999903    2    3    3    0    0 -0.35104526080E-01 -0.21102100515E-01 -0.12184154596E+00  0.13570076996E+00  0.43493795510E-01 0.  0.
         14    1    1    2    0    0  0.39144666931E-02  0.44089152394E-02 -0.15766545577E-01  0.16832870893E-01  0.00000000000E+00 0. -1.
     999901    1    3    3    0    0  0.31190059387E-01  0.16693185276E-01  0.13760809154E+00  0.89139635914E+00  0.88000000000E+00 0. -1.
        -11    1    4    4    0    0 -0.35732167904E-01 -0.32065940194E-01 -0.89864895549E-01  0.10188705961E+00  0.51100000000E-03 0. -1.
         11    1    4    4    0    0  0.62764182399E-03  0.10963839678E-01 -0.31976650415E-01  0.33813710349E-01  0.51100000000E-03 0.  1.
</event>
<event>
 8    1  0.2257781E+004  0.1043930E+01  0.7957747E-01            NaN
         13   -1    0    0    0    0  0.00000000000E+00  0.00000000000E+00  0.74505805969E-08  0.10566000000E+00  0.10566000000E+00 0. -1.
     999900   -1    0    0    0    0 -0.00000000000E+00 -0.00000000000E+00 -0.74505805969E-08  0.93827000000E+00  0.93827000000E+00 0.  1.
     999902    2    1    2    0    0 -0.11744329940E-01 -0.35485046342E-02  0.66564278244E-02  0.10299718768E+01  0.10298772926E+01 0.  0.
     999903    2    3    3    0    0 -0.43953547616E-01  0.10655555509E+00  0.66109635984E-01  0.14053665062E+00  0.45760960742E-01 0.  0.
         14    1    1    2    0    0  0.11744329940E-01  0.35485046342E-02 -0.66564278244E-02  0.13958123164E-01  0.00000000000E+00 0.  1.
     999901    1    3    3    0    0  0.32209217676E-01 -0.11010405973E+00 -0.59453208159E-01  0.88943522622E+00  0.88000000000E+00 0.  1.
        -11    1    4    4    0    0 -0.41007813473E-02  0.67347276303E-01  0.43184932878E-01  0.80110371249E-01  0.51100000000E-03 0. -1.
         11    1    4    4    0    0 -0.39852766269E-01  0.39208278792E-01  0.22924703106E-01  0.60426279371E-01  0.51100000000E-03 0.  1.
</event>
<event>
 8    1  0.2257781E+004  0.1043930E+01  0.7957747E-01            NaN
         13   -1    0    0    0    0  0.00000000000E+00  0.00000000000E+00  0.74505805969E-08  0.10566000000E+00  0.10566000000E+00 0. -1.
     999900   -1    0    0    0    0 -0.00000000000E+00 -0.00000000000E+00 -0.74505805969E-08  0.93827000000E+00  0.93827000000E+00 0.  1.
     999902    2    1    2    0    0  0.12576074376E-01 -0.44580922959E-02 -0.21437451596E-02  0.10304160118E+01  0.10303273895E+01 0.  0.
     999903    2    3    3    0    0 -0.10783182659E+00 -0.44527694316E-01 -0.60762777839E-01  0.13938300085E+00  0.46098669903E-01 0.  0.
         14    1    1    2    0    0 -0.12576074376E-01  0.44580922959E-02  0.21437451596E-02  0.13513988196E-01  0.00000000000E+00 0.  1.
     999901    1    3    3    0    0  0.12040790097E+00  0.40069602020E-01  0.58619032679E-01  0.89103301096E+00  0.88000000000E+00 0. -1.
        -11    1    4    4    0    0 -0.10529934320E+00 -0.31938293782E-01 -0.62283325759E-01  0.12644160738E+00  0.51100000000E-03 0.  1.
         11    1    4    4    0    0 -0.25324833959E-02 -0.12589400534E-01  0.15205479203E-02  0.12941393469E-01  0.51100000000E-03 0. -1.
</event>
<event>
 8    1  0.2257781E+004  0.1043930E+01  0.7957747E-01            NaN
         13   -1    0    0    0    0  0.00000000000E+00  0.00000000000E+00  0.74505805969E-08  0.10566000000E+00  0.10566000000E+00 0.  1.
     999900   -1    0    0    0    0 -0.00000000000E+00 -0.00000000000E+00 -0.74505805969E-08  0.93827000000E+00  0.93827000000E+00 0.  1.
     999902    2    1    2    0    0  0.10485560782E-01 -0.89284435995E-02 -0.28406078107E-03  0.10301552121E+01  0.10300631128E+01 0.  0.
     999903    2    3    3    0    0  0.87474532930E-01 -0.58356599056E-02  0.10125656875E+00  0.14097167283E+00  0.43980347728E-01 0.  0.
         14    1    1    2    0    0 -0.10485560782E-01  0.89284435995E-02  0.28406078107E-03  0.13774787859E-01  0.00000000000E+00 0. -1.
     999901    1    3    3    0    0 -0.76988972148E-01 -0.30927836939E-02 -0.10154062953E+00  0.88918353932E+00  0.88000000000E+00 0.  1.
        -11    1    4    4    0    0  0.43664101945E-01 -0.23478566231E-01  0.40515934535E-01  0.64028110570E-01  0.51100000000E-03 0. -1.
         11    1    4    4    0    0  0.43810430985E-01  0.17642906325E-01  0.60740634215E-01  0.76943562256E-01  0.51100000000E-03 0.  1.
</event>
<event>
 8    1  0.2257781E+004  0.1043930E+01  0.7957747E-01            NaN
         13   -1    0    0    0    0  0.00000000000E+00  0.00000000000E+00  0.74505805969E-08  0.10566000000E+00  0.10566000000E+00 0.  1.
     999900   -1    0    0    0    0 -0.00000000000E+00 -0.00000000000E+00 -0.74505805969E-08  0.93827000000E+00  0.93827000000E+00 0. -1.
     999902    2    1    2    0    0  0.75532612784E-02 -0.10091496386E-01  0.62660296040E-02  0.10298533107E+01  0.10297571016E+01 0.  0.
     999903    2    3    3    0    0  0.37056619318E-01 -0.32633659137E-01  0.12412870337E+00  0.14121941131E+00  0.45791247931E-01 0.  0.
         14    1    1    2    0    0 -0.75532612784E-02  0.10091496386E-01 -0.62660296040E-02  0.14076689321E-01  0.00000000000E+00 0. -1.
     999901    1    3    3    0    0 -0.29503358040E-01  0.22542162751E-01 -0.11786267377E+00  0.88863389937E+00  0.88000000000E+00 0. -1.
        -11    1    4    4    0    0  0.16266185169E-01 -0.30924204044E-01  0.34179155386E-01  0.48881192289E-01  0.51100000000E-03 0. -1.
         11    1    4    4    0    0  0.20790434149E-01 -0.17094550935E-02  0.89949547984E-01  0.92338219023E-01  0.51100000000E-03 0.  1.
</event>
<event>
 7    1  0.2257781E+004  0.1043930E+01  0.7957747E-01            NaN
         13   -1    0    0    0    0  0.00000000000E+00  0.00000000000E+00  0.74505805969E-08  0.10566000000E+00  0.10566000000E+00 0.  1.
     999900   -1    0    0    0    0 -0.00000000000E+00 -0.00000000000E+00 -0.74505805969E-08  0.93827000000E+00  0.93827000000E+00 0. -1.
     999903    2    1    2    0    0 -0.66801618421E-03  0.71022834709E-01  0.89869815592E-01  0.12292804589E+00  0.44609768173E-01 0.  0.
         14    1    1    2    0    0  0.14826535092E-01 -0.10700484390E-01 -0.32089301101E-01  0.36933044204E-01  0.00000000000E+00 0. -1.
     999901    1    1    2    0    0 -0.14158518908E-01 -0.60322350318E-01 -0.57780514491E-01  0.88406890990E+00  0.88000000000E+00 0. -1.
        -11    1    3    3    0    0 -0.97520866293E-02  0.23474791957E-01  0.60536235941E-02  0.26135732832E-01  0.51100000000E-03 0.  1.
         11    1    3    3    0    0  0.90840704451E-02  0.47548042752E-01  0.83816191998E-01  0.96792313059E-01  0.51100000000E-03 0. -1.
</event>
<event>
 8    1  0.2257781E+004  0.1043930E+01  0.7957747E-01            NaN
         13   -1    0    0    0    0  0.00000000000E+00  0.00000000000E+00  0.74505805969E-08  0.10566000000E+00  0.10566000000E+00 0. -1.
     999900   -1    0    0    0    0 -0.00000000000E+00 -0.00000000000E+00 -0.74505805969E-08  0.93827000000E+00  0.93827000000E+00 0.  1.
     999902    2    1    2    0    0  0.33985806023E-02 -0.65026790959E-03  0.12557551275E-01  0.10309044370E+01  0.10308221441E+01 0.  0.
     999903    2    3    3    0    0  0.55018977832E-01 -0.11008890722E+00  0.53625867168E-01  0.14167550819E+00  0.45272072837E-01 0.  0.
         14    1    1    2    0    0 -0.33985806023E-02  0.65026790959E-03 -0.12557551275E-01  0.13025563039E-01  0.00000000000E+00 0.  1.
     999901    1    3    3    0    0 -0.51620397230E-01  0.10943863931E+00 -0.41068315893E-01  0.88922892877E+00  0.88000000000E+00 0. -1.
        -11    1    4    4    0    0  0.33806709612E-01 -0.88507056437E-01  0.58010678694E-01  0.11109407103E+00  0.51100000000E-03 0. -1.
         11    1    4    4    0    0  0.21212268221E-01 -0.21581850780E-01 -0.43848115254E-02  0.30581437168E-01  0.51100000000E-03 0.  1.
</event>
<event>
 8    1  0.2257781E+004  0.1043930E+01  0.7957747E-01            NaN
         13   -1    0    0    0    0  0.00000000000E+00  0.00000000000E+00  0.74505805969E-08  0.10566000000E+00  0.10566000000E+00 0. -1.
     999900   -1    0    0    0    0 -0.00000000000E+00 -0.00000000000E+00 -0.74505805969E-08  0.93827000000E+00  0.93827000000E+00 0.  1.
     999902    2    1    2    0    0 -0.11958882674E-01  0.50426393156E-02 -0.39296966807E-02  0.10303695575E+01  0.10302803207E+01 0.  0.
     999903    2    3    3    0    0  0.47043843901E-01 -0.11586374281E+00 -0.44853561696E-01  0.13920490504E+00  0.41576837825E-01 0.  0.
         14    1    1    2    0    0  0.11958882674E-01 -0.50426393156E-02  0.39296966807E-02  0.13560442547E-01  0.00000000000E+00 0.  1.
     999901    1    3    3    0    0 -0.59002726575E-01  0.12090638213E+00  0.40923865015E-01  0.89116465241E+00  0.88000000000E+00 0. -1.
        -11    1    4    4    0    0 -0.74344532217E-02 -0.12006194171E-01 -0.81664060263E-02  0.16320879313E-01  0.51100000000E-03 0.  1.
         11    1    4    4    0    0  0.54478297123E-01 -0.10385754864E+00 -0.36687155669E-01  0.12288402573E+00  0.51100000000E-03 0. -1.
</event>
<event>
 8    1  0.2257781E+004  0.1043930E+01  0.7957747E-01            NaN
         13   -1    0    0    0    0  0.00000000000E+00  0.00000000000E+00  0.74505805969E-08  0.10566000000E+00  0.10566000000E+00 0. -1.
     999900   -1    0    0    0    0 -0.00000000000E+00 -0.00000000000E+00 -0.74505805969E-08  0.93827000000E+00  0.93827000000E+00 0.  1.
     999902    2    1    2    0    0 -0.47038518738E-02  0.10595260734E-01 -0.80441202568E-02  0.10298199453E+01  0.10297232765E+01 0.  0.
     999903    2    3    3    0    0 -0.74417880720E-01 -0.68363871945E-01  0.83761753226E-01  0.13879642775E+00  0.45130666895E-01 0.  0.
         14    1    1    2    0    0  0.47038518738E-02 -0.10595260734E-01  0.80441202568E-02  0.14110054684E-01  0.00000000000E+00 0.  1.
     999901    1    3    3    0    0  0.69714028846E-01  0.78959132679E-01 -0.91805873482E-01  0.89102351757E+00  0.88000000000E+00 0.  1.
        -11    1    4    4    0    0 -0.44722677154E-01 -0.10993692194E-01  0.33785249039E-01  0.57119902779E-01  0.51100000000E-03 0. -1.
         11    1    4    4    0    0 -0.29695203566E-01 -0.57370179751E-01  0.49976504187E-01  0.81676524970E-01  0.51100000000E-03 0.  1.
</event>
<event>
 8    1  0.2257781E+004  0.1043930E+01  0.7957747E-01            NaN
         13   -1    0    0    0    0  0.00000000000E+00  0.00000000000E+00  0.74505805969E-08  0.10566000000E+00  0.10566000000E+00 0.  1.
     999900   -1    0    0    0    0 -0.00000000000E+00 -0.00000000000E+00 -0.74505805969E-08  0.93827000000E+00  0.93827000000E+00 0.  1.
     999902    2    1    2    0    0 -0.66446608604E-02  0.10413435711E-01  0.45830184360E-02  0.10307544462E+01  0.10306702349E+01 0.  0.
     999903    2    3    3    0    0 -0.16848000781E-01 -0.12053567177E+00 -0.51659822352E-01  0.13923045094E+00  0.43631157734E-01 0.  0.
         14    1    1    2    0    0  0.66446608604E-02 -0.10413435711E-01 -0.45830184360E-02  0.13175553849E-01  0.00000000000E+00 0. -1.
     999901    1    3    3    0    0  0.10203339921E-01  0.13094910748E+00  0.56242840788E-01  0.89152399521E+00  0.88000000000E+00 0. -1.
        -11    1    4    4    0    0 -0.14548231180E-01 -0.19131447908E-01 -0.24281333234E-01  0.34168810254E-01  0.51100000000E-03 0.  1.
         11    1    4    4    0    0 -0.22997696008E-02 -0.10140422386E+00 -0.27378489118E-01  0.10506164069E+00  0.51100000000E-03 0. -1.
</event>
<event>
 8    1  0.2257781E+004  0.1043930E+01  0.7957747E-01            NaN
         13   -1    0    0    0    0  0.00000000000E+00  0.00000000000E+00  0.74505805969E-08  0.10566000000E+00  0.10566000000E+00 0.  1.
     999900   -1    0    0    0    0 -0.00000000000E+00 -0.00000000000E+00 -0.74505805969E-08  0.93827000000E+00  0.93827000000E+00 0. -1.
     999902    2    1    2    0    0 -0.13534247500E-01  0.12680608191E-02 -0.11555348527E-02  0.10302874528E+01  0.10301971250E+01 0.  0.
     999903    2    3    3    0    0 -0.23711143187E-01  0.81764464506E-01 -0.10274637031E+00  0.14073479102E+00  0.44741689988E-01 0.  0.
         14    1    1    2    0    0  0.13534247500E-01 -0.12680608191E-02  0.11555348527E-02  0.13642547212E-01  0.00000000000E+00 0.  1.
     999901    1    3    3    0    0  0.10176895687E-01 -0.80496403687E-01  0.10159083546E+00  0.88955266177E+00  0.88000000000E+00 0.  1.
        -11    1    4    4    0    0  0.55725143656E-02  0.50276985351E-01 -0.39165097514E-01  0.63976512538E-01  0.51100000000E-03 0.  1.
         11    1    4    4    0    0 -0.29283657553E-01  0.31487479155E-01 -0.63581272800E-01  0.76758278480E-01  0.51100000000E-03 0. -1.
</event>
<event>
 8    1  0.2257781E+004  0.1043930E+01  0.7957747E-01            NaN
         13   -1    0    0    0    0  0.00000000000E+00  0.00000000000E+00  0.74505805969E-08  0.10566000000E+00  0.10566000000E+00 0.  1.
     999900   -1    0    0    0    0 -0.00000000000E+00 -0.00000000000E+00 -0.74505805969E-08  0.93827000000E+00  0.93827000000E+00 0. -1.
     999902    2    1    2    0    0 -0.36763463945E-02  0.27149352743E-02  0.13776259836E-01  0.10294154648E+01  0.10293131338E+01 0.  0.
     999903    2    3    3    0    0 -0.12377823626E+00  0.22074034038E-01  0.44054469487E-01  0.14053076553E+00  0.44718956044E-01 0.  0.
         14    1    1    2    0    0  0.36763463945E-02 -0.27149352743E-02 -0.13776259836E-01  0.14514535178E-01  0.00000000000E+00 0. -1.
     999901    1    3    3    0    0  0.12010188986E+00 -0.19359098763E-01 -0.30278209651E-01  0.88888469929E+00  0.88000000000E+00 0.  1.
        -11    1    4    4    0    0 -0.41152534199E-01  0.11400320629E-01  0.37716398926E-01  0.56976190206E-01  0.51100000000E-03 0.  1.
         11    1    4    4    0    0 -0.82625702057E-01  0.10673713409E-01  0.63380705611E-02  0.83554575326E-01  0.51100000000E-03 0. -1.
</event>
<event>
 8    1  0.2257781E+004  0.1043930E+01  0.7957747E-01            NaN
         13   -1    0    0    0    0  0.00000000000E+00  0.00000000000E+00  0.74505805969E-08  0.10566000000E+00  0.10566000000E+00 0.  1.
     999900   -1    0    0    0    0 -0.00000000000E+00 -0.00000000000E+00 -0.74505805969E-08  0.93827000000E+00  0.93827000000E+00 0. -1.
     999902    2    1    2    0    0 -0.39274360790E-02 -0.14733812583E-01  0.20329486895E-03  0.10286803667E+01  0.10285673267E+01 0.  0.
     999903    2    3    3    0    0  0.80168068164E-01 -0.86036998518E-01 -0.60866324555E-01  0.13970022260E+00  0.44521438243E-01 0.  0.
         14    1    1    2    0    0  0.39274360790E-02  0.14733812583E-01 -0.20329486895E-03  0.15249633314E-01  0.00000000000E+00 0. -1.
     999901    1    3    3    0    0 -0.84095504243E-01  0.71303185934E-01  0.61069619424E-01  0.88898014408E+00  0.88000000000E+00 0.  1.
        -11    1    4    4    0    0  0.49301523333E-01 -0.49155747718E-01 -0.11117935540E-01  0.70503881796E-01  0.51100000000E-03 0. -1.
         11    1    4    4    0    0  0.30866544832E-01 -0.36881250800E-01 -0.49748389016E-01  0.69196340807E-01  0.51100000000E-03 0.  1.
</event>
<event>
 8    1  0.2257781E+004  0.1043930E+01  0.7957747E-01            NaN
         13   -1    0    0    0    0  0.00000000000E+00  0.00000000000E+00  0.74505805969E-08  0.10566000000E+00  0.10566000000E+00 0.  1.
     999900   -1    0    0    0    0 -0.00000000000E+00 -0.00000000000E+00 -0.74505805969E-08  0.93827000000E+00  0.93827000000E+00 0.  1.
     999902    2    1    2    0    0  0.11255673501E-01 -0.36153285265E-02 -0.65579435384E-02  0.10304108503E+01  0.10303221598E+01 0.  0.
     999903    2    3    3    0    0  0.25170761413E-01  0.12500363877E+00 -0.36713053794E-01  0.14044130073E+00  0.46004713838E-01 0.  0.
         14    1    1    2    0    0 -0.11255673501E-01  0.36153285265E-02  0.65579435384E-02  0.13519149743E-01  0.00000000000E+00 0.  1.
     999901    1    3    3    0    0 -0.13915087912E-01 -0.12861896729E+00  0.30155110255E-01  0.88996954953E+00  0.88000000000E+00 0. -1.
        -11    1    4    4    0    0  0.19974689620E-02  0.10434767110E-01  0.99655441672E-02  0.14575576779E-01  0.51100000000E-03 0.  1.
         11    1    4    4    0    0  0.23173292451E-01  0.11456887166E+00 -0.46678597961E-01  0.12586572395E+00  0.51100000000E-03 0. -1.
</event>
<event>
 8    1  0.2257781E+004  0.1043930E+01  0.7957747E-01            NaN
         13   -1    0    0    0    0  0.00000000000E+00  0.00000000000E+00  0.74505805969E-08  0.10566000000E+00  0.10566000000E+00 0. -1.
     999900   -1    0    0    0    0 -0.00000000000E+00 -0.00000000000E+00 -0.74505805969E-08  0.93827000000E+00  0.93827000000E+00 0.  1.
     999902    2    1    2    0    0 -0.87534546302E-02  0.86542092168E-02  0.53200818142E-02  0.10305202433E+01  0.10304329916E+01 0.  0.
     999903    2    3    3    0    0 -0.59055446457E-01  0.37151037002E-02 -0.11907251724E+00  0.14033587818E+00  0.44883700739E-01 0.  0.
         14    1    1    2    0    0  0.87534546302E-02 -0.86542092168E-02 -0.53200818142E-02  0.13409756733E-01  0.00000000000E+00 0.  1.
     999901    1    3    3    0    0  0.50301991826E-01  0.49391055166E-02  0.12439259905E+00  0.89018436509E+00  0.88000000000E+00 0. -1.
        -11    1    4    4    0    0 -0.16273501172E-01  0.22177880971E-01 -0.39850766514E-01  0.48425509367E-01  0.51100000000E-03 0.  1.
         11    1    4    4    0    0 -0.42781945284E-01 -0.18462777270E-01 -0.79221750723E-01  0.91910368814E-01  0.51100000000E-03 0. -1.
</event>
<event>
 8    1  0.2257781E+004  0.1043930E+01  0.7957747E-01            NaN
         13   -1    0    0    0    0  0.00000000000E+00  0.00000000000E+00  0.74505805969E-08  0.10566000000E+00  0.10566000000E+00 0. -1.
     999900   -1    0    0    0    0 -0.00000000000E+00 -0.00000000000E+00 -0.74505805969E-08  0.93827000000E+00  0.93827000000E+00 0. -1.
     999902    2    1    2    0    0  0.66898211899E-02 -0.84269409839E-02 -0.74756771976E-02  0.10308283668E+01  0.10307451038E+01 0.  0.
     999903    2    3    3    0    0  0.74017815640E-01  0.11068169460E+00 -0.89849934069E-02  0.14025428012E+00  0.43144622290E-01 0.  0.
         14    1    1    2    0    0 -0.66898211899E-02  0.84269409839E-02  0.74756771976E-02  0.13101633160E-01  0.00000000000E+00 0. -1.
     999901    1    3    3    0    0 -0.67327994450E-01 -0.11910863559E+00  0.15093162093E-02  0.89057408672E+00  0.88000000000E+00 0.  1.
        -11    1    4    4    0    0  0.12206198419E-01  0.36013925698E-01  0.14185865051E-01  0.40589333726E-01  0.51100000000E-03 0. -1.
         11    1    4    4    0    0  0.61811617221E-01  0.74667768903E-01 -0.23170858458E-01  0.99664946391E-01  0.51100000000E-03 0.  1.
</event>
<event>
 8    1  0.2257781E+004  0.1043930E+01  0.7957747E-01            NaN
         13   -1    0    0    0    0  0.00000000000E+00  0.00000000000E+00  0.74505805969E-08  0.10566000000E+00  0.10566000000E+00 0. -1.
     999900   -1    0    0    0    0 -0.00000000000E+00 -0.00000000000E+00 -0.74505805969E-08  0.93827000000E+00  0.93827000000E+00 0.  1.
     999902    2    1    2    0    0  0.13271126347E-01 -0.20969817846E-02  0.15417492224E-02  0.10304060539E+01  0.10303173001E+01 0.  0.
     999903    2    3    3    0    0 -0.41827617651E-01 -0.12392133892E+00  0.21143781727E-01  0.14009078096E+00  0.45522736800E-01 0.  0.
         14    1    1    2    0    0 -0.13271126347E-01  0.20969817846E-02 -0.15417492224E-02  0.13523946088E-01  0.00000000000E+00 0.  1.
     999901    1    3    3    0    0  0.55098743998E-01  0.12182435713E+00 -0.19602032505E-01  0.89031527296E+00  0.88000000000E+00 0.  1.
        -11    1    4    4    0    0 -0.38440574226E-01 -0.93388130517E-01 -0.29671772412E-02  0.10103507277E+00  0.51100000000E-03 0. -1.
         11    1    4    4    0    0 -0.33870434249E-02 -0.30533208400E-01  0.24110958968E-01  0.39055708183E-01  0.51100000000E-03 0.  1.
</event>
<event>
 8    1  0.2257781E+004  0.1043930E+01  0.7957747E-01            NaN
         13   -1    0    0    0    0  0.00000000000E+00  0.00000000000E+00  0.74505805969E-08  0.10566000000E+00  0.10566000000E+00 0.  1.
     999900   -1    0    0    0    0 -0.00000000000E+00 -0.00000000000E+00 -0.74505805969E-08  0.93827000000E+00  0.93827000000E+00 0.  1.
     999902    2    1    2    0    0  0.49846795050E-02  0.16669616632E-02  0.12538413038E-01  0.10303345010E+01  0.10302447993E+01 0.  0.
     999903    2    3    3    0    0  0.11389895791E+00  0.47165316138E-01  0.52442799586E-01  0.14155737465E+00  0.45724210543E-01 0.  0.
         14    1    1    2    0    0 -0.49846795050E-02 -0.16669616632E-02 -0.12538413038E-01  0.13595498978E-01  0.00000000000E+00 0. -1.
     999901    1    3    3    0    0 -0.10891427840E+00 -0.45498354475E-01 -0.39904386548E-01  0.88877712637E+00  0.88000000000E+00 0.  1.
        -11    1    4    4    0    0  0.10594374685E+00  0.30778281814E-01  0.54794581950E-01  0.12318314600E+00  0.51100000000E-03 0.  1.
         11    1    4    4    0    0  0.79552110604E-02  0.16387034324E-01 -0.23517823633E-02  0.18374228643E-01  0.51100000000E-03 0. -1.
</event>
<event>
 8    1  0.2257781E+004  0.1043930E+01  0.7957747E-01            NaN
         13   -1    0    0    0    0  0.00000000000E+00  0.00000000000E+00  0.74505805969E-08  0.10566000000E+00  0.10566000000E+00 0. -1.
     999900   -1    0    0    0    0 -0.00000000000E+00 -0.00000000000E+00 -0.74505805969E-08  0.93827000000E+00  0.93827000000E+00 0. -1.
     999902    2    1    2    0    0 -0.13346719499E-01 -0.11881013485E-02  0.25029109177E-02  0.10302987466E+01  0.10302085693E+01 0.  0.
     999903    2    3    3    0    0 -0.74677331715E-01  0.23415692285E-01 -0.10793375689E+00  0.14093771291E+00  0.45702784656E-01 0.  0.
         14    1    1    2    0    0  0.13346719499E-01  0.11881013485E-02 -0.25029109177E-02  0.13631253401E-01  0.00000000000E+00 0.  1.
     999901    1    3    3    0    0  0.61330612216E-01 -0.24603793633E-01  0.11043666781E+00  0.88936103369E+00  0.88000000000E+00 0.  1.
        -11    1    4    4    0    0 -0.75261725261E-01  0.21846823835E-01 -0.76708466443E-01  0.10966339839E+00  0.51100000000E-03 0.  1.
         11    1    4    4    0    0  0.58439354555E-03  0.15688684494E-02 -0.31225290447E-01  0.31274314518E-01  0.51100000000E-03 0. -1.
</event>
<event>
 8    1  0.2257781E+004  0.1043930E+01  0.7957747E-01            NaN
         13   -1    0    0    0    0  0.00000000000E+00  0.00000000000E+00  0.74505805969E-08  0.10566000000E+00  0.10566000000E+00 0.  1.
     999900   -1    0    0    0    0 -0.00000000000E+00 -0.00000000000E+00 -0.74505805969E-08  0.93827000000E+00  0.93827000000E+00 0. -1.
     999902    2    1    2    0    0  0.11674602747E-01  0.29064609146E-02 -0.39854209318E-02  0.10312561117E+01  0.10311782293E+01 0.  0.
     999903    2    3    3    0    0 -0.80236355019E-01 -0.81075072362E-01  0.66267631401E-01  0.13972035054E+00  0.46036261334E-01 0.  0.
         14    1    1    2    0    0 -0.11674602747E-01 -0.29064609146E-02  0.39854209318E-02  0.12673888289E-01  0.00000000000E+00 0.  1.
     999901    1    3    3    0    0  0.91910957766E-01  0.83981533277E-01 -0.70253052332E-01  0.89153576117E+00  0.88000000000E+00 0. -1.
        -11    1    4    4    0    0 -0.67973478557E-01 -0.76932887330E-01  0.39527635926E-01  0.11000799091E+00  0.51100000000E-03 0. -1.
         11    1    4    4    0    0 -0.12262876462E-01 -0.41421850322E-02  0.26739995474E-01  0.29712359633E-01  0.51100000000E-03 0.  1.
</event>
<event>
 8    1  0.2257781E+004  0.1043930E+01  0.7957747E-01            NaN
         13   -1    0    0    0    0  0.00000000000E+00  0.00000000000E+00  0.74505805969E-08  0.10566000000E+00  0.10566000000E+00 0.  1.
     999900   -1    0    0    0    0 -0.00000000000E+00 -0.00000000000E+00 -0.74505805969E-08  0.93827000000E+00  0.93827000000E+00 0.  1.
     999902    2    1    2    0    0 -0.12156693095E-01 -0.53550298664E-02  0.38298493353E-02  0.10301050487E+01  0.10300122728E+01 0.  0.
     999903    2    3    3    0    0 -0.90119092952E-01  0.45088558089E-01 -0.87053674300E-01  0.14056443345E+00  0.45006541261E-01 0.  0.
         14    1    1    2    0    0  0.12156693095E-01  0.53550298664E-02 -0.38298493353E-02  0.13824951277E-01  0.00000000000E+00 0. -1.
     999901    1    3    3    0    0  0.77962399857E-01 -0.50443587956E-01  0.90883523635E-01  0.88954061528E+00  0.88000000000E+00 0. -1.
        -11    1    4    4    0    0 -0.62675284405E-01  0.51837453173E-01 -0.71536701704E-01  0.10831931332E+00  0.51100000000E-03 0. -1.
         11    1    4    4    0    0 -0.27443808547E-01 -0.67488950839E-02 -0.15516972596E-01  0.32245120126E-01  0.51100000000E-03 0.  1.
</event>
<event>
 8    1  0.2257781E+004  0.1043930E+01  0.7957747E-01            NaN
         13   -1    0    0    0    0  0.00000000000E+00  0.00000000000E+00  0.74505805969E-08  0.10566000000E+00  0.10566000000E+00 0.  1.
     999900   -1    0    0    0    0 -0.00000000000E+00 -0.00000000000E+00 -0.74505805969E-08  0.93827000000E+00  0.93827000000E+00 0. -1.
     999902    2    1    2    0    0  0.52127808021E-02 -0.12982183604E-01  0.62944693538E-02  0.10285895137E+01  0.10284751126E+01 0.  0.
     999903    2    3    3    0    0 -0.12808937091E+00  0.17293206366E-01 -0.15120151472E-01  0.13777828295E+00  0.45258085972E-01 0.  0.
         14    1    1    2    0    0 -0.52127808021E-02  0.12982183604E-01 -0.62944693538E-02  0.15340486279E-01  0.00000000000E+00 0.  1.
     999901    1    3    3    0    0  0.13330215171E+00 -0.30275389971E-01  0.21414620825E-01  0.89081123077E+00  0.88000000000E+00 0.  1.
        -11    1    4    4    0    0 -0.63844343225E-01  0.10248971242E-01 -0.30264421052E-01  0.71395643256E-01  0.51100000000E-03 0.  1.
         11    1    4    4    0    0 -0.64245027681E-01  0.70442351248E-02  0.15144269581E-01  0.66382639691E-01  0.51100000000E-03 0. -1.
</event>
<event>
 8    1  0.2257781E+004  0.1043930E+01  0.7957747E-01            NaN
         13   -1    0    0    0    0  0.00000000000E+00  0.00000000000E+00  0.74505805969E-08  0.10566000000E+00  0.10566000000E+00 0. -1.
     999900   -1    0    0    0    0 -0.00000000000E+00 -0.00000000000E+00 -0.74505805969E-08  0.93827000000E+00  0.93827000000E+00 0. -1.
     999902    2    1    2    0    0  0.10684330270E-01 -0.13071322919E-02 -0.11420908036E-01  0.10282360315E+01  0.10281162559E+01 0.  0.
     999903    2    3    3    0    0 -0.20605127479E-01  0.12880060988E+00  0.15954244429E-02  0.13802455117E+00  0.45100587166E-01 0.  0.
         14    1    1    2    0    0 -0.10684330270E-01  0.13071322919E-02  0.11420908036E-01  0.15693968539E-01  0.00000000000E+00 0. -1.
     999901    1    3    3    0    0  0.31289457748E-01 -0.13010774217E+00 -0.13016332479E-01  0.89021148030E+00  0.88000000000E+00 0. -1.
        -11    1    4    4    0    0 -0.30028327058E-01  0.50121374115E-01 -0.41203188832E-02  0.58575512953E-01  0.51100000000E-03 0. -1.
         11    1    4    4    0    0  0.94231995789E-02  0.78679235760E-01  0.57157433261E-02  0.79449038212E-01  0.51100000000E-03 0.  1.
</event>
<event>
 8    1  0.2257781E+004  0.1043930E+01  0.7957747E-01            NaN
         13   -1    0    0    0    0  0.00000000000E+00  0.00000000000E+00  0.74505805969E-08  0.10566000000E+00  0.10566000000E+00 0.  1.
     999900   -1    0    0    0    0 -0.00000000000E+00 -0.00000000000E+00 -0.74505805969E-08  0.93827000000E+00  0.93827000000E+00 0. -1.
     999902    2    1    2    0    0  0.12485766721E-01  0.84844172953E-02 -0.67960675679E-02  0.10273750539E+01  0.10272416634E+01 0.  0.
     999903    2    3    3    0    0  0.12300354903E+00 -0.45942097181E-01  0.13061850547E-03  0.13876692613E+00  0.44896473789E-01 0.  0.
         14    1    1    2    0    0 -0.12485766721E-01 -0.84844172953E-02  0.67960675679E-02  0.16554946144E-01  0.00000000000E+00 0.  1.
     999901    1    3    3    0    0 -0.11051778231E+00  0.54426514477E-01 -0.69266860734E-02  0.88860812773E+00  0.88000000000E+00 0. -1.
        -11    1    4    4    0    0  0.48262334739E-01 -0.36307213204E-01  0.14345204930E-01  0.62076668005E-01  0.51100000000E-03 0. -1.
         11    1    4    4    0    0  0.74741214289E-01 -0.96348839772E-02 -0.14214586425E-01  0.76690258122E-01  0.51100000000E-03 0.  1.
</event>
<event>
 8    1  0.2257781E+004  0.1043930E+01  0.7957747E-01            NaN
         13   -1    0    0    0    0  0.00000000000E+00  0.00000000000E+00  0.74505805969E-08  0.10566000000E+00  0.10566000000E+00 0.  1.
     999900   -1    0    0    0    0 -0.00000000000E+00 -0.00000000000E+00 -0.74505805969E-08  0.93827000000E+00  0.93827000000E+00 0.  1.
     999902    2    1    2    0    0 -0.34434022726E-02  0.83368417477E-03 -0.13470134645E-01  0.10300017346E+01  0.10299075574E+01 0.  0.
     999903    2    3    3    0    0 -0.15876845333E-01 -0.88640042792E-01  0.96195110700E-01  0.13860586054E+00  0.42999463376E-01 0.  0.
         14    1    1    2    0    0  0.34434022726E-02 -0.83368417477E-03  0.13470134645E-01  0.13928265358E-01  0.00000000000E+00 0.  1.
     999901    1    3    3    0    0  0.12433443060E-01  0.89473726967E-01 -0.10966524534E+00  0.89139587410E+00  0.88000000000E+00 0. -1.
        -11    1    4    4    0    0 -0.16952401798E-01 -0.35482787073E-01  0.16159319687E-01  0.42518194210E-01  0.51100000000E-03 0.  1.
         11    1    4    4    0    0  0.10755564649E-02 -0.53157255719E-01  0.80035791013E-01  0.96087666333E-01  0.51100000000E-03 0. -1.
</event>
<event>
 8    1  0.2257781E+004  0.1043930E+01  0.7957747E-01            NaN
         13   -1    0    0    0    0  0.00000000000E+00  0.00000000000E+00  0.74505805969E-08  0.10566000000E+00  0.10566000000E+00 0. -1.
     999900   -1    0    0    0    0 -0.00000000000E+00 -0.00000000000E+00 -0.74505805969E-08  0.93827000000E+00  0.93827000000E+00 0.  1.
     999902    2    1    2    0    0 -0.80113476167E-02  0.11157720430E-02 -0.10882312521E-01  0.10303708199E+01  0.10302816000E+01 0.  0.
     999903    2    3    3    0    0  0.50676048756E-01  0.11444063923E+00  0.44551765486E-01  0.13943890727E+00  0.42351236449E-01 0.  0.
         14    1    1    2    0    0  0.80113476167E-02 -0.11157720430E-02  0.10882312521E-01  0.13559180053E-01  0.00000000000E+00 0. -1.
     999901    1    3    3    0    0 -0.58687396373E-01 -0.11332486719E+00 -0.55434078007E-01  0.89093191267E+00  0.88000000000E+00 0.  1.
        -11    1    4    4    0    0  0.31098144526E-01  0.24951909638E-01  0.72458076342E-02  0.40527216001E-01  0.51100000000E-03 0. -1.
         11    1    4    4    0    0  0.19577904230E-01  0.89488729592E-01  0.37305957852E-01  0.98911691272E-01  0.51100000000E-03 0.  1.
</event>
<event>
 8    1  0.2257781E+004  0.1043930E+01  0.7957747E-01            NaN
         13   -1    0    0    0    0  0.00000000000E+00  0.00000000000E+00  0.74505805969E-08  0.10566000000E+00  0.10566000000E+00 0.  1.
     999900   -1    0    0    0    0 -0.00000000000E+00 -0.00000000000E+00 -0.74505805969E-08  0.93827000000E+00  0.93827000000E+00 0.  1.
     999902    2    1    2    0    0 -0.92990659586E-02 -0.10328880833E-01  0.78533043289E-03  0.10300096857E+01  0.10299156167E+01 0.  0.
     999903    2    3    3    0    0  0.10549839665E+00 -0.63176015474E-01  0.48462117472E-01  0.13970392186E+00  0.45249180385E-01 0.  0.
         14    1    1    2    0    0  0.92990659586E-02  0.10328880833E-01 -0.78533043289E-03  0.13920314323E-01  0.00000000000E+00 0.  1.
     999901    1    3    3    0    0 -0.11479746261E+00  0.52847134641E-01 -0.47676787039E-01  0.89030576382E+00  0.88000000000E+00 0. -1.
        -11    1    4    4    0    0  0.72392642957E-01 -0.33388212956E-01  0.51748760088E-01  0.95045582803E-01  0.51100000000E-03 0.  1.
         11    1    4    4    0    0  0.33105753698E-01 -0.29787802518E-01 -0.32866426157E-02  0.44658339058E-01  0.51100000000E-03 0. -1.
</event>
<event>
 8    1  0.2257781E+004  0.1043930E+01  0.7957747E-01            NaN
         13   -1    0    0    0    0  0.00000000000E+00  0.00000000000E+00  0.74505805969E-08  0.10566000000E+00  0.10566000000E+00 0.  1.
     999900   -1    0    0    0    0 -0.00000000000E+00 -0.00000000000E+00 -0.74505805969E-08  0.93827000000E+00  0.93827000000E+00 0.  1.
     999902    2    1    2    0    0 -0.16485475102E-02  0.17433518223E-01 -0.36468025948E-03  0.10264149134E+01  0.10262654609E+01 0.  0.
     999903    2    3    3    0    0  0.18226988679E-01  0.11441852912E+00 -0.61826100229E-01  0.13873330640E+00  0.44728522366E-01 0.  0.
         14    1    1    2    0    0  0.16485475102E-02 -0.17433518223E-01  0.36468025948E-03  0.17515086589E-01  0.00000000000E+00 0.  1.
     999901    1    3    3    0    0 -0.19875536189E-01 -0.96985010898E-01  0.61461419970E-01  0.88768160701E+00  0.88000000000E+00 0. -1.
        -11    1    4    4    0    0  0.36971504301E-02  0.24791896887E-01 -0.36836759362E-01  0.44559118414E-01  0.51100000000E-03 0. -1.
         11    1    4    4    0    0  0.14529838249E-01  0.89626632234E-01 -0.24989340867E-01  0.94174187987E-01  0.51100000000E-03 0.  1.
</event>
<event>
 7    1  0.2257781E+004  0.1043930E+01  0.7957747E-01            NaN
         13   -1    0    0    0    0  0.00000000000E+00  0.00000000000E+00  0.74505805969E-08  0.10566000000E+00  0.10566000000E+00 0.  1.
     999900   -1    0    0    0    0 -0.00000000000E+00 -0.00000000000E+00 -0.74505805969E-08  0.93827000000E+00  0.93827000000E+00 0. -1.
     999903    2    1    2    0    0 -0.90793322398E-01  0.22214529113E-01  0.34039569006E-01  0.10893986211E+00  0.44410456012E-01 0.  0.
         14    1    1    2    0    0 -0.10183766217E-02 -0.26213555656E-01 -0.42755230924E-01  0.50161712116E-01  0.00000000000E+00 0. -1.
     999901    1    1    2    0    0  0.91811699020E-01  0.39990265433E-02  0.87156619181E-02  0.88482842577E+00  0.88000000000E+00 0.  1.
        -11    1    3    3    0    0 -0.74711469281E-01  0.14638173804E-01  0.68376595531E-02  0.76440136601E-01  0.51100000000E-03 0.  1.
         11    1    3    3    0    0 -0.16081853118E-01  0.75763553089E-02  0.27201909453E-01  0.32499725512E-01  0.51100000000E-03 0. -1.
</event>
<event>
 8    1  0.2257781E+004  0.1043930E+01  0.7957747E-01            NaN
         13   -1    0    0    0    0  0.00000000000E+00  0.00000000000E+00  0.74505805969E-08  0.10566000000E+00  0.10566000000E+00 0.  1.
     999900   -1    0    0    0    0 -0.00000000000E+00 -0.00000000000E+00 -0.74505805969E-08  0.93827000000E+00  0.93827000000E+00 0.  1.
     999902    2    1    2    0    0  0.10465730095E-01 -0.78202863677E-02  0.41053049831E-02  0.10302354057E+01  0.10301443827E+01 0.  0.
     999903    2    3    3    0    0  0.67287713076E-01 -0.58535886897E-01 -0.99401630110E-01  0.14090166880E+00  0.44927828987E-01 0.  0.
         14    1    1    2    0    0 -0.10465730095E-01  0.78202863677E-02 -0.41053049831E-02  0.13694594346E-01  0.00000000000E+00 0. -1.
     999901    1    3    3    0    0 -0.56821982982E-01  0.50715600530E-01  0.10350693509E+00  0.88933373685E+00  0.88000000000E+00 0. -1.
        -11    1    4    4    0    0  0.69863810466E-01 -0.63245403143E-01 -0.96001531222E-01  0.13452690493E+00  0.51100000000E-03 0. -1.
         11    1    4    4    0    0 -0.25760973897E-02  0.47095162459E-02 -0.34000988879E-02  0.63747638764E-02  0.51100000000E-03 0.  1.
</event>
<event>
 8    1  0.2257781E+004  0.1043930E+01  0.7957747E-01            NaN
         13   -1    0    0    0    0  0.00000000000E+00  0.00000000000E+00  0.74505805969E-08  0.10566000000E+00  0.10566000000E+00 0. -1.
     999900   -1    0    0    0    0 -0.00000000000E+00 -0.00000000000E+00 -0.74505805969E-08  0.93827000000E+00  0.93827000000E+00 0. -1.
     999902    2    1    2    0    0  0.10682759713E-01  0.21462137168E-01  0.49408792225E-02  0.10194523168E+01  0.10191584123E+01 0.  0.
     999903    2    3    3    0    0  0.10934735608E+00  0.18025716860E-01 -0.55495672766E-01  0.13187184813E+00  0.45040469401E-01 0.  0.
         14    1    1    2    0    0 -0.10682759713E-01 -0.21462137168E-01 -0.49408792225E-02  0.24477683191E-01  0.00000000000E+00 0. -1.
     999901    1    3    3    0    0 -0.98664596368E-01  0.34364203083E-02  0.60436551989E-01  0.88758046868E+00  0.88000000000E+00 0.  1.
        -11    1    4    4    0    0  0.80101983717E-01  0.27153543589E-01 -0.55621318204E-01  0.10123060251E+00  0.51100000000E-03 0.  1.
         11    1    4    4    0    0  0.29245372363E-01 -0.91278267295E-02  0.12564543779E-03  0.30641245621E-01  0.51100000000E-03 0. -1.
</event>
<event>
 8    1  0.2257781E+004  0.1043930E+01  0.7957747E-01            NaN
         13   -1    0    0    0    0  0.00000000000E+00  0.00000000000E+00  0.74505805969E-08  0.10566000000E+00  0.10566000000E+00 0.  1.
     999900   -1    0    0    0    0 -0.00000000000E+00 -0.00000000000E+00 -0.74505805969E-08  0.93827000000E+00  0.93827000000E+00 0.  1.
     999902    2    1    2    0    0 -0.11154446224E-01  0.73974978761E-02 -0.33650781083E-02  0.10301289712E+01  0.10300365182E+01 0.  0.
     999903    2    3    3    0    0 -0.65019388906E-02  0.10144848323E+00 -0.87017230312E-01  0.14116051493E+00  0.44946886918E-01 0.  0.
         14    1    1    2    0    0  0.11154446224E-01 -0.73974978761E-02  0.33650781083E-02  0.13801028805E-01  0.00000000000E+00 0. -1.
     999901    1    3    3    0    0 -0.46525073334E-02 -0.94050985357E-01  0.83652152204E-01  0.88896845627E+00  0.88000000000E+00 0. -1.
        -11    1    4    4    0    0  0.15241154610E-01  0.20996128503E-01 -0.32430362184E-01  0.41534560529E-01  0.51100000000E-03 0.  1.
         11    1    4    4    0    0 -0.21743093501E-01  0.80452354731E-01 -0.54586868128E-01  0.99625954398E-01  0.51100000000E-03 0. -1.
</event>
<event>
 8    1  0.2257781E+004  0.1043930E+01  0.7957747E-01            NaN
         13   -1    0    0    0    0  0.00000000000E+00  0.00000000000E+00  0.74505805969E-08  0.10566000000E+00  0.10566000000E+00 0. -1.
     999900   -1    0    0    0    0 -0.00000000000E+00 -0.00000000000E+00 -0.74505805969E-08  0.93827000000E+00  0.93827000000E+00 0.  1.
     999902    2    1    2    0    0  0.91317668182E-02 -0.10874653367E-01 -0.84343238978E-03  0.10297047187E+01  0.10296064535E+01 0.  0.
     999903    2    3    3    0    0 -0.37617402327E-01  0.40504581803E-01 -0.11901553533E+00  0.13909259403E+00  0.46112492427E-01 0.  0.
         14    1    1    2    0    0 -0.91317668182E-02  0.10874653367E-01  0.84343238978E-03  0.14225281343E-01  0.00000000000E+00 0. -1.
     999901    1    3    3    0    0  0.46749169146E-01 -0.51379235170E-01  0.11817210294E+00  0.89061212463E+00  0.88000000000E+00 0. -1.
        -11    1    4    4    0    0 -0.14669060449E-01  0.42232187282E-01 -0.53911386101E-01  0.70038829583E-01  0.51100000000E-03 0. -1.
         11    1    4    4    0    0 -0.22948341878E-01 -0.17276054792E-02 -0.65104149233E-01  0.69053764445E-01  0.51100000000E-03 0.  1.
</event>
<event>
 8    1  0.2257781E+004  0.1043930E+01  0.7957747E-01            NaN
         13   -1    0    0    0    0  0.00000000000E+00  0.00000000000E+00  0.74505805969E-08  0.10566000000E+00  0.10566000000E+00 0.  1.
     999900   -1    0    0    0    0 -0.00000000000E+00 -0.00000000000E+00 -0.74505805969E-08  0.93827000000E+00  0.93827000000E+00 0. -1.
     999902    2    1    2    0    0 -0.12558402077E-01  0.15158402323E-02 -0.54918060347E-02  0.10301397437E+01  0.10300474360E+01 0.  0.
     999903    2    3    3    0    0 -0.53227315654E-01  0.53848641427E-01  0.10924321549E+00  0.14022019244E+00  0.44663171889E-01 0.  0.
         14    1    1    2    0    0  0.12558402077E-01 -0.15158402323E-02  0.54918060347E-02  0.13790256266E-01  0.00000000000E+00 0. -1.
     999901    1    3    3    0    0  0.40668913576E-01 -0.52332801195E-01 -0.11473502152E+00  0.88991955129E+00  0.88000000000E+00 0. -1.
        -11    1    4    4    0    0 -0.19679653128E-01  0.43743421328E-01  0.85031222395E-01  0.97628610354E-01  0.51100000000E-03 0. -1.
         11    1    4    4    0    0 -0.33547662525E-01  0.10105220099E-01  0.24211993090E-01  0.42591582086E-01  0.51100000000E-03 0.  1.
</event>
<event>
 8    1  0.2257781E+004  0.1043930E+01  0.7957747E-01            NaN
         13   -1    0    0    0    0  0.00000000000E+00  0.00000000000E+00  0.74505805969E-08  0.10566000000E+00  0.10566000000E+00 0. -1.
     999900   -1    0    0    0    0 -0.00000000000E+00 -0.00000000000E+00 -0.74505805969E-08  0.93827000000E+00  0.93827000000E+00 0.  1.
     999902    2    1    2    0    0  0.12325214257E-01 -0.53287613051E-02  0.69504174417E-02  0.10288099833E+01  0.10286988708E+01 0.  0.
     999903    2    3    3    0    0 -0.22473508762E-01 -0.86015847228E-01  0.10055762703E+00  0.13949357914E+00  0.37984703460E-01 0.  0.
         14    1    1    2    0    0 -0.12325214257E-01  0.53287613051E-02 -0.69504174417E-02  0.15120016738E-01  0.00000000000E+00 0.  1.
     999901    1    3    3    0    0  0.34798723019E-01  0.80687085923E-01 -0.93607209586E-01  0.88931640412E+00  0.88000000000E+00 0.  1.
        -11    1    4    4    0    0 -0.71034374256E-02 -0.14509749977E-01  0.44489705233E-01  0.47334835590E-01  0.51100000000E-03 0. -1.
         11    1    4    4    0    0 -0.15370071337E-01 -0.71506097251E-01  0.56067921794E-01  0.92158743548E-01  0.51100000000E-03 0.  1.
</event>
<event>
 7    1  0.2257781E+004  0.1043930E+01  0.7957747E-01            NaN
         13   -1    0    0    0    0  0.00000000000E+00  0.00000000000E+00  0.74505805969E-08  0.10566000000E+00  0.10566000000E+00 0.  1.
     999900   -1    0    0    0    0 -0.00000000000E+00 -0.00000000000E+00 -0.74505805969E-08  0.93827000000E+00  0.93827000000E+00 0. -1.
     999903    2    1    2    0    0  0.89896415409E-01  0.43170690666E-01  0.40994419441E-01  0.11670406432E+00  0.44656714694E-01 0.  0.
         14    1    1    2    0    0 -0.36471982977E-01 -0.18520873597E-01  0.14794889234E-01  0.43498471795E-01  0.00000000000E+00 0.  1.
     999901    1    1    2    0    0 -0.53424432432E-01 -0.24649817069E-01 -0.55789308676E-01  0.88372746389E+00  0.88000000000E+00 0. -1.
        -11    1    3    3    0    0  0.55078518711E-01  0.43573134542E-01  0.11705375634E-01  0.71200689723E-01  0.51100000000E-03 0.  1.
         11    1    3    3    0    0  0.34817896698E-01 -0.40244387584E-03  0.29289043807E-01  0.45503374597E-01  0.51100000000E-03 0. -1.
</event>
<event>
 7    1  0.2257781E+004  0.1043930E+01  0.7957747E-01            NaN
         13   -1    0    0    0    0  0.00000000000E+00  0.00000000000E+00  0.74505805969E-08  0.10566000000E+00  0.10566000000E+00 0. -1.
     999900   -1    0    0    0    0 -0.00000000000E+00 -0.00000000000E+00 -0.74505805969E-08  0.93827000000E+00  0.93827000000E+00 0. -1.
     999903    2    1    2    0    0  0.61197878590E-01 -0.76084622493E-01 -0.37630846415E-01  0.11406572853E+00  0.45396692604E-01 0.  0.
         14    1    1    2    0    0  0.37934651657E-01 -0.92562950580E-02  0.69884588160E-02  0.39668064626E-01  0.00000000000E+00 0.  1.
     999901    1    1    2    0    0 -0.99132530246E-01  0.85340917552E-01  0.30642387599E-01  0.89019620684E+00  0.88000000000E+00 0. -1.
        -11    1    3    3    0    0  0.46991191964E-01 -0.79723065069E-01 -0.28715956235E-01  0.96895853832E-01  0.51100000000E-03 0.  1.
         11    1    3    3    0    0  0.14206686625E-01  0.36384425758E-02 -0.89148901798E-02  0.17169874699E-01  0.51100000000E-03 0. -1.
</event>
<event>
 8    1  0.2257781E+004  0.1043930E+01  0.7957747E-01            NaN
         13   -1    0    0    0    0  0.00000000000E+00  0.00000000000E+00  0.74505805969E-08  0.10566000000E+00  0.10566000000E+00 0.  1.
     999900   -1    0    0    0    0 -0.00000000000E+00 -0.00000000000E+00 -0.74505805969E-08  0.93827000000E+00  0.93827000000E+00 0.  1.
     999902    2    1    2    0    0 -0.13350496098E-03  0.11197932764E-02  0.13190586846E-01  0.10306912938E+01  0.10306062681E+01 0.  0.
     999903    2    3    3    0    0 -0.69802459620E-01 -0.70369114653E-01 -0.86900426746E-01  0.13940983533E+00  0.45378655258E-01 0.  0.
         14    1    1    2    0    0  0.13350496098E-03 -0.11197932764E-02 -0.13190586846E-01  0.13238706202E-01  0.00000000000E+00 0. -1.
     999901    1    3    3    0    0  0.69668954659E-01  0.71488907930E-01  0.10009101359E+00  0.89128145846E+00  0.88000000000E+00 0. -1.
        -11    1    4    4    0    0 -0.13288607292E-01 -0.27081436119E-01 -0.44795043583E-02  0.30501120411E-01  0.51100000000E-03 0. -1.
         11    1    4    4    0    0 -0.56513852328E-01 -0.43287678534E-01 -0.82420922388E-01  0.10890871492E+00  0.51100000000E-03 0.  1.
</event>
<event>
 8    1  0.2257781E+004  0.1043930E+01  0.7957747E-01            NaN
         13   -1    0    0    0    0  0.00000000000E+00  0.00000000000E+00  0.74505805969E-08  0.10566000000E+00  0.10566000000E+00 0.  1.
     999900   -1    0    0    0    0 -0.00000000000E+00 -0.00000000000E+00 -0.74505805969E-08  0.93827000000E+00  0.93827000000E+00 0.  1.
     999902    2    1    2    0    0  0.20744766318E-02 -0.10562542841E-01 -0.76098910430E-02  0.10307473900E+01  0.10306630879E+01 0.  0.
     999903    2    3    3    0    0  0.11364468724E+00 -0.49855203361E-01 -0.52102102655E-01  0.14171905415E+00  0.44373471425E-01 0.  0.
         14    1    1    2    0    0 -0.20744766318E-02  0.10562542841E-01  0.76098910430E-02  0.13182609994E-01  0.00000000000E+00 0.  1.
     999901    1    3    3    0    0 -0.11157021061E+00  0.39292660520E-01  0.44492211612E-01  0.88902833586E+00  0.88000000000E+00 0.  1.
        -11    1    4    4    0    0  0.33668631168E-01 -0.33845112096E-02  0.31279927315E-02  0.33986425237E-01  0.51100000000E-03 0.  1.
         11    1    4    4    0    0  0.79976056076E-01 -0.46470692151E-01 -0.55230095387E-01  0.10773262891E+00  0.51100000000E-03 0. -1.
</event>
<event>
 7    1  0.2257781E+004  0.1043930E+01  0.7957747E-01            NaN
         13   -1    0    0    0    0  0.00000000000E+00  0.00000000000E+00  0.74505805969E-08  0.10566000000E+00  0.10566000000E+00 0. -1.
     999900   -1    0    0    0    0 -0.00000000000E+00 -0.00000000000E+00 -0.74505805969E-08  0.93827000000E+00  0.93827000000E+00 0. -1.
     999902    2    1    2    0    0  0.61623104454E-02  0.11186333103E-01 -0.71841739482E-02  0.10292766566E+01  0.10291723448E+01 0.  0.
         14    1    1    2    0    0 -0.61623104454E-02 -0.11186333103E-01  0.71841739482E-02  0.14653343429E-01  0.00000000000E+00 0.  1.
     999901    1    3    3    0    0  0.11086163285E+00 -0.25067392329E-01 -0.71305739376E-02  0.88733844776E+00  0.88000000000E+00 0.  1.
        -11    1    3    3    0    0 -0.56652060326E-01  0.47058808844E-01 -0.35006481770E-01  0.81545706913E-01  0.51100000000E-03 0.  1.
         11    1    3    3    0    0 -0.48047262077E-01 -0.10805083413E-01  0.34952881760E-01  0.60392501894E-01  0.51100000000E-03 0. -1.
</event>
<event>
 8    1  0.2257781E+004  0.1043930E+01  0.7957747E-01            NaN
         13   -1    0    0    0    0  0.00000000000E+00  0.00000000000E+00  0.74505805969E-08  0.10566000000E+00  0.10566000000E+00 0.  1.
     999900   -1    0    0    0    0 -0.00000000000E+00 -0.00000000000E+00 -0.74505805969E-08  0.93827000000E+00  0.93827000000E+00 0.  1.
     999902    2    1    2    0    0  0.50885543092E-02  0.12422393231E-01  0.14687066479E-02  0.10304256919E+01  0.10303371973E+01 0.  0.
     999903    2    3    3    0    0  0.50176144719E-01  0.10021896623E+00  0.73935381718E-01  0.14194803429E+00  0.46057758068E-01 0.  0.
         14    1    1    2    0    0 -0.50885543092E-02 -0.12422393231E-01 -0.14687066479E-02  0.13504308119E-01  0.00000000000E+00 0.  1.
     999901    1    3    3    0    0 -0.45087590410E-01 -0.87796573000E-01 -0.72466675070E-01  0.88847765759E+00  0.88000000000E+00 0.  1.
        -11    1    4    4    0    0  0.31394561010E-02  0.27580183015E-01  0.40653943374E-01  0.49229329801E-01  0.51100000000E-03 0. -1.
         11    1    4    4    0    0  0.47036688618E-01  0.72638783217E-01  0.33281438344E-01  0.92718704491E-01  0.51100000000E-03 0.  1.
</event>
<event>
 8    1  0.2257781E+004  0.1043930E+01  0.7957747E-01            NaN
         13   -1    0    0    0    0  0.00000000000E+00  0.00000000000E+00  0.74505805969E-08  0.10566000000E+00  0.10566000000E+00 0.  1.
     999900   -1    0    0    0    0 -0.00000000000E+00 -0.00000000000E+00 -0.74505805969E-08  0.93827000000E+00  0.93827000000E+00 0.  1.
     999902    2    1    2    0    0 -0.55189798078E-02 -0.95276100278E-02  0.90140763650E-02  0.10297001699E+01  0.10296018414E+01 0.  0.
     999903    2    3    3    0    0  0.43062601551E-01  0.48980578345E-01 -0.11295786371E+00  0.13803850074E+00  0.45184776249E-01 0.  0.
         14    1    1    2    0    0  0.55189798078E-02  0.95276100278E-02 -0.90140763650E-02  0.14229830065E-01  0.00000000000E+00 0. -1.
     999901    1    3    3    0    0 -0.48581581359E-01 -0.58508188373E-01  0.12197194007E+00  0.89166166920E+00  0.88000000000E+00 0. -1.
        -11    1    4    4    0    0  0.24887589299E-01  0.54627126774E-01 -0.90445728501E-01  0.10855508282E+00  0.51100000000E-03 0.  1.
         11    1    4    4    0    0  0.18175012252E-01 -0.56465484289E-02 -0.22512135206E-01  0.29483417917E-01  0.51100000000E-03 0. -1.
</event>
<event>
 8    1  0.2257781E+004  0.1043930E+01  0.7957747E-01            NaN
         13   -1    0    0    0    0  0.00000000000E+00  0.00000000000E+00  0.74505805969E-08  0.10566000000E+00  0.10566000000E+00 0. -1.
     999900   -1    0    0    0    0 -0.00000000000E+00 -0.00000000000E+00 -0.74505805969E-08  0.93827000000E+00  0.93827000000E+00 0.  1.
     999902    2    1    2    0    0  0.22636589503E-02 -0.19950001090E-02  0.13288651793E-01  0.10303030985E+01  0.10302129791E+01 0.  0.
     999903    2    3    3    0    0 -0.72330432859E-01 -0.52951317975E-01  0.99582321783E-01  0.14147948141E+00  0.45434252011E-01 0.  0.
         14    1    1    2    0    0 -0.22636589503E-02  0.19950001090E-02 -0.13288651793E-01  0.13626901473E-01  0.00000000000E+00 0.  1.
     999901    1    3    3    0    0  0.74594091810E-01  0.50956317866E-01 -0.86293669990E-01  0.88882361712E+00  0.88000000000E+00 0.  1.
        -11    1    4    4    0    0 -0.54879094375E-01 -0.22291780314E-01  0.84297459057E-01  0.10302893377E+00  0.51100000000E-03 0.  1.
         11    1    4    4    0    0 -0.17451338484E-01 -0.30659537661E-01  0.15284862726E-01  0.38450547643E-01  0.51100000000E-03 0. -1.
</event>
<event>
 8    1  0.2257781E+004  0.1043930E+01  0.7957747E-01            NaN
         13   -1    0    0    0    0  0.00000000000E+00  0.00000000000E+00  0.74505805969E-08  0.10566000000E+00  0.10566000000E+00 0. -1.
     999900   -1    0    0    0    0 -0.00000000000E+00 -0.00000000000E+00 -0.74505805969E-08  0.93827000000E+00  0.93827000000E+00 0.  1.
     999902    2    1    2    0    0 -0.45240509891E-02 -0.65185644908E-02  0.10625848855E-01  0.10306684999E+01  0.10305831792E+01 0.  0.
     999903    2    3    3    0    0  0.21630165004E-01  0.12171443794E+00  0.47664982376E-01  0.14021937542E+00  0.45904839141E-01 0.  0.
         14    1    1    2    0    0  0.45240509891E-02  0.65185644908E-02 -0.10625848855E-01  0.13261500076E-01  0.00000000000E+00 0.  1.
     999901    1    3    3    0    0 -0.26154215993E-01 -0.12823300243E+00 -0.37039133521E-01  0.89044912451E+00  0.88000000000E+00 0.  1.
        -11    1    4    4    0    0  0.12401797077E-02  0.70388460515E-01  0.52780212322E-02  0.70598810532E-01  0.51100000000E-03 0.  1.
         11    1    4    4    0    0  0.20389985296E-01  0.51325977422E-01  0.42386961143E-01  0.69620564883E-01  0.51100000000E-03 0. -1.
</event>
<event>
 8    1  0.2257781E+004  0.1043930E+01  0.7957747E-01            NaN
         13   -1    0    0    0    0  0.00000000000E+00  0.00000000000E+00  0.74505805969E-08  0.10566000000E+00  0.10566000000E+00 0.  1.
     999900   -1    0    0    0    0 -0.00000000000E+00 -0.00000000000E+00 -0.74505805969E-08  0.93827000000E+00  0.93827000000E+00 0. -1.
     999902    2    1    2    0    0  0.70296416616E-02  0.74939169928E-02  0.78867141810E-02  0.10309772044E+01  0.10308958342E+01 0.  0.
     999903    2    3    3    0    0 -0.11358361022E+00 -0.50302162766E-01  0.47494136597E-01  0.13999084575E+00  0.43705832479E-01 0.  0.
         14    1    1    2    0    0 -0.70296416616E-02 -0.74939169928E-02 -0.78867141810E-02  0.12952795619E-01  0.00000000000E+00 0. -1.
     999901    1    3    3    0    0  0.12061325188E+00  0.57796079759E-01 -0.39607422416E-01  0.89098635864E+00  0.88000000000E+00 0. -1.
        -11    1    4    4    0    0 -0.82565271778E-01 -0.32098503646E-01  0.53551931807E-01  0.10351525763E+00  0.51100000000E-03 0.  1.
         11    1    4    4    0    0 -0.31018338438E-01 -0.18203659119E-01 -0.60577952109E-02  0.36475588119E-01  0.51100000000E-03 0. -1.
</event>
<event>
 8    1  0.2257781E+004  0.1043930E+01  0.7957747E-01            NaN
         13   -1    0    0    0    0  0.00000000000E+00  0.00000000000E+00  0.74505805969E-08  0.10566000000E+00  0.10566000000E+00 0. -1.
     999900   -1    0    0    0    0 -0.00000000000E+00 -0.00000000000E+00 -0.74505805969E-08  0.93827000000E+00  0.93827000000E+00 0. -1.
     999902    2    1    2    0    0 -0.79539430965E-02  0.59211755773E-02 -0.10389403664E-01  0.10295680628E+01  0.10294678872E+01 0.  0.
     999903    2    3    3    0    0  0.12702654291E+00 -0.34070982794E-02 -0.33502807642E-01  0.13892729476E+00  0.45066663809E-01 0.  0.
         14    1    1    2    0    0  0.79539430965E-02 -0.59211755773E-02  0.10389403664E-01  0.14361937178E-01  0.00000000000E+00 0. -1.
     999901    1    3    3    0    0 -0.13498048600E+00  0.93282738567E-02  0.23113403978E-01  0.89064076806E+00  0.88000000000E+00 0.  1.
        -11    1    4    4    0    0  0.62648017470E-01 -0.84922716313E-02 -0.38716969823E-01  0.74136075184E-01  0.51100000000E-03 0.  1.
         11    1    4    4    0    0  0.64378525438E-01  0.50851733519E-02  0.52141621809E-02  0.64791219574E-01  0.51100000000E-03 0. -1.
</event>
<event>
 8    1  0.2257781E+004  0.1043930E+01  0.7957747E-01            NaN
         13   -1    0    0    0    0  0.00000000000E+00  0.00000000000E+00  0.74505805969E-08  0.10566000000E+00  0.10566000000E+00 0.  1.
     999900   -1    0    0    0    0 -0.00000000000E+00 -0.00000000000E+00 -0.74505805969E-08  0.93827000000E+00  0.93827000000E+00 0. -1.
     999902    2    1    2    0    0 -0.61886544418E-02  0.94025691557E-02 -0.86460339387E-02  0.10297362812E+01  0.10296384546E+01 0.  0.
     999903    2    3    3    0    0 -0.37857417697E-02  0.11900779014E+00 -0.61492740000E-01  0.14136031755E+00  0.44991069664E-01 0.  0.
         14    1    1    2    0    0  0.61886544418E-02 -0.94025691557E-02  0.86460339387E-02  0.14193718801E-01  0.00000000000E+00 0.  1.
     999901    1    3    3    0    0 -0.24029126720E-02 -0.10960522098E+00  0.52846706062E-01  0.88837596365E+00  0.88000000000E+00 0.  1.
        -11    1    4    4    0    0 -0.13083549854E-01  0.33495288328E-01 -0.37721750166E-01  0.52118184672E-01  0.51100000000E-03 0. -1.
         11    1    4    4    0    0  0.92978080847E-02  0.85512501810E-01 -0.23770989834E-01  0.89242132873E-01  0.51100000000E-03 0.  1.
</event>
<event>
 7    1  0.2257781E+004  0.1043930E+01  0.7957747E-01            NaN
         13   -1    0    0    0    0  0.00000000000E+00  0.00000000000E+00  0.74505805969E-08  0.10566000000E+00  0.10566000000E+00 0.  1.
     999900   -1    0    0    0    0 -0.00000000000E+00 -0.00000000000E+00 -0.74505805969E-08  0.93827000000E+00  0.93827000000E+00 0. -1.
     999903    2    1    2    0    0  0.11649010827E-01  0.87317976597E-01  0.33806635399E-01  0.10522878771E+00  0.46584124727E-01 0.  0.
         14    1    1    2    0    0  0.30775630174E-01 -0.14991812570E-01 -0.42627070961E-01  0.54671391380E-01  0.00000000000E+00 0. -1.
     999901    1    1    2    0    0 -0.42424641000E-01 -0.72326164027E-01  0.88204355621E-02  0.88402982091E+00  0.88000000000E+00 0.  1.
        -11    1    3    3    0    0  0.19095233876E-01  0.11131104102E-01  0.15630918274E-02  0.22163795080E-01  0.51100000000E-03 0. -1.
         11    1    3    3    0    0 -0.74462230490E-02  0.76186872495E-01  0.32243543572E-01  0.83064992634E-01  0.51100000000E-03 0.  1.
</event>
<event>
 8    1  0.2257781E+004  0.1043930E+01  0.7957747E-01            NaN
         13   -1    0    0    0    0  0.00000000000E+00  0.00000000000E+00  0.74505805969E-08  0.10566000000E+00  0.10566000000E+00 0. -1.
     999900   -1    0    0    0    0 -0.00000000000E+00 -0.00000000000E+00 -0.74505805969E-08  0.93827000000E+00  0.93827000000E+00 0. -1.
     999902    2    1    2    0    0 -0.51148734205E-02  0.20283373587E-01 -0.44755692892E-02  0.10225382283E+01  0.10223144431E+01 0.  0.
     999903    2    3    3    0    0  0.66968013227E-01  0.61523478025E-01 -0.88134069282E-01  0.13467819805E+00  0.45833936327E-01 0.  0.
         14    1    1    2    0    0  0.51148734205E-02 -0.20283373587E-01  0.44755692892E-02  0.21391771658E-01  0.00000000000E+00 0. -1.
     999901    1    3    3    0    0 -0.72082886647E-01 -0.41240104438E-01  0.83658499993E-01  0.88786003029E+00  0.88000000000E+00 0.  1.
        -11    1    4    4    0    0  0.19977595259E-01  0.43916368495E-01 -0.25998035278E-01  0.54807943707E-01  0.51100000000E-03 0. -1.
         11    1    4    4    0    0  0.46990417968E-01  0.17607109531E-01 -0.62136034004E-01  0.79870254348E-01  0.51100000000E-03 0.  1.
</event>
<event>
 8    1  0.2257781E+004  0.1043930E+01  0.7957747E-01            NaN
         13   -1    0    0    0    0  0.00000000000E+00  0.00000000000E+00  0.74505805969E-08  0.10566000000E+00  0.10566000000E+00 0.  1.
     999900   -1    0    0    0    0 -0.00000000000E+00 -0.00000000000E+00 -0.74505805969E-08  0.93827000000E+00  0.93827000000E+00 0.  1.
     999902    2    1    2    0    0 -0.13070861266E-01 -0.11157053062E-02 -0.41979081750E-02  0.10301563060E+01  0.10300642214E+01 0.  0.
     999903    2    3    3    0    0  0.11476064489E+00 -0.49557217092E-01 -0.40248736089E-01  0.13887232422E+00  0.45162354858E-01 0.  0.
         14    1    1    2    0    0  0.13070861266E-01  0.11157053062E-02  0.41979081750E-02  0.13773693971E-01  0.00000000000E+00 0.  1.
     999901    1    3    3    0    0 -0.12783150616E+00  0.48441511786E-01  0.36050827914E-01  0.89128398181E+00  0.88000000000E+00 0.  1.
        -11    1    4    4    0    0  0.71705843658E-01 -0.37182683349E-01 -0.33694982036E-02  0.80844879831E-01  0.51100000000E-03 0. -1.
         11    1    4    4    0    0  0.43054801235E-01 -0.12374533744E-01 -0.36879237885E-01  0.58027444393E-01  0.51100000000E-03 0.  1.
</event>
<event>
 8    1  0.2257781E+004  0.1043930E+01  0.7957747E-01            NaN
         13   -1    0    0    0    0  0.00000000000E+00  0.00000000000E+00  0.74505805969E-08  0.10566000000E+00  0.10566000000E+00 0.  1.
     999900   -1    0    0    0    0 -0.00000000000E+00 -0.00000000000E+00 -0.74505805969E-08  0.93827000000E+00  0.93827000000E+00 0.  1.
     999902    2    1    2    0    0  0.12919132282E-01  0.81267829698E-02 -0.79308597121E-03  0.10286467554E+01  0.10285332128E+01 0.  0.
     999903    2    3    3    0    0  0.26935088871E-01  0.96083281388E-01  0.86351760887E-01  0.13986837076E+00  0.46357723808E-01 0.  0.
         14    1    1    2    0    0 -0.12919132282E-01 -0.81267829698E-02  0.79308597121E-03  0.15283244607E-01  0.00000000000E+00 0. -1.
     999901    1    3    3    0    0 -0.14015956589E-01 -0.87956498418E-01 -0.87144846858E-01  0.88877838463E+00  0.88000000000E+00 0.  1.
        -11    1    4    4    0    0  0.50711413407E-02  0.84301278438E-01  0.59639833952E-01  0.10339048765E+00  0.51100000000E-03 0.  1.
         11    1    4    4    0    0  0.21863947530E-01  0.11782002950E-01  0.26711926935E-01  0.36477883117E-01  0.51100000000E-03 0. -1.
</event>
<event>
 7    1  0.2257781E+004  0.1043930E+01  0.7957747E-01            NaN
         13   -1    0    0    0    0  0.00000000000E+00  0.00000000000E+00  0.74505805969E-08  0.10566000000E+00  0.10566000000E+00 0.  1.
     999900   -1    0    0    0    0 -0.00000000000E+00 -0.00000000000E+00 -0.74505805969E-08  0.93827000000E+00  0.93827000000E+00 0. -1.
     999903    2    1    2    0    0 -0.66236777754E-01  0.84085108471E-01 -0.10411680025E-01  0.11664190787E+00  0.45158779842E-01 0.  0.
         14    1    1    2    0    0 -0.20845016550E-01 -0.25879430980E-01  0.23968818570E-01  0.40972721736E-01  0.00000000000E+00 0.  1.
     999901    1    1    2    0    0  0.87081794304E-01 -0.58205677490E-01 -0.13557138546E-01  0.88631537039E+00  0.88000000000E+00 0. -1.
        -11    1    3    3    0    0 -0.68820717723E-01  0.65736800363E-01 -0.17551926152E-01  0.96777834975E-01  0.51100000000E-03 0. -1.
         11    1    3    3    0    0  0.25839399694E-02  0.18348308108E-01  0.71402461274E-02  0.19864072894E-01  0.51100000000E-03 0.  1.
</event>
<event>
 7    1  0.2257781E+004  0.1043930E+01  0.7957747E-01            NaN
         13   -1    0    0    0    0  0.00000000000E+00  0.00000000000E+00  0.74505805969E-08  0.10566000000E+00  0.10566000000E+00 0.  1.
     999900   -1    0    0    0    0 -0.00000000000E+00 -0.00000000000E+00 -0.74505805969E-08  0.93827000000E+00  0.93827000000E+00 0.  1.
     999902    2    1    2    0    0  0.48991221411E-03  0.78537145624E-02  0.13676423455E-01  0.10281513624E+01  0.10280302810E+01 0.  0.
         14    1    1    2    0    0 -0.48991221411E-03 -0.78537145624E-02 -0.13676423455E-01  0.15778637613E-01  0.00000000000E+00 0. -1.
     999901    1    3    3    0    0 -0.29666831189E-01 -0.58024453220E-01  0.28092693565E-01  0.88285681595E+00  0.88000000000E+00 0. -1.
        -11    1    3    3    0    0  0.47059396026E-01 -0.10227935187E-01  0.28840648073E-01  0.56135920005E-01  0.51100000000E-03 0.  1.
         11    1    3    3    0    0 -0.16902652623E-01  0.76106102969E-01 -0.43256918183E-01  0.89158626428E-01  0.51100000000E-03 0. -1.
</event>
<event>
 8    1  0.2257781E+004  0.1043930E+01  0.7957747E-01            NaN
         13   -1    0    0    0    0  0.00000000000E+00  0.00000000000E+00  0.74505805969E-08  0.10566000000E+00  0.10566000000E+00 0. -1.
     999900   -1    0    0    0    0 -0.00000000000E+00 -0.00000000000E+00 -0.74505805969E-08  0.93827000000E+00  0.93827000000E+00 0.  1.
     999902    2    1    2    0    0  0.43500037762E-02 -0.13483519253E-01 -0.17509482264E-02  0.10296543689E+01  0.10295554020E+01 0.  0.
     999903    2    3    3    0    0  0.11294121826E+00  0.32465650914E-02 -0.68799234323E-01  0.14029087724E+00  0.46711204498E-01 0.  0.
         14    1    1    2    0    0 -0.43500037762E-02  0.13483519253E-01  0.17509482264E-02  0.14275631124E-01  0.00000000000E+00 0. -1.
     999901    1    3    3    0    0 -0.10859121449E+00 -0.16730084345E-01  0.67048286097E-01  0.88936349164E+00  0.88000000000E+00 0.  1.
        -11    1    4    4    0    0  0.10348173755E+00 -0.11677604556E-01 -0.54405189271E-01  0.11749477518E+00  0.51100000000E-03 0.  1.
         11    1    4    4    0    0  0.94594807123E-02  0.14924169648E-01 -0.14394045053E-01  0.22796102057E-01  0.51100000000E-03 0. -1.
</event>
<event>
 8    1  0.2257781E+004  0.1043930E+01  0.7957747E-01            NaN
         13   -1    0    0    0    0  0.00000000000E+00  0.00000000000E+00  0.74505805969E-08  0.10566000000E+00  0.10566000000E+00 0. -1.
     999900   -1    0    0    0    0 -0.00000000000E+00 -0.00000000000E+00 -0.74505805969E-08  0.93827000000E+00  0.93827000000E+00 0.  1.
     999902    2    1    2    0    0 -0.12753128470E-01  0.31791491199E-02  0.58318548506E-02  0.10295508552E+01  0.10294504377E+01 0.  0.
     999903    2    3    3    0    0  0.87704338952E-01 -0.79162483844E-01  0.56786906779E-01  0.13855800189E+00  0.44886715051E-01 0.  0.
         14    1    1    2    0    0  0.12753128470E-01 -0.31791491199E-02 -0.58318548506E-02  0.14379144825E-01  0.00000000000E+00 0. -1.
     999901    1    3    3    0    0 -0.10045746742E+00  0.82341632964E-01 -0.50955051928E-01  0.89099285328E+00  0.88000000000E+00 0.  1.
        -11    1    4    4    0    0  0.32224673884E-01 -0.58850062634E-01  0.34137465720E-01  0.75282050754E-01  0.51100000000E-03 0.  1.
         11    1    4    4    0    0  0.55479665068E-01 -0.20312421210E-01  0.22649441059E-01  0.63275951140E-01  0.51100000000E-03 0. -1.
</event>
<event>
 8    1  0.2257781E+004  0.1043930E+01  0.7957747E-01            NaN
         13   -1    0    0    0    0  0.00000000000E+00  0.00000000000E+00  0.74505805969E-08  0.10566000000E+00  0.10566000000E+00 0. -1.
     999900   -1    0    0    0    0 -0.00000000000E+00 -0.00000000000E+00 -0.74505805969E-08  0.93827000000E+00  0.93827000000E+00 0.  1.
     999902    2    1    2    0    0 -0.97164152330E-02 -0.67170737813E-02 -0.71836036272E-02  0.10301049515E+01  0.10300121743E+01 0.  0.
     999903    2    3    3    0    0  0.84756546689E-01 -0.76442828101E-01  0.65925911726E-01  0.13930091997E+00  0.45070414814E-01 0.  0.
         14    1    1    2    0    0  0.97164152330E-02  0.67170737813E-02  0.71836036272E-02  0.13825048508E-01  0.00000000000E+00 0. -1.
     999901    1    3    3    0    0 -0.94472961922E-01  0.69725754320E-01 -0.73109515353E-01  0.89080403153E+00  0.88000000000E+00 0.  1.
        -11    1    4    4    0    0  0.65786094730E-01 -0.50742833562E-01  0.23789096984E-01  0.86422379474E-01  0.51100000000E-03 0.  1.
         11    1    4    4    0    0  0.18970451959E-01 -0.25699994539E-01  0.42136814742E-01  0.52878540491E-01  0.51100000000E-03 0. -1.
</event>
<event>
 8    1  0.2257781E+004  0.1043930E+01  0.7957747E-01            NaN
         13   -1    0    0    0    0  0.00000000000E+00  0.00000000000E+00  0.74505805969E-08  0.10566000000E+00  0.10566000000E+00 0.  1.
     999900   -1    0    0    0    0 -0.00000000000E+00 -0.00000000000E+00 -0.74505805969E-08  0.93827000000E+00  0.93827000000E+00 0. -1.
     999902    2    1    2    0    0 -0.55110389723E-02  0.58677724245E-02  0.11632140828E-01  0.10297840110E+01  0.10296868458E+01 0.  0.
     999903    2    3    3    0    0 -0.88559308919E-01 -0.78698812233E-01 -0.56969338045E-01  0.13919168831E+00  0.45744577535E-01 0.  0.
         14    1    1    2    0    0  0.55110389723E-02 -0.58677724245E-02 -0.11632140828E-01  0.14145988973E-01  0.00000000000E+00 0. -1.
     999901    1    3    3    0    0  0.83048269947E-01  0.84566584657E-01  0.68601478872E-01  0.89059232272E+00  0.88000000000E+00 0. -1.
        -11    1    4    4    0    0 -0.88239583715E-01 -0.58234338144E-01 -0.53270301554E-01  0.11838685916E+00  0.51100000000E-03 0.  1.
         11    1    4    4    0    0 -0.31972520453E-03 -0.20464474089E-01 -0.36990364910E-02  0.20804829148E-01  0.51100000000E-03 0. -1.
</event>
<event>
 8    1  0.2257781E+004  0.1043930E+01  0.7957747E-01            NaN
         13   -1    0    0    0    0  0.00000000000E+00  0.00000000000E+00  0.74505805969E-08  0.10566000000E+00  0.10566000000E+00 0. -1.
     999900   -1    0    0    0    0 -0.00000000000E+00 -0.00000000000E+00 -0.74505805969E-08  0.93827000000E+00  0.93827000000E+00 0.  1.
     999902    2    1    2    0    0 -0.10460621165E-01  0.56168638530E-02  0.57911304681E-02  0.10307197409E+01  0.10306350825E+01 0.  0.
     999903    2    3    3    0    0  0.76812881075E-02  0.11238010986E+00 -0.71949413125E-01  0.14067979136E+00  0.43883873690E-01 0.  0.
         14    1    1    2    0    0  0.10460621165E-01 -0.56168638530E-02 -0.57911304681E-02  0.13210259149E-01  0.00000000000E+00 0. -1.
     999901    1    3    3    0    0 -0.18141909272E-01 -0.10676324600E+00  0.77740543593E-01  0.89003994949E+00  0.88000000000E+00 0. -1.
        -11    1    4    4    0    0 -0.80869820310E-02  0.91689453935E-01 -0.42506548446E-01  0.10138748948E+00  0.51100000000E-03 0. -1.
         11    1    4    4    0    0  0.15768270139E-01  0.20690655922E-01 -0.29442864678E-01  0.39292301881E-01  0.51100000000E-03 0.  1.
</event>
<event>
 8    1  0.2257781E+004  0.1043930E+01  0.7957747E-01            NaN
         13   -1    0    0    0    0  0.00000000000E+00  0.00000000000E+00  0.74505805969E-08  0.10566000000E+00  0.10566000000E+00 0. -1.
     999900   -1    0    0    0    0 -0.00000000000E+00 -0.00000000000E+00 -0.74505805969E-08  0.93827000000E+00  0.93827000000E+00 0.  1.
     999902    2    1    2    0    0 -0.82341611468E-03  0.36475447038E-03  0.16464189972E-01  0.10274411974E+01  0.10273088793E+01 0.  0.
     999903    2    3    3    0    0 -0.82347679865E-02  0.12301571992E+00  0.44457253642E-01  0.13846324543E+00  0.44664798031E-01 0.  0.
         14    1    1    2    0    0  0.82341611468E-03 -0.36475447038E-03 -0.16464189972E-01  0.16488802605E-01  0.00000000000E+00 0.  1.
     999901    1    3    3    0    0  0.74113518718E-02 -0.12265096545E+00 -0.27993063670E-01  0.88897795196E+00  0.88000000000E+00 0.  1.
        -11    1    4    4    0    0 -0.26440973342E-01  0.62494768342E-01  0.20758915902E-01  0.70964180061E-01  0.51100000000E-03 0.  1.
         11    1    4    4    0    0  0.18206205355E-01  0.60520951577E-01  0.23698337741E-01  0.67499065371E-01  0.51100000000E-03 0. -1.
</event>
<event>
 8    1  0.2257781E+004  0.1043930E+01  0.7957747E-01            NaN
         13   -1    0    0    0    0  0.00000000000E+00  0.00000000000E+00  0.74505805969E-08  0.10566000000E+00  0.10566000000E+00 0. -1.
     999900   -1    0    0    0    0 -0.00000000000E+00 -0.00000000000E+00 -0.74505805969E-08  0.93827000000E+00  0.93827000000E+00 0. -1.
     999902    2    1    2    0    0 -0.96295502831E-02  0.90377767748E-02  0.27483026319E-02  0.10304406407E+01  0.10303523432E+01 0.  0.
     999903    2    3    3    0    0  0.66478408775E-02  0.99430501737E-01  0.82423156676E-01  0.14208042063E+00  0.58844292042E-01 0.  0.
         14    1    1    2    0    0  0.96295502831E-02 -0.90377767748E-02 -0.27483026319E-02  0.13489359327E-01  0.00000000000E+00 0.  1.
     999901    1    3    3    0    0 -0.16277391161E-01 -0.90392724962E-01 -0.79674854044E-01  0.88836022004E+00  0.88000000000E+00 0. -1.
        -11    1    4    4    0    0  0.17303087184E-03  0.44098942862E-01  0.18740388806E-02  0.44142041683E-01  0.51100000000E-03 0.  1.
         11    1    4    4    0    0  0.64748100057E-02  0.55331558875E-01  0.80549117796E-01  0.97938378947E-01  0.51100000000E-03 0. -1.
</event>
<event>
 8    1  0.2257781E+004  0.1043930E+01  0.7957747E-01            NaN
         13   -1    0    0    0    0  0.00000000000E+00  0.00000000000E+00  0.74505805969E-08  0.10566000000E+00  0.10566000000E+00 0.  1.
     999900   -1    0    0    0    0 -0.00000000000E+00 -0.00000000000E+00 -0.74505805969E-08  0.93827000000E+00  0.93827000000E+00 0.  1.
     999902    2    1    2    0    0  0.63608702344E-02 -0.42793770836E-02  0.12666310012E-01  0.10291242867E+01  0.10290177784E+01 0.  0.
     999903    2    3    3    0    0 -0.95490866840E-01  0.73253122667E-01 -0.48958893346E-01  0.13773058545E+00  0.45696994427E-01 0.  0.
         14    1    1    2    0    0 -0.63608702344E-02  0.42793770836E-02 -0.12666310012E-01  0.14805713346E-01  0.00000000000E+00 0. -1.
     999901    1    3    3    0    0  0.10185173707E+00 -0.77532499751E-01  0.61625203358E-01  0.89139370121E+00  0.88000000000E+00 0. -1.
        -11    1    4    4    0    0 -0.19406251853E-01  0.99929712191E-02 -0.29801269691E-01  0.36943725867E-01  0.51100000000E-03 0. -1.
         11    1    4    4    0    0 -0.76084614987E-01  0.63260151448E-01 -0.19157623656E-01  0.10078685958E+00  0.51100000000E-03 0.  1.
</event>
<event>
 8    1  0.2257781E+004  0.1043930E+01  0.7957747E-01            NaN
         13   -1    0    0    0    0  0.00000000000E+00  0.00000000000E+00  0.74505805969E-08  0.10566000000E+00  0.10566000000E+00 0. -1.
     999900   -1    0    0    0    0 -0.00000000000E+00 -0.00000000000E+00 -0.74505805969E-08  0.93827000000E+00  0.93827000000E+00 0.  1.
     999902    2    1    2    0    0 -0.12906004389E-01 -0.30368477791E-02 -0.41189783466E-02  0.10300464350E+01  0.10299528654E+01 0.  0.
     999903    2    3    3    0    0 -0.16957370022E-01  0.54921716313E-01  0.11809271486E+00  0.13970307055E+00  0.47614192191E-01 0.  0.
         14    1    1    2    0    0  0.12906004389E-01  0.30368477791E-02  0.41189783466E-02  0.13883564972E-01  0.00000000000E+00 0.  1.
     999901    1    3    3    0    0  0.40513656332E-02 -0.57958564092E-01 -0.12221169320E+00  0.89034336448E+00  0.88000000000E+00 0.  1.
        -11    1    4    4    0    0 -0.31345281846E-01  0.50742128824E-01  0.94864378646E-01  0.11205713627E+00  0.51100000000E-03 0.  1.
         11    1    4    4    0    0  0.14387911824E-01  0.41795874898E-02  0.23228336210E-01  0.27645934282E-01  0.51100000000E-03 0. -1.
</event>
<event>
 8    1  0.2257781E+004  0.1043930E+01  0.7957747E-01            NaN
         13   -1    0    0    0    0  0.00000000000E+00  0.00000000000E+00  0.74505805969E-08  0.10566000000E+00  0.10566000000E+00 0. -1.
     999900   -1    0    0    0    0 -0.00000000000E+00 -0.00000000000E+00 -0.74505805969E-08  0.93827000000E+00  0.93827000000E+00 0. -1.
     999902    2    1    2    0    0  0.63950273085E-02  0.84236318418E-02  0.94334895670E-02  0.10297580321E+01  0.10296605072E+01 0.  0.
     999903    2    3    3    0    0 -0.33835937070E-01 -0.49488674659E-01 -0.11705449465E+00  0.13792196206E+00  0.41553740438E-01 0.  0.
         14    1    1    2    0    0 -0.63950273085E-02 -0.84236318418E-02 -0.94334895670E-02  0.14171967862E-01  0.00000000000E+00 0.  1.
     999901    1    3    3    0    0  0.40230964379E-01  0.57912306501E-01  0.12648798422E+00  0.89183607008E+00  0.88000000000E+00 0.  1.
        -11    1    4    4    0    0 -0.50128230494E-02 -0.24728449970E-01 -0.83487728590E-01  0.87218613718E-01  0.51100000000E-03 0.  1.
         11    1    4    4    0    0 -0.28823114021E-01 -0.24760224689E-01 -0.33566766058E-01  0.50703348342E-01  0.51100000000E-03 0. -1.
</event>
<event>
 8    1  0.2257781E+004  0.1043930E+01  0.7957747E-01            NaN
         13   -1    0    0    0    0  0.00000000000E+00  0.00000000000E+00  0.74505805969E-08  0.10566000000E+00  0.10566000000E+00 0.  1.
     999900   -1    0    0    0    0 -0.00000000000E+00 -0.00000000000E+00 -0.74505805969E-08  0.93827000000E+00  0.93827000000E+00 0.  1.
     999902    2    1    2    0    0  0.44298741464E-02  0.11191757438E-01 -0.63578197783E-02  0.10303174656E+01  0.10302275374E+01 0.  0.
     999903    2    3    3    0    0 -0.11635141694E+00  0.83056219534E-02 -0.63520375022E-01  0.14022533120E+00  0.44962983548E-01 0.  0.
         14    1    1    2    0    0 -0.44298741464E-02 -0.11191757438E-01  0.63578197783E-02  0.13612534365E-01  0.00000000000E+00 0.  1.
     999901    1    3    3    0    0  0.12078129108E+00  0.28861354850E-02  0.57162555243E-01  0.89009213443E+00  0.88000000000E+00 0. -1.
        -11    1    4    4    0    0 -0.63437947566E-01  0.70606671844E-02 -0.59300913308E-01  0.87126836581E-01  0.51100000000E-03 0. -1.
         11    1    4    4    0    0 -0.52913469369E-01  0.12449547689E-02 -0.42194617133E-02  0.53098494623E-01  0.51100000000E-03 0.  1.
</event>
<event>
 8    1  0.2257781E+004  0.1043930E+01  0.7957747E-01            NaN
         13   -1    0    0    0    0  0.00000000000E+00  0.00000000000E+00  0.74505805969E-08  0.10566000000E+00  0.10566000000E+00 0.  1.
     999900   -1    0    0    0    0 -0.00000000000E+00 -0.00000000000E+00 -0.74505805969E-08  0.93827000000E+00  0.93827000000E+00 0.  1.
     999902    2    1    2    0    0  0.17118738620E-02  0.11332190199E-01 -0.51831755567E-02  0.10313516712E+01  0.10312749659E+01 0.  0.
     999903    2    3    3    0    0 -0.94584618742E-01 -0.43924258665E-01  0.82394634149E-01  0.14006262583E+00  0.44193583416E-01 0.  0.
         14    1    1    2    0    0 -0.17118738620E-02 -0.11332190199E-01  0.51831755567E-02  0.12578328811E-01  0.00000000000E+00 0.  1.
     999901    1    3    3    0    0  0.96296492604E-01  0.55256448865E-01 -0.87577809705E-01  0.89128904536E+00  0.88000000000E+00 0.  1.
        -11    1    4    4    0    0 -0.98249014751E-01 -0.38763864447E-01  0.71812331748E-01  0.12772148683E+00  0.51100000000E-03 0.  1.
         11    1    4    4    0    0  0.36643960088E-02 -0.51603942181E-02  0.10582302401E-01  0.12341138995E-01  0.51100000000E-03 0. -1.
</event>
<event>
 7    1  0.2257781E+004  0.1043930E+01  0.7957747E-01            NaN
         13   -1    0    0    0    0  0.00000000000E+00  0.00000000000E+00  0.74505805969E-08  0.10566000000E+00  0.10566000000E+00 0. -1.
     999900   -1    0    0    0    0 -0.00000000000E+00 -0.00000000000E+00 -0.74505805969E-08  0.93827000000E+00  0.93827000000E+00 0.  1.
     999903    2    1    2    0    0 -0.60615811137E-01  0.68640785085E-01 -0.46109744944E-02  0.10187797433E+00  0.44407506473E-01 0.  0.
         14    1    1    2    0    0  0.12965268949E-01  0.51032240367E-01  0.12472031279E-02  0.52668237786E-01  0.00000000000E+00 0.  1.
     999901    1    1    2    0    0  0.47650542188E-01 -0.11967302545E+00  0.33637713665E-02  0.88938378788E+00  0.88000000000E+00 0. -1.
        -11    1    3    3    0    0 -0.47208285792E-01  0.57866286476E-01 -0.21552773012E-01  0.77729740148E-01  0.51100000000E-03 0. -1.
         11    1    3    3    0    0 -0.13407525345E-01  0.10774498608E-01  0.16941798518E-01  0.24148234183E-01  0.51100000000E-03 0.  1.
</event>
<event>
 7    1  0.2257781E+004  0.1043930E+01  0.7957747E-01            NaN
         13   -1    0    0    0    0  0.00000000000E+00  0.00000000000E+00  0.74505805969E-08  0.10566000000E+00  0.10566000000E+00 0.  1.
     999900   -1    0    0    0    0 -0.00000000000E+00 -0.00000000000E+00 -0.74505805969E-08  0.93827000000E+00  0.93827000000E+00 0.  1.
     999902    2    1    2    0    0 -0.96132003559E-02  0.44082897265E-02  0.54084276566E-02  0.10320515435E+01  0.10319831833E+01 0.  0.
         14    1    1    2    0    0  0.96132003559E-02 -0.44082897265E-02 -0.54084276566E-02  0.11878456512E-01  0.00000000000E+00 0.  1.
     999901    1    3    3    0    0 -0.52593935721E-01 -0.12720601631E+00 -0.11148851312E-01  0.89077033490E+00  0.88000000000E+00 0.  1.
        -11    1    3    3    0    0  0.33520753439E-02  0.43394925922E-01  0.31112107297E-02  0.43638248798E-01  0.51100000000E-03 0. -1.
         11    1    3    3    0    0  0.39628660021E-01  0.88219380118E-01  0.13446068239E-01  0.97642959785E-01  0.51100000000E-03 0.  1.
</event>
<event>
 8    1  0.2257781E+004  0.1043930E+01  0.7957747E-01            NaN
         13   -1    0    0    0    0  0.00000000000E+00  0.00000000000E+00  0.74505805969E-08  0.10566000000E+00  0.10566000000E+00 0.  1.
     999900   -1    0    0    0    0 -0.00000000000E+00 -0.00000000000E+00 -0.74505805969E-08  0.93827000000E+00  0.93827000000E+00 0.  1.
     999902    2    1    2    0    0 -0.20284976828E-02 -0.14346425576E-01  0.15378530897E-02  0.10293594914E+01  0.10292563640E+01 0.  0.
     999903    2    3    3    0    0  0.40640850727E-02  0.73957307234E-01 -0.10757644221E+00  0.13821382525E+00  0.45212503703E-01 0.  0.
         14    1    1    2    0    0  0.20284976828E-02  0.14346425576E-01 -0.15378530897E-02  0.14570508632E-01  0.00000000000E+00 0.  1.
     999901    1    3    3    0    0 -0.60925827555E-02 -0.88303732811E-01  0.10911429530E+00  0.89114566611E+00  0.88000000000E+00 0.  1.
        -11    1    4    4    0    0 -0.14224246781E-01  0.37792989648E-01 -0.78678525612E-01  0.88437609513E-01  0.51100000000E-03 0. -1.
         11    1    4    4    0    0  0.18288331854E-01  0.36164317587E-01 -0.28897916603E-01  0.49776215741E-01  0.51100000000E-03 0.  1.
</event>
<event>
 8    1  0.2257781E+004  0.1043930E+01  0.7957747E-01            NaN
         13   -1    0    0    0    0  0.00000000000E+00  0.00000000000E+00  0.74505805969E-08  0.10566000000E+00  0.10566000000E+00 0. -1.
     999900   -1    0    0    0    0 -0.00000000000E+00 -0.00000000000E+00 -0.74505805969E-08  0.93827000000E+00  0.93827000000E+00 0.  1.
     999902    2    1    2    0    0  0.12350747623E-01  0.89537386518E-02  0.51316713937E-02  0.10278351420E+01  0.10277091197E+01 0.  0.
     999903    2    3    3    0    0 -0.61257324556E-02  0.10803251075E+00 -0.74120493611E-01  0.13854391352E+00  0.44632055997E-01 0.  0.
         14    1    1    2    0    0 -0.12350747623E-01 -0.89537386518E-02 -0.51316713937E-02  0.16094857998E-01  0.00000000000E+00 0.  1.
     999901    1    3    3    0    0  0.18476480079E-01 -0.99078772101E-01  0.79252165005E-01  0.88929122848E+00  0.88000000000E+00 0. -1.
        -11    1    4    4    0    0 -0.13931942845E-01  0.13302306069E-01 -0.24954786509E-01  0.31528603979E-01  0.51100000000E-03 0. -1.
         11    1    4    4    0    0  0.78062103897E-02  0.94730204684E-01 -0.49165707103E-01  0.10701530954E+00  0.51100000000E-03 0.  1.
</event>
<event>
 8    1  0.2257781E+004  0.1043930E+01  0.7957747E-01            NaN
         13   -1    0    0    0    0  0.00000000000E+00  0.00000000000E+00  0.74505805969E-08  0.10566000000E+00  0.10566000000E+00 0.  1.
     999900   -1    0    0    0    0 -0.00000000000E+00 -0.00000000000E+00 -0.74505805969E-08  0.93827000000E+00  0.93827000000E+00 0. -1.
     999902    2    1    2    0    0  0.12289959152E-01 -0.15043170350E-02 -0.15745273027E-02  0.10314486058E+01  0.10313730853E+01 0.  0.
     999903    2    3    3    0    0  0.82888992553E-01 -0.70513742690E-01 -0.79643499137E-01  0.14249343890E+00  0.46027385102E-01 0.  0.
         14    1    1    2    0    0 -0.12289959152E-01  0.15043170350E-02  0.15745273027E-02  0.12481394230E-01  0.00000000000E+00 0.  1.
     999901    1    3    3    0    0 -0.70599033401E-01  0.69009425655E-01  0.78068971834E-01  0.88895516687E+00  0.88000000000E+00 0.  1.
        -11    1    4    4    0    0  0.40442333524E-01 -0.41658347150E-01 -0.68810677662E-01  0.90034275192E-01  0.51100000000E-03 0. -1.
         11    1    4    4    0    0  0.42446659029E-01 -0.28855395540E-01 -0.10832821475E-01  0.52459163705E-01  0.51100000000E-03 0.  1.
</event>
<event>
 8    1  0.2257781E+004  0.1043930E+01  0.7957747E-01            NaN
         13   -1    0    0    0    0  0.00000000000E+00  0.00000000000E+00  0.74505805969E-08  0.10566000000E+00  0.10566000000E+00 0.  1.
     999900   -1    0    0    0    0 -0.00000000000E+00 -0.00000000000E+00 -0.74505805969E-08  0.93827000000E+00  0.93827000000E+00 0.  1.
     999902    2    1    2    0    0 -0.52936856453E-02 -0.44042850258E-02  0.11078944909E-01  0.10308853132E+01  0.10308027770E+01 0.  0.
     999903    2    3    3    0    0 -0.62816278490E-01 -0.91248161643E-01 -0.74415194259E-01  0.14062694874E+00  0.44341918425E-01 0.  0.
         14    1    1    2    0    0  0.52936856453E-02  0.44042850258E-02 -0.11078944909E-01  0.13044686834E-01  0.00000000000E+00 0. -1.
     999901    1    3    3    0    0  0.57522592844E-01  0.86843876617E-01  0.85494139168E-01  0.89025836442E+00  0.88000000000E+00 0. -1.
        -11    1    4    4    0    0 -0.58558570191E-01 -0.95661607593E-01 -0.65797751350E-01  0.13003789645E+00  0.51100000000E-03 0.  1.
         11    1    4    4    0    0 -0.42577082991E-02  0.44134459504E-02 -0.86174429087E-02  0.10589052290E-01  0.51100000000E-03 0. -1.
</event>
<event>
 8    1  0.2257781E+004  0.1043930E+01  0.7957747E-01            NaN
         13   -1    0    0    0    0  0.00000000000E+00  0.00000000000E+00  0.74505805969E-08  0.10566000000E+00  0.10566000000E+00 0.  1.
     999900   -1    0    0    0    0 -0.00000000000E+00 -0.00000000000E+00 -0.74505805969E-08  0.93827000000E+00  0.93827000000E+00 0.  1.
     999902    2    1    2    0    0 -0.13768739369E-01 -0.10481789092E-01 -0.16587823002E-01  0.10199591436E+01  0.10196774257E+01 0.  0.
     999903    2    3    3    0    0 -0.60507961326E-01  0.99164289136E-01 -0.31810650273E-01  0.13179330780E+00  0.53505036092E-01 0.  0.
         14    1    1    2    0    0  0.13768739369E-01  0.10481789092E-01  0.16587823002E-01  0.23970856437E-01  0.00000000000E+00 0.  1.
     999901    1    3    3    0    0  0.46739221957E-01 -0.10964607823E+00  0.15222827272E-01  0.88816583576E+00  0.88000000000E+00 0.  1.
        -11    1    4    4    0    0 -0.14105306301E-01  0.30893611174E-01 -0.35539728593E-01  0.49160027529E-01  0.51100000000E-03 0.  1.
         11    1    4    4    0    0 -0.46402655026E-01  0.68270677962E-01  0.37290783193E-02  0.82633280274E-01  0.51100000000E-03 0. -1.
</event>
<event>
 8    1  0.2257781E+004  0.1043930E+01  0.7957747E-01            NaN
         13   -1    0    0    0    0  0.00000000000E+00  0.00000000000E+00  0.74505805969E-08  0.10566000000E+00  0.10566000000E+00 0. -1.
     999900   -1    0    0    0    0 -0.00000000000E+00 -0.00000000000E+00 -0.74505805969E-08  0.93827000000E+00  0.93827000000E+00 0.  1.
     999902    2    1    2    0    0  0.30289461912E-02 -0.12678703647E-01 -0.53935251099E-02  0.10298227623E+01  0.10297261324E+01 0.  0.
     999903    2    3    3    0    0 -0.31069075792E-01  0.12379656805E+00 -0.29551676070E-01  0.13832301969E+00  0.44374299841E-01 0.  0.
         14    1    1    2    0    0 -0.30289461912E-02  0.12678703647E-01  0.53935251099E-02  0.14107237657E-01  0.00000000000E+00 0. -1.
     999901    1    3    3    0    0  0.34098021983E-01 -0.13647527170E+00  0.24158150960E-01  0.89149974265E+00  0.88000000000E+00 0.  1.
        -11    1    4    4    0    0 -0.30308672164E-01  0.55751016764E-01 -0.30176157770E-01  0.70268435996E-01  0.51100000000E-03 0. -1.
         11    1    4    4    0    0 -0.76040362782E-03  0.68045551287E-01  0.62448170041E-03  0.68054583696E-01  0.51100000000E-03 0.  1.
</event>
<event>
 8    1  0.2257781E+004  0.1043930E+01  0.7957747E-01            NaN
         13   -1    0    0    0    0  0.00000000000E+00  0.00000000000E+00  0.74505805969E-08  0.10566000000E+00  0.10566000000E+00 0.  1.
     999900   -1    0    0    0    0 -0.00000000000E+00 -0.00000000000E+00 -0.74505805969E-08  0.93827000000E+00  0.93827000000E+00 0. -1.
     999902    2    1    2    0    0 -0.42005432198E-02  0.54865524942E-02  0.11400352635E-01  0.10305990262E+01  0.10305128034E+01 0.  0.
     999903    2    3    3    0    0  0.84664700844E-01 -0.18939937497E-02  0.10399815404E+00  0.14125890181E+00  0.44348196316E-01 0.  0.
         14    1    1    2    0    0  0.42005432198E-02 -0.54865524942E-02 -0.11400352635E-01  0.13330973776E-01  0.00000000000E+00 0. -1.
     999901    1    3    3    0    0 -0.88865244064E-01  0.73805462439E-02 -0.92597801402E-01  0.88934012441E+00  0.88000000000E+00 0. -1.
        -11    1    4    4    0    0  0.61874407252E-01 -0.15844138748E-01  0.50384261427E-01  0.81353020387E-01  0.51100000000E-03 0.  1.
         11    1    4    4    0    0  0.22790293592E-01  0.13950144998E-01  0.53613892610E-01  0.59905881425E-01  0.51100000000E-03 0. -1.
</event>
<event>
 8    1  0.2257781E+004  0.1043930E+01  0.7957747E-01            NaN
         13   -1    0    0    0    0  0.00000000000E+00  0.00000000000E+00  0.74505805969E-08  0.10566000000E+00  0.10566000000E+00 0. -1.
     999900   -1    0    0    0    0 -0.00000000000E+00 -0.00000000000E+00 -0.74505805969E-08  0.93827000000E+00  0.93827000000E+00 0.  1.
     999902    2    1    2    0    0  0.42197690214E-02 -0.11681719846E-01 -0.57135599541E-02  0.10302583579E+01  0.10301676419E+01 0.  0.
     999903    2    3    3    0    0 -0.10668386461E+00  0.63609345645E-01  0.42528606057E-01  0.13880131070E+00  0.45050257462E-01 0.  0.
         14    1    1    2    0    0 -0.42197690214E-02  0.11681719846E-01  0.57135599541E-02  0.13671642056E-01  0.00000000000E+00 0. -1.
     999901    1    3    3    0    0  0.11090363363E+00 -0.75291065492E-01 -0.48242166011E-01  0.89145704724E+00  0.88000000000E+00 0.  1.
        -11    1    4    4    0    0 -0.55914846392E-01  0.58771511437E-01  0.26442152005E-01  0.85322969517E-01  0.51100000000E-03 0. -1.
         11    1    4    4    0    0 -0.50769018221E-01  0.48378342089E-02  0.16086454051E-01  0.53478341185E-01  0.51100000000E-03 0.  1.
</event>
<event>
 8    1  0.2257781E+004  0.1043930E+01  0.7957747E-01            NaN
         13   -1    0    0    0    0  0.00000000000E+00  0.00000000000E+00  0.74505805969E-08  0.10566000000E+00  0.10566000000E+00 0. -1.
     999900   -1    0    0    0    0 -0.00000000000E+00 -0.00000000000E+00 -0.74505805969E-08  0.93827000000E+00  0.93827000000E+00 0. -1.
     999902    2    1    2    0    0  0.16721457784E-01  0.60218045116E-02 -0.14721501263E-01  0.10208520478E+01  0.10205911579E+01 0.  0.
     999903    2    3    3    0    0 -0.82612511469E-01 -0.47130160257E-01  0.74941293285E-01  0.12915042416E+00  0.44917207894E-01 0.  0.
         14    1    1    2    0    0 -0.16721457784E-01 -0.60218045116E-02  0.14721501263E-01  0.23077952237E-01  0.00000000000E+00 0. -1.
     999901    1    3    3    0    0  0.99333969253E-01  0.53151964769E-01 -0.89662794548E-01  0.89170162360E+00  0.88000000000E+00 0. -1.
        -11    1    4    4    0    0 -0.24636324620E-01 -0.35305198131E-01  0.16864458427E-01  0.46239340230E-01  0.51100000000E-03 0.  1.
         11    1    4    4    0    0 -0.57976186849E-01 -0.11824962127E-01  0.58076834857E-01  0.82911083933E-01  0.51100000000E-03 0. -1.
</event>
<event>
 8    1  0.2257781E+004  0.1043930E+01  0.7957747E-01            NaN
         13   -1    0    0    0    0  0.00000000000E+00  0.00000000000E+00  0.74505805969E-08  0.10566000000E+00  0.10566000000E+00 0.  1.
     999900   -1    0    0    0    0 -0.00000000000E+00 -0.00000000000E+00 -0.74505805969E-08  0.93827000000E+00  0.93827000000E+00 0.  1.
     999902    2    1    2    0    0 -0.53427174382E-02  0.22454023426E-01 -0.71759103819E-02  0.10197593259E+01  0.10194728350E+01 0.  0.
     999903    2    3    3    0    0 -0.65951231874E-01  0.35052919687E-01  0.98133592697E-01  0.13132124945E+00  0.45130880531E-01 0.  0.
         14    1    1    2    0    0  0.53427174382E-02 -0.22454023426E-01  0.71759103819E-02  0.24170674121E-01  0.00000000000E+00 0.  1.
     999901    1    3    3    0    0  0.60608514436E-01 -0.12598896261E-01 -0.10530950308E+00  0.88843807643E+00  0.88000000000E+00 0.  1.
        -11    1    4    4    0    0 -0.48645941144E-01  0.24162452791E-01  0.34182672627E-01  0.64179186218E-01  0.51100000000E-03 0.  1.
         11    1    4    4    0    0 -0.17305290730E-01  0.10890466896E-01  0.63950920070E-01  0.67142063233E-01  0.51100000000E-03 0. -1.
</event>
<event>
 8    1  0.2257781E+004  0.1043930E+01  0.7957747E-01            NaN
         13   -1    0    0    0    0  0.00000000000E+00  0.00000000000E+00  0.74505805969E-08  0.10566000000E+00  0.10566000000E+00 0. -1.
     999900   -1    0    0    0    0 -0.00000000000E+00 -0.00000000000E+00 -0.74505805969E-08  0.93827000000E+00  0.93827000000E+00 0. -1.
     999902    2    1    2    0    0 -0.92552612828E-02 -0.96561603072E-02  0.33679352837E-02  0.10301370931E+01  0.10300447496E+01 0.  0.
     999903    2    3    3    0    0 -0.32171736254E-01  0.11928249039E+00  0.45807684537E-01  0.13943429596E+00  0.45609711706E-01 0.  0.
         14    1    1    2    0    0  0.92552612828E-02  0.96561603072E-02 -0.33679352837E-02  0.13792906922E-01  0.00000000000E+00 0. -1.
     999901    1    3    3    0    0  0.22916474971E-01 -0.12893865069E+00 -0.42439749253E-01  0.89070279711E+00  0.88000000000E+00 0.  1.
        -11    1    4    4    0    0 -0.28261581885E-02  0.72536062259E-01  0.42544728852E-01  0.84141443845E-01  0.51100000000E-03 0. -1.
         11    1    4    4    0    0 -0.29345578066E-01  0.46746428129E-01  0.32629556850E-02  0.55292852120E-01  0.51100000000E-03 0.  1.
</event>
<event>
 8    1  0.2257781E+004  0.1043930E+01  0.7957747E-01            NaN
         13   -1    0    0    0    0  0.00000000000E+00  0.00000000000E+00  0.74505805969E-08  0.10566000000E+00  0.10566000000E+00 0.  1.
     999900   -1    0    0    0    0 -0.00000000000E+00 -0.00000000000E+00 -0.74505805969E-08  0.93827000000E+00  0.93827000000E+00 0. -1.
     999902    2    1    2    0    0 -0.13033178012E-01 -0.18281210512E-02  0.91859760565E-02  0.10278804545E+01  0.10277551463E+01 0.  0.
     999903    2    3    3    0    0 -0.39524549899E-01 -0.81152797344E-01 -0.94681064934E-01  0.13783407407E+00  0.43425353843E-01 0.  0.
         14    1    1    2    0    0  0.13033178012E-01  0.18281210512E-02 -0.91859760565E-02  0.16049545532E-01  0.00000000000E+00 0. -1.
     999901    1    3    3    0    0  0.26491371887E-01  0.79324676293E-01  0.10386704099E+00  0.89004638040E+00  0.88000000000E+00 0.  1.
        -11    1    4    4    0    0 -0.20277648991E-01 -0.77879727470E-01 -0.73002490816E-01  0.10865569376E+00  0.51100000000E-03 0. -1.
         11    1    4    4    0    0 -0.19246900908E-01 -0.32730698740E-02 -0.21678574118E-01  0.29178380314E-01  0.51100000000E-03 0.  1.
</event>
<event>
 8    1  0.2257781E+004  0.1043930E+01  0.7957747E-01            NaN
         13   -1    0    0    0    0  0.00000000000E+00  0.00000000000E+00  0.74505805969E-08  0.10566000000E+00  0.10566000000E+00 0. -1.
     999900   -1    0    0    0    0 -0.00000000000E+00 -0.00000000000E+00 -0.74505805969E-08  0.93827000000E+00  0.93827000000E+00 0. -1.
     999902    2    1    2    0    0  0.53333023040E-02  0.97748079215E-02 -0.74152928037E-02  0.10305517508E+01  0.10304649114E+01 0.  0.
     999903    2    3    3    0    0  0.73618718292E-01 -0.10134058188E+00  0.41405125829E-01  0.13960115671E+00  0.45655988565E-01 0.  0.
         14    1    1    2    0    0 -0.53333023040E-02 -0.97748079215E-02  0.74152928037E-02  0.13378249165E-01  0.00000000000E+00 0. -1.
     999901    1    3    3    0    0 -0.68285415988E-01  0.11111538980E+00 -0.48820418633E-01  0.89095059412E+00  0.88000000000E+00 0. -1.
        -11    1    4    4    0    0  0.16263382761E-01 -0.18635343379E-01  0.29113665777E-01  0.38205239139E-01  0.51100000000E-03 0.  1.
         11    1    4    4    0    0  0.57355335531E-01 -0.82705238503E-01  0.12291460052E-01  0.10139591758E+00  0.51100000000E-03 0. -1.
</event>
<event>
 8    1  0.2257781E+004  0.1043930E+01  0.7957747E-01            NaN
         13   -1    0    0    0    0  0.00000000000E+00  0.00000000000E+00  0.74505805969E-08  0.10566000000E+00  0.10566000000E+00 0.  1.
     999900   -1    0    0    0    0 -0.00000000000E+00 -0.00000000000E+00 -0.74505805969E-08  0.93827000000E+00  0.93827000000E+00 0. -1.
     999902    2    1    2    0    0 -0.72926987089E-03  0.65376425159E-02  0.11025897582E-01  0.10310908792E+01  0.10310109399E+01 0.  0.
     999903    2    3    3    0    0  0.12852301099E+00 -0.31926876948E-01 -0.12908677983E-01  0.14049639506E+00  0.45112229293E-01 0.  0.
         14    1    1    2    0    0  0.72926987089E-03 -0.65376425159E-02 -0.11025897582E-01  0.12839120753E-01  0.00000000000E+00 0. -1.
     999901    1    3    3    0    0 -0.12925228086E+00  0.38464519464E-01  0.23934575565E-01  0.89059448419E+00  0.88000000000E+00 0. -1.
        -11    1    4    4    0    0  0.47842143046E-01  0.55910712441E-02 -0.17872249808E-01  0.51379073202E-01  0.51100000000E-03 0. -1.
         11    1    4    4    0    0  0.80680867940E-01 -0.37517948193E-01  0.49635718252E-02  0.89117321854E-01  0.51100000000E-03 0.  1.
</event>
<event>
 8    1  0.2257781E+004  0.1043930E+01  0.7957747E-01            NaN
         13   -1    0    0    0    0  0.00000000000E+00  0.00000000000E+00  0.74505805969E-08  0.10566000000E+00  0.10566000000E+00 0. -1.
     999900   -1    0    0    0    0 -0.00000000000E+00 -0.00000000000E+00 -0.74505805969E-08  0.93827000000E+00  0.93827000000E+00 0.  1.
     999902    2    1    2    0    0  0.75028538394E-02 -0.58365980637E-02  0.14846819210E-02  0.10343090347E+01  0.10342642875E+01 0.  0.
     999903    2    3    3    0    0  0.10876162668E-01 -0.12003653982E+00  0.67155856509E-01  0.14449685842E+00  0.42922851992E-01 0.  0.
         14    1    1    2    0    0 -0.75028538394E-02  0.58365980637E-02 -0.14846819210E-02  0.96209652894E-02  0.00000000000E+00 0.  1.
     999901    1    3    3    0    0 -0.33733088291E-02  0.11419994175E+00 -0.65671174588E-01  0.88981217629E+00  0.88000000000E+00 0. -1.
        -11    1    4    4    0    0 -0.38291969042E-02 -0.10110797663E+00  0.65357015547E-01  0.12045449883E+00  0.51100000000E-03 0. -1.
         11    1    4    4    0    0  0.14705359573E-01 -0.18928563188E-01  0.17988409621E-02  0.24042359584E-01  0.51100000000E-03 0.  1.
</event>
<event>
 8    1  0.2257781E+004  0.1043930E+01  0.7957747E-01            NaN
         13   -1    0    0    0    0  0.00000000000E+00  0.00000000000E+00  0.74505805969E-08  0.10566000000E+00  0.10566000000E+00 0. -1.
     999900   -1    0    0    0    0 -0.00000000000E+00 -0.00000000000E+00 -0.74505805969E-08  0.93827000000E+00  0.93827000000E+00 0. -1.
     999902    2    1    2    0    0  0.60212271031E-02 -0.11422172347E-01 -0.51578888413E-02  0.10300258634E+01  0.10299320144E+01 0.  0.
     999903    2    3    3    0    0 -0.37809401935E-01  0.12773054906E-01  0.12467239342E+00  0.13909240055E+00  0.47019021701E-01 0.  0.
         14    1    1    2    0    0 -0.60212271031E-02  0.11422172347E-01  0.51578888413E-02  0.13904136588E-01  0.00000000000E+00 0. -1.
     999901    1    3    3    0    0  0.43830629039E-01 -0.24195227254E-01 -0.12983028226E+00  0.89093346287E+00  0.88000000000E+00 0. -1.
        -11    1    4    4    0    0 -0.22914696979E-01 -0.16833306509E-01  0.53863964765E-01  0.60910026817E-01  0.51100000000E-03 0. -1.
         11    1    4    4    0    0 -0.14894704956E-01  0.29606361415E-01  0.70808428656E-01  0.78182373728E-01  0.51100000000E-03 0.  1.
</event>
<event>
 8    1  0.2257781E+004  0.1043930E+01  0.7957747E-01            NaN
         13   -1    0    0    0    0  0.00000000000E+00  0.00000000000E+00  0.74505805969E-08  0.10566000000E+00  0.10566000000E+00 0. -1.
     999900   -1    0    0    0    0 -0.00000000000E+00 -0.00000000000E+00 -0.74505805969E-08  0.93827000000E+00  0.93827000000E+00 0.  1.
     999902    2    1    2    0    0  0.11521294366E-01 -0.28087634395E-02  0.77171988626E-02  0.10297813416E+01  0.10296841394E+01 0.  0.
     999903    2    3    3    0    0  0.74240583355E-01  0.83066923140E-01 -0.71551467610E-01  0.13984209411E+00  0.44993564331E-01 0.  0.
         14    1    1    2    0    0 -0.11521294366E-01  0.28087634395E-02 -0.77171988626E-02  0.14148658389E-01  0.00000000000E+00 0.  1.
     999901    1    3    3    0    0 -0.62719288988E-01 -0.85875686580E-01  0.79268666473E-01  0.88993924750E+00  0.88000000000E+00 0. -1.
        -11    1    4    4    0    0  0.33415641488E-01  0.91267876423E-02 -0.12701435492E-01  0.36898386594E-01  0.51100000000E-03 0. -1.
         11    1    4    4    0    0  0.40824941867E-01  0.73940135498E-01 -0.58850032118E-01  0.10294370752E+00  0.51100000000E-03 0.  1.
</event>
<event>
 8    1  0.2257781E+004  0.1043930E+01  0.7957747E-01            NaN
         13   -1    0    0    0    0  0.00000000000E+00  0.00000000000E+00  0.74505805969E-08  0.10566000000E+00  0.10566000000E+00 0. -1.
     999900   -1    0    0    0    0 -0.00000000000E+00 -0.00000000000E+00 -0.74505805969E-08  0.93827000000E+00  0.93827000000E+00 0.  1.
     999902    2    1    2    0    0 -0.22419620936E-02 -0.39917104454E-02  0.13609906542E-01  0.10295706928E+01  0.10294705541E+01 0.  0.
     999903    2    3    3    0    0  0.79118447330E-01 -0.10161506650E+00 -0.30061772433E-01  0.13937012475E+00  0.43988305986E-01 0.  0.
         14    1    1    2    0    0  0.22419620936E-02  0.39917104454E-02 -0.13609906542E-01  0.14359307170E-01  0.00000000000E+00 0.  1.
     999901    1    3    3    0    0 -0.81360409423E-01  0.97623356052E-01  0.43671678975E-01  0.89020056808E+00  0.88000000000E+00 0. -1.
        -11    1    4    4    0    0  0.23002588686E-01 -0.62887366685E-01 -0.23077376767E-01  0.70829135349E-01  0.51100000000E-03 0.  1.
         11    1    4    4    0    0  0.56115858643E-01 -0.38727699813E-01 -0.69843956654E-02  0.68540989400E-01  0.51100000000E-03 0. -1.
</event>
<event>
 8    1  0.2257781E+004  0.1043930E+01  0.7957747E-01            NaN
         13   -1    0    0    0    0  0.00000000000E+00  0.00000000000E+00  0.74505805969E-08  0.10566000000E+00  0.10566000000E+00 0.  1.
     999900   -1    0    0    0    0 -0.00000000000E+00 -0.00000000000E+00 -0.74505805969E-08  0.93827000000E+00  0.93827000000E+00 0. -1.
     999902    2    1    2    0    0 -0.57180101403E-02 -0.11806124592E-01  0.50704283492E-02  0.10298662359E+01  0.10297702046E+01 0.  0.
     999903    2    3    3    0    0  0.95278702143E-01  0.33253627408E-01 -0.82875270972E-01  0.13859458078E+00  0.46436111643E-01 0.  0.
         14    1    1    2    0    0  0.57180101403E-02  0.11806124592E-01 -0.50704283492E-02  0.14063764129E-01  0.00000000000E+00 0. -1.
     999901    1    3    3    0    0 -0.10099671228E+00 -0.45059752000E-01  0.87945699321E-01  0.89127165509E+00  0.88000000000E+00 0. -1.
        -11    1    4    4    0    0  0.64128298900E-01 -0.73549138348E-03 -0.56526696253E-01  0.85489813297E-01  0.51100000000E-03 0.  1.
         11    1    4    4    0    0  0.31150403243E-01  0.33989118792E-01 -0.26348574719E-01  0.53104767481E-01  0.51100000000E-03 0. -1.
</event>
<event>
 8    1  0.2257781E+004  0.1043930E+01  0.7957747E-01            NaN
         13   -1    0    0    0    0  0.00000000000E+00  0.00000000000E+00  0.74505805969E-08  0.10566000000E+00  0.10566000000E+00 0.  1.
     999900   -1    0    0    0    0 -0.00000000000E+00 -0.00000000000E+00 -0.74505805969E-08  0.93827000000E+00  0.93827000000E+00 0. -1.
     999902    2    1    2    0    0 -0.55504567809E-03 -0.13381430514E-02  0.13996695738E-01  0.10298585326E+01  0.10297623954E+01 0.  0.
     999903    2    3    3    0    0  0.14080889967E-01 -0.88209284432E-01  0.99801664120E-01  0.14130729695E+00  0.45035882230E-01 0.  0.
         14    1    1    2    0    0  0.55504567809E-03  0.13381430514E-02 -0.13996695738E-01  0.14071467376E-01  0.00000000000E+00 0. -1.
     999901    1    3    3    0    0 -0.14635935645E-01  0.86871141381E-01 -0.85804968383E-01  0.88855123567E+00  0.88000000000E+00 0. -1.
        -11    1    4    4    0    0  0.60001881554E-02 -0.38152104589E-01  0.12952005364E-01  0.40738199597E-01  0.51100000000E-03 0.  1.
         11    1    4    4    0    0  0.80807018111E-02 -0.50057179843E-01  0.86849658756E-01  0.10056909735E+00  0.51100000000E-03 0. -1.
</event>
<event>
 8    1  0.2257781E+004  0.1043930E+01  0.7957747E-01            NaN
         13   -1    0    0    0    0  0.00000000000E+00  0.00000000000E+00  0.74505805969E-08  0.10566000000E+00  0.10566000000E+00 0.  1.
     999900   -1    0    0    0    0 -0.00000000000E+00 -0.00000000000E+00 -0.74505805969E-08  0.93827000000E+00  0.93827000000E+00 0. -1.
     999902    2    1    2    0    0  0.99163114297E-02  0.63560395063E-02 -0.74874402264E-02  0.10299731296E+01  0.10298785625E+01 0.  0.
     999903    2    3    3    0    0  0.11304575664E+00  0.11842065290E-01 -0.71340201651E-01  0.14163594468E+00  0.45296123983E-01 0.  0.
         14    1    1    2    0    0 -0.99163114297E-02 -0.63560395063E-02  0.74874402264E-02  0.13956870413E-01  0.00000000000E+00 0.  1.
     999901    1    3    3    0    0 -0.10312944521E+00 -0.54860257834E-02  0.63852761425E-01  0.88833718491E+00  0.88000000000E+00 0.  1.
        -11    1    4    4    0    0  0.41716751209E-01  0.26441631524E-01 -0.25362146092E-01  0.55524290040E-01  0.51100000000E-03 0. -1.
         11    1    4    4    0    0  0.71329005436E-01 -0.14599566234E-01 -0.45978055559E-01  0.86111654639E-01  0.51100000000E-03 0.  1.
</event>
<event>
 8    1  0.2257781E+004  0.1043930E+01  0.7957747E-01            NaN
         13   -1    0    0    0    0  0.00000000000E+00  0.00000000000E+00  0.74505805969E-08  0.10566000000E+00  0.10566000000E+00 0. -1.
     999900   -1    0    0    0    0 -0.00000000000E+00 -0.00000000000E+00 -0.74505805969E-08  0.93827000000E+00  0.93827000000E+00 0.  1.
     999902    2    1    2    0    0 -0.53049709928E-02  0.39069072497E-02  0.12999151172E-01  0.10293565799E+01  0.10292534110E+01 0.  0.
     999903    2    3    3    0    0  0.64944190818E-01  0.28674884698E-01  0.11274121763E+00  0.14059515116E+00  0.44904536984E-01 0.  0.
         14    1    1    2    0    0  0.53049709928E-02 -0.39069072497E-02 -0.12999151172E-01  0.14573420075E-01  0.00000000000E+00 0. -1.
     999901    1    3    3    0    0 -0.70249161811E-01 -0.24767977449E-01 -0.99742066463E-01  0.88876142877E+00  0.88000000000E+00 0. -1.
        -11    1    4    4    0    0  0.57989488040E-01  0.36100110602E-01  0.74746241402E-01  0.10125838451E+00  0.51100000000E-03 0.  1.
         11    1    4    4    0    0  0.69547027782E-02 -0.74252259035E-02  0.37994976233E-01  0.39336766649E-01  0.51100000000E-03 0. -1.
</event>
<event>
 8    1  0.2257781E+004  0.1043930E+01  0.7957747E-01            NaN
         13   -1    0    0    0    0  0.00000000000E+00  0.00000000000E+00  0.74505805969E-08  0.10566000000E+00  0.10566000000E+00 0.  1.
     999900   -1    0    0    0    0 -0.00000000000E+00 -0.00000000000E+00 -0.74505805969E-08  0.93827000000E+00  0.93827000000E+00 0.  1.
     999902    2    1    2    0    0 -0.13267690672E-01  0.52656513532E-03  0.30077922465E-02  0.10303154599E+01  0.10302255051E+01 0.  0.
     999903    2    3    3    0    0  0.23342327887E-02  0.13137883832E+00  0.20679645695E-01  0.14032780171E+00  0.44703427006E-01 0.  0.
         14    1    1    2    0    0  0.13267690672E-01 -0.52656513532E-03 -0.30077922465E-02  0.13614540051E-01  0.00000000000E+00 0. -1.
     999901    1    3    3    0    0 -0.15601923461E-01 -0.13085227318E+00 -0.17671853448E-01  0.88998765824E+00  0.88000000000E+00 0. -1.
        -11    1    4    4    0    0  0.18208733541E-01  0.88455574227E-01  0.51045855627E-03  0.90313167799E-01  0.51100000000E-03 0.  1.
         11    1    4    4    0    0 -0.15874500752E-01  0.42923264092E-01  0.20169187139E-01  0.50014633911E-01  0.51100000000E-03 0. -1.
</event>
<event>
 8    1  0.2257781E+004  0.1043930E+01  0.7957747E-01            NaN
         13   -1    0    0    0    0  0.00000000000E+00  0.00000000000E+00  0.74505805969E-08  0.10566000000E+00  0.10566000000E+00 0.  1.
     999900   -1    0    0    0    0 -0.00000000000E+00 -0.00000000000E+00 -0.74505805969E-08  0.93827000000E+00  0.93827000000E+00 0.  1.
     999902    2    1    2    0    0  0.40648204289E-02 -0.99677034723E-02 -0.76495022400E-02  0.10307242148E+01  0.10306396142E+01 0.  0.
     999903    2    3    3    0    0  0.15373003022E-01  0.25545697347E-01  0.12873866070E+00  0.13943817341E+00  0.44502242299E-01 0.  0.
         14    1    1    2    0    0 -0.40648204289E-02  0.99677034723E-02  0.76495022400E-02  0.13205785177E-01  0.00000000000E+00 0.  1.
     999901    1    3    3    0    0 -0.11308182594E-01 -0.35513400820E-01 -0.13638816294E+00  0.89128604142E+00  0.88000000000E+00 0.  1.
        -11    1    4    4    0    0 -0.80398581418E-02  0.24883946668E-01  0.93751022128E-01  0.97331214889E-01  0.51100000000E-03 0.  1.
         11    1    4    4    0    0  0.23412861164E-01  0.66175067903E-03  0.34987638571E-01  0.42106958518E-01  0.51100000000E-03 0. -1.
</event>
<event>
 8    1  0.2257781E+004  0.1043930E+01  0.7957747E-01            NaN
         13   -1    0    0    0    0  0.00000000000E+00  0.00000000000E+00  0.74505805969E-08  0.10566000000E+00  0.10566000000E+00 0. -1.
     999900   -1    0    0    0    0 -0.00000000000E+00 -0.00000000000E+00 -0.74505805969E-08  0.93827000000E+00  0.93827000000E+00 0. -1.
     999902    2    1    2    0    0  0.55125594673E-02  0.75599981995E-02 -0.93555212831E-02  0.10306986863E+01  0.10306137561E+01 0.  0.
     999903    2    3    3    0    0  0.95201642592E-02  0.76660957805E-01 -0.11027706178E+00  0.14223025078E+00  0.45835334669E-01 0.  0.
         14    1    1    2    0    0 -0.55125594673E-02 -0.75599981995E-02  0.93555212831E-02  0.13231313734E-01  0.00000000000E+00 0. -1.
     999901    1    3    3    0    0 -0.40076047919E-02 -0.69100959606E-01  0.10092154049E+00  0.88846843548E+00  0.88000000000E+00 0. -1.
        -11    1    4    4    0    0 -0.77409778594E-02 -0.18139971258E-02 -0.19124413856E-01  0.20717568635E-01  0.51100000000E-03 0.  1.
         11    1    4    4    0    0  0.17261142119E-01  0.78474954931E-01 -0.91152647921E-01  0.12151268215E+00  0.51100000000E-03 0. -1.
</event>
<event>
 8    1  0.2257781E+004  0.1043930E+01  0.7957747E-01            NaN
         13   -1    0    0    0    0  0.00000000000E+00  0.00000000000E+00  0.74505805969E-08  0.10566000000E+00  0.10566000000E+00 0.  1.
     999900   -1    0    0    0    0 -0.00000000000E+00 -0.00000000000E+00 -0.74505805969E-08  0.93827000000E+00  0.93827000000E+00 0. -1.
     999902    2    1    2    0    0 -0.10985957989E-01  0.69026405955E-02  0.87882038657E-02  0.10282593189E+01  0.10281399013E+01 0.  0.
     999903    2    3    3    0    0  0.44514796968E-02  0.18000482993E-01 -0.12853921522E+00  0.13740562907E+00  0.44879215568E-01 0.  0.
         14    1    1    2    0    0  0.10985957989E-01 -0.69026405955E-02 -0.87882038657E-02  0.15670681138E-01  0.00000000000E+00 0.  1.
     999901    1    3    3    0    0 -0.15437437686E-01 -0.11097842397E-01  0.13732741909E+00  0.89085368980E+00  0.88000000000E+00 0.  1.
        -11    1    4    4    0    0  0.88530379666E-02  0.28480858427E-01 -0.51374866205E-01  0.59406847893E-01  0.51100000000E-03 0.  1.
         11    1    4    4    0    0 -0.44015582698E-02 -0.10480375434E-01 -0.77164349017E-01  0.77998781174E-01  0.51100000000E-03 0. -1.
</event>
<event>
 7    1  0.2257781E+004  0.1043930E+01  0.7957747E-01            NaN
         13   -1    0    0    0    0  0.00000000000E+00  0.00000000000E+00  0.74505805969E-08  0.10566000000E+00  0.10566000000E+00 0. -1.
     999900   -1    0    0    0    0 -0.00000000000E+00 -0.00000000000E+00 -0.74505805969E-08  0.93827000000E+00  0.93827000000E+00 0. -1.
     999903    2    1    2    0    0  0.53058141891E-02 -0.90140071531E-01 -0.80199505955E-01  0.12858582580E+00  0.44147136727E-01 0.  0.
         14    1    1    2    0    0 -0.67864412487E-02  0.28831302444E-01  0.46291410817E-02  0.29978804723E-01  0.00000000000E+00 0.  1.
     999901    1    1    2    0    0  0.14806270596E-02  0.61308769087E-01  0.75570364874E-01  0.88536536948E+00  0.88000000000E+00 0.  1.
        -11    1    3    3    0    0 -0.25375316574E-03 -0.21632383261E-01  0.16510202760E-02  0.21702796714E-01  0.51100000000E-03 0.  1.
         11    1    3    3    0    0  0.55595673548E-02 -0.68507688270E-01 -0.81850526231E-01  0.10688302909E+00  0.51100000000E-03 0. -1.
</event>
<event>
 8    1  0.2257781E+004  0.1043930E+01  0.7957747E-01            NaN
         13   -1    0    0    0    0  0.00000000000E+00  0.00000000000E+00  0.74505805969E-08  0.10566000000E+00  0.10566000000E+00 0. -1.
     999900   -1    0    0    0    0 -0.00000000000E+00 -0.00000000000E+00 -0.74505805969E-08  0.93827000000E+00  0.93827000000E+00 0.  1.
     999902    2    1    2    0    0 -0.10732410272E-01 -0.60559896757E-02 -0.49582195123E-03  0.10315968949E+01  0.10315231690E+01 0.  0.
     999903    2    3    3    0    0  0.10628808458E+00 -0.78810978255E-01 -0.16861861313E-01  0.14072376602E+00  0.44838919896E-01 0.  0.
         14    1    1    2    0    0  0.10732410272E-01  0.60559896757E-02  0.49582195123E-03  0.12333105068E-01  0.00000000000E+00 0. -1.
     999901    1    3    3    0    0 -0.11702049485E+00  0.72754988580E-01  0.16366039362E-01  0.89087312892E+00  0.88000000000E+00 0.  1.
        -11    1    4    4    0    0  0.60589299200E-01 -0.34191504811E-01 -0.29577599175E-01  0.75599058676E-01  0.51100000000E-03 0. -1.
         11    1    4    4    0    0  0.45698785382E-01 -0.44619473445E-01  0.12715737862E-01  0.65124707341E-01  0.51100000000E-03 0.  1.
</event>
<event>
 8    1  0.2257781E+004  0.1043930E+01  0.7957747E-01            NaN
         13   -1    0    0    0    0  0.00000000000E+00  0.00000000000E+00  0.74505805969E-08  0.10566000000E+00  0.10566000000E+00 0.  1.
     999900   -1    0    0    0    0 -0.00000000000E+00 -0.00000000000E+00 -0.74505805969E-08  0.93827000000E+00  0.93827000000E+00 0.  1.
     999902    2    1    2    0    0  0.13997556560E-01 -0.43084260979E-03 -0.27220286731E-02  0.10296637232E+01  0.10295648868E+01 0.  0.
     999903    2    3    3    0    0  0.43066682758E-01  0.12394609070E+00  0.20572353749E-01  0.14013729640E+00  0.44697511567E-01 0.  0.
         14    1    1    2    0    0 -0.13997556560E-01  0.43084260979E-03  0.27220286731E-02  0.14266276848E-01  0.00000000000E+00 0.  1.
     999901    1    3    3    0    0 -0.29069126198E-01 -0.12437693331E+00 -0.23294382422E-01  0.88952642675E+00  0.88000000000E+00 0. -1.
        -11    1    4    4    0    0  0.14337528008E-01  0.98021287158E-01  0.21724770706E-01  0.10141974280E+00  0.51100000000E-03 0.  1.
         11    1    4    4    0    0  0.28729154750E-01  0.25924803541E-01 -0.11524169568E-02  0.38717553605E-01  0.51100000000E-03 0. -1.
</event>
<event>
 8    1  0.2257781E+004  0.1043930E+01  0.7957747E-01            NaN
         13   -1    0    0    0    0  0.00000000000E+00  0.00000000000E+00  0.74505805969E-08  0.10566000000E+00  0.10566000000E+00 0. -1.
     999900   -1    0    0    0    0 -0.00000000000E+00 -0.00000000000E+00 -0.74505805969E-08  0.93827000000E+00  0.93827000000E+00 0.  1.
     999902    2    1    2    0    0 -0.87094838488E-02  0.55762587428E-02  0.98517297741E-02  0.10296469208E+01  0.10295478499E+01 0.  0.
     999903    2    3    3    0    0  0.10668951704E+00 -0.25553082063E-02  0.77704613265E-01  0.13948566266E+00  0.45045094282E-01 0.  0.
         14    1    1    2    0    0  0.87094838488E-02 -0.55762587428E-02 -0.98517297741E-02  0.14283079151E-01  0.00000000000E+00 0.  1.
     999901    1    3    3    0    0 -0.11539900089E+00  0.81315669491E-02 -0.67852883491E-01  0.89016125819E+00  0.88000000000E+00 0.  1.
        -11    1    4    4    0    0  0.88194318566E-01 -0.19786538447E-01  0.63741686812E-01  0.11060293255E+00  0.51100000000E-03 0. -1.
         11    1    4    4    0    0  0.18495198472E-01  0.17231230241E-01  0.13962926453E-01  0.28882730104E-01  0.51100000000E-03 0.  1.
</event>
<event>
 8    1  0.2257781E+004  0.1043930E+01  0.7957747E-01            NaN
         13   -1    0    0    0    0  0.00000000000E+00  0.00000000000E+00  0.74505805969E-08  0.10566000000E+00  0.10566000000E+00 0. -1.
     999900   -1    0    0    0    0 -0.00000000000E+00 -0.00000000000E+00 -0.74505805969E-08  0.93827000000E+00  0.93827000000E+00 0.  1.
     999902    2    1    2    0    0 -0.84092516553E-02  0.10453318006E-01  0.25672212022E-04  0.10305140382E+01  0.10304267053E+01 0.  0.
     999903    2    3    3    0    0  0.39656157544E-02 -0.11912536055E+00 -0.47965383333E-01  0.13964541006E+00  0.54713662986E-01 0.  0.
         14    1    1    2    0    0  0.84092516553E-02 -0.10453318006E-01 -0.25672212022E-04  0.13415961755E-01  0.00000000000E+00 0.  1.
     999901    1    3    3    0    0 -0.12374867410E-01  0.12957867855E+00  0.47991055545E-01  0.89086862819E+00  0.88000000000E+00 0. -1.
        -11    1    4    4    0    0 -0.23181521071E-01 -0.79689466206E-01 -0.26029304456E-01  0.86980341197E-01  0.51100000000E-03 0.  1.
         11    1    4    4    0    0  0.27147136825E-01 -0.39435894343E-01 -0.21936078877E-01  0.52665068859E-01  0.51100000000E-03 0. -1.
</event>
<event>
 8    1  0.2257781E+004  0.1043930E+01  0.7957747E-01            NaN
         13   -1    0    0    0    0  0.00000000000E+00  0.00000000000E+00  0.74505805969E-08  0.10566000000E+00  0.10566000000E+00 0. -1.
     999900   -1    0    0    0    0 -0.00000000000E+00 -0.00000000000E+00 -0.74505805969E-08  0.93827000000E+00  0.93827000000E+00 0. -1.
     999902    2    1    2    0    0 -0.79981369561E-02 -0.11739771227E-01 -0.10129342251E-03  0.10297242729E+01  0.10296262795E+01 0.  0.
     999903    2    3    3    0    0 -0.11418313822E+00 -0.60359290989E-01 -0.35944543938E-01  0.14128527619E+00  0.44592442944E-01 0.  0.
         14    1    1    2    0    0  0.79981369561E-02  0.11739771227E-01  0.10129342251E-03  0.14205727140E-01  0.00000000000E+00 0. -1.
     999901    1    3    3    0    0  0.10618500126E+00  0.48619519762E-01  0.35843250515E-01  0.88843899667E+00  0.88000000000E+00 0.  1.
        -11    1    4    4    0    0 -0.41095533935E-01 -0.45142702988E-01 -0.24386107542E-01  0.65739256951E-01  0.51100000000E-03 0. -1.
         11    1    4    4    0    0 -0.73087604281E-01 -0.15216588001E-01 -0.11558436396E-01  0.75546019239E-01  0.51100000000E-03 0.  1.
</event>
<event>
 8    1  0.2257781E+004  0.1043930E+01  0.7957747E-01            NaN
         13   -1    0    0    0    0  0.00000000000E+00  0.00000000000E+00  0.74505805969E-08  0.10566000000E+00  0.10566000000E+00 0. -1.
     999900   -1    0    0    0    0 -0.00000000000E+00 -0.00000000000E+00 -0.74505805969E-08  0.93827000000E+00  0.93827000000E+00 0. -1.
     999902    2    1    2    0    0  0.72383079858E-02 -0.70134086558E-02  0.98080166348E-02  0.10298666365E+01  0.10297706107E+01 0.  0.
     999903    2    3    3    0    0  0.74350480061E-01  0.79798817160E-01  0.76391801813E-01  0.14055577595E+00  0.44993040162E-01 0.  0.
         14    1    1    2    0    0 -0.72383079858E-02  0.70134086558E-02 -0.98080166348E-02  0.14063363530E-01  0.00000000000E+00 0.  1.
     999901    1    3    3    0    0 -0.67112172075E-01 -0.86812225815E-01 -0.66583785178E-01  0.88931086052E+00  0.88000000000E+00 0. -1.
        -11    1    4    4    0    0  0.53885915801E-01  0.25857782041E-01  0.32287308991E-01  0.67934146471E-01  0.51100000000E-03 0. -1.
         11    1    4    4    0    0  0.20464564260E-01  0.53941035118E-01  0.44104492822E-01  0.72621629478E-01  0.51100000000E-03 0.  1.
</event>
<event>
 8    1  0.2257781E+004  0.1043930E+01  0.7957747E-01            NaN
         13   -1    0    0    0    0  0.00000000000E+00  0.00000000000E+00  0.74505805969E-08  0.10566000000E+00  0.10566000000E+00 0. -1.
     999900   -1    0    0    0    0 -0.00000000000E+00 -0.00000000000E+00 -0.74505805969E-08  0.93827000000E+00  0.93827000000E+00 0. -1.
     999902    2    1    2    0    0 -0.52179483262E-02  0.67839498131E-02  0.11069658988E-01  0.10299376339E+01  0.10298425818E+01 0.  0.
     999903    2    3    3    0    0  0.36312854345E-01 -0.12418324868E+00 -0.21342657440E-01  0.13868695482E+00  0.45149305285E-01 0.  0.
         14    1    1    2    0    0  0.52179483262E-02 -0.67839498131E-02 -0.11069658988E-01  0.13992366130E-01  0.00000000000E+00 0.  1.
     999901    1    3    3    0    0 -0.41530802671E-01  0.13096719849E+00  0.32412316428E-01  0.89125067905E+00  0.88000000000E+00 0. -1.
        -11    1    4    4    0    0  0.46631501683E-01 -0.94932038348E-01 -0.19954884271E-01  0.10763385797E+00  0.51100000000E-03 0.  1.
         11    1    4    4    0    0 -0.10318647337E-01 -0.29251210330E-01 -0.13877731688E-02  0.31053096850E-01  0.51100000000E-03 0. -1.
</event>
<event>
 8    1  0.2257781E+004  0.1043930E+01  0.7957747E-01            NaN
         13   -1    0    0    0    0  0.00000000000E+00  0.00000000000E+00  0.74505805969E-08  0.10566000000E+00  0.10566000000E+00 0. -1.
     999900   -1    0    0    0    0 -0.00000000000E+00 -0.00000000000E+00 -0.74505805969E-08  0.93827000000E+00  0.93827000000E+00 0. -1.
     999902    2    1    2    0    0  0.10335304998E-01  0.34428978808E-02  0.96966218846E-02  0.10293458802E+01  0.10292425586E+01 0.  0.
     999903    2    3    3    0    0 -0.20746935326E-01  0.84206051797E-01 -0.99023811269E-01  0.13844244810E+00  0.42889413056E-01 0.  0.
         14    1    1    2    0    0 -0.10335304998E-01 -0.34428978808E-02 -0.96966218846E-02  0.14584119829E-01  0.00000000000E+00 0.  1.
     999901    1    3    3    0    0  0.31082240325E-01 -0.80763153916E-01  0.10872043315E+00  0.89090343207E+00  0.88000000000E+00 0.  1.
        -11    1    4    4    0    0  0.95386270175E-02  0.29766082715E-01 -0.50847968847E-01  0.59689045414E-01  0.51100000000E-03 0. -1.
         11    1    4    4    0    0 -0.30285562344E-01  0.54439969082E-01 -0.48175842422E-01  0.78753402684E-01  0.51100000000E-03 0.  1.
</event>
<event>
 8    1  0.2257781E+004  0.1043930E+01  0.7957747E-01            NaN
         13   -1    0    0    0    0  0.00000000000E+00  0.00000000000E+00  0.74505805969E-08  0.10566000000E+00  0.10566000000E+00 0. -1.
     999900   -1    0    0    0    0 -0.00000000000E+00 -0.00000000000E+00 -0.74505805969E-08  0.93827000000E+00  0.93827000000E+00 0. -1.
     999902    2    1    2    0    0  0.10875662585E-01  0.99124656694E-03 -0.76286955712E-02  0.10306086036E+01  0.10305225054E+01 0.  0.
     999903    2    3    3    0    0  0.88498878989E-01 -0.96145044545E-01 -0.30851207021E-01  0.14156411211E+00  0.44862898817E-01 0.  0.
         14    1    1    2    0    0 -0.10875662585E-01 -0.99124656694E-03  0.76286955712E-02  0.13321396419E-01  0.00000000000E+00 0. -1.
     999901    1    3    3    0    0 -0.77623216403E-01  0.97136291112E-01  0.23222511450E-01  0.88904449147E+00  0.88000000000E+00 0.  1.
        -11    1    4    4    0    0 -0.27580506951E-02 -0.17290495947E-01 -0.28189575353E-02  0.17741920311E-01  0.51100000000E-03 0. -1.
         11    1    4    4    0    0  0.91256929684E-01 -0.78854548598E-01 -0.28032249486E-01  0.12382219180E+00  0.51100000000E-03 0.  1.
</event>
<event>
 8    1  0.2257781E+004  0.1043930E+01  0.7957747E-01            NaN
         13   -1    0    0    0    0  0.00000000000E+00  0.00000000000E+00  0.74505805969E-08  0.10566000000E+00  0.10566000000E+00 0. -1.
     999900   -1    0    0    0    0 -0.00000000000E+00 -0.00000000000E+00 -0.74505805969E-08  0.93827000000E+00  0.93827000000E+00 0.  1.
     999902    2    1    2    0    0 -0.48515319590E-02 -0.60997507121E-02  0.10224749619E-01  0.10310734909E+01  0.10309933336E+01 0.  0.
     999903    2    3    3    0    0 -0.12348635909E+00 -0.16490824593E-01  0.59142132019E-01  0.14170567784E+00  0.32586487653E-01 0.  0.
         14    1    1    2    0    0  0.48515319590E-02  0.60997507121E-02 -0.10224749619E-01  0.12856509086E-01  0.00000000000E+00 0.  1.
     999901    1    3    3    0    0  0.11863482713E+00  0.10391073881E-01 -0.48917382400E-01  0.88936781307E+00  0.88000000000E+00 0.  1.
        -11    1    4    4    0    0 -0.83513846907E-01 -0.26235997823E-01  0.37774563979E-01  0.95341853411E-01  0.51100000000E-03 0. -1.
         11    1    4    4    0    0 -0.39972512179E-01  0.97451732304E-02  0.21367568040E-01  0.46363824434E-01  0.51100000000E-03 0.  1.
</event>
<event>
 8    1  0.2257781E+004  0.1043930E+01  0.7957747E-01            NaN
         13   -1    0    0    0    0  0.00000000000E+00  0.00000000000E+00  0.74505805969E-08  0.10566000000E+00  0.10566000000E+00 0.  1.
     999900   -1    0    0    0    0 -0.00000000000E+00 -0.00000000000E+00 -0.74505805969E-08  0.93827000000E+00  0.93827000000E+00 0. -1.
     999902    2    1    2    0    0 -0.29576008833E-02 -0.88660751135E-02  0.10091933255E-01  0.10301749352E+01  0.10300831012E+01 0.  0.
     999903    2    3    3    0    0  0.12208360190E-01  0.93984539996E-01  0.94973626921E-01  0.13999902150E+00  0.39969968653E-01 0.  0.
         14    1    1    2    0    0  0.29576008833E-02  0.88660751135E-02 -0.10091933255E-01  0.13755064803E-01  0.00000000000E+00 0. -1.
     999901    1    3    3    0    0 -0.15165961073E-01 -0.10285061511E+00 -0.84881693666E-01  0.89017591370E+00  0.88000000000E+00 0. -1.
        -11    1    4    4    0    0 -0.38515273396E-02  0.83297790952E-01  0.73860261678E-01  0.11139549190E+00  0.51100000000E-03 0.  1.
         11    1    4    4    0    0  0.16059887529E-01  0.10686749044E-01  0.21113365243E-01  0.28603529598E-01  0.51100000000E-03 0. -1.
</event>
<event>
 8    1  0.2257781E+004  0.1043930E+01  0.7957747E-01            NaN
         13   -1    0    0    0    0  0.00000000000E+00  0.00000000000E+00  0.74505805969E-08  0.10566000000E+00  0.10566000000E+00 0.  1.
     999900   -1    0    0    0    0 -0.00000000000E+00 -0.00000000000E+00 -0.74505805969E-08  0.93827000000E+00  0.93827000000E+00 0. -1.
     999902    2    1    2    0    0 -0.86912040722E-02  0.37731606215E-02  0.95088647007E-02  0.10305064283E+01  0.10304189956E+01 0.  0.
     999903    2    3    3    0    0  0.11310944228E+00  0.60057223395E-01 -0.27757366162E-01  0.13955633703E+00  0.48009205518E-01 0.  0.
         14    1    1    2    0    0  0.86912040722E-02 -0.37731606215E-02 -0.95088647007E-02  0.13423571700E-01  0.00000000000E+00 0. -1.
     999901    1    3    3    0    0 -0.12180064635E+00 -0.56284062774E-01  0.37266230863E-01  0.89095009127E+00  0.88000000000E+00 0.  1.
        -11    1    4    4    0    0  0.31648323786E-01  0.42656410255E-01 -0.59556314182E-02  0.53450130037E-01  0.51100000000E-03 0.  1.
         11    1    4    4    0    0  0.81461118491E-01  0.17400813140E-01 -0.21801734744E-01  0.86106206992E-01  0.51100000000E-03 0. -1.
</event>
<event>
 8    1  0.2257781E+004  0.1043930E+01  0.7957747E-01            NaN
         13   -1    0    0    0    0  0.00000000000E+00  0.00000000000E+00  0.74505805969E-08  0.10566000000E+00  0.10566000000E+00 0. -1.
     999900   -1    0    0    0    0 -0.00000000000E+00 -0.00000000000E+00 -0.74505805969E-08  0.93827000000E+00  0.93827000000E+00 0. -1.
     999902    2    1    2    0    0 -0.17405401291E-02  0.13514135777E-01 -0.92373099224E-02  0.10274682492E+01  0.10273363684E+01 0.  0.
     999903    2    3    3    0    0 -0.15239162002E-01 -0.12506265075E+00 -0.26427812139E-01  0.13635588144E+00  0.44962189414E-01 0.  0.
         14    1    1    2    0    0  0.17405401291E-02 -0.13514135777E-01  0.92373099224E-02  0.16461750829E-01  0.00000000000E+00 0. -1.
     999901    1    3    3    0    0  0.13498621873E-01  0.13857678653E+00  0.17190502217E-01  0.89111236773E+00  0.88000000000E+00 0.  1.
        -11    1    4    4    0    0 -0.28915118238E-01 -0.54727974069E-01 -0.83761213737E-02  0.62463235096E-01  0.51100000000E-03 0. -1.
         11    1    4    4    0    0  0.13675956236E-01 -0.70334676684E-01 -0.18051690765E-01  0.73892646344E-01  0.51100000000E-03 0.  1.
</event>
<event>
 8    1  0.2257781E+004  0.1043930E+01  0.7957747E-01            NaN
         13   -1    0    0    0    0  0.00000000000E+00  0.00000000000E+00  0.74505805969E-08  0.10566000000E+00  0.10566000000E+00 0. -1.
     999900   -1    0    0    0    0 -0.00000000000E+00 -0.00000000000E+00 -0.74505805969E-08  0.93827000000E+00  0.93827000000E+00 0.  1.
     999902    2    1    2    0    0  0.11050980517E-01  0.41114533721E-02  0.79206959983E-02  0.10297255766E+01  0.10296276013E+01 0.  0.
     999903    2    3    3    0    0  0.53810600017E-01 -0.11872984826E+00  0.17463993604E-01  0.14011361345E+00  0.48316416023E-01 0.  0.
         14    1    1    2    0    0 -0.11050980517E-01 -0.41114533721E-02 -0.79206959983E-02  0.14204423407E-01  0.00000000000E+00 0.  1.
     999901    1    3    3    0    0 -0.42759619500E-01  0.12284130164E+00 -0.95432976057E-02  0.88961196315E+00  0.88000000000E+00 0.  1.
        -11    1    4    4    0    0  0.26823497175E-02 -0.47219591371E-01 -0.93333397316E-02  0.48210550306E-01  0.51100000000E-03 0. -1.
         11    1    4    4    0    0  0.51128250300E-01 -0.71510256892E-01  0.26797333336E-01  0.91903063139E-01  0.51100000000E-03 0.  1.
</event>
<event>
 8    1  0.2257781E+004  0.1043930E+01  0.7957747E-01            NaN
         13   -1    0    0    0    0  0.00000000000E+00  0.00000000000E+00  0.74505805969E-08  0.10566000000E+00  0.10566000000E+00 0.  1.
     999900   -1    0    0    0    0 -0.00000000000E+00 -0.00000000000E+00 -0.74505805969E-08  0.93827000000E+00  0.93827000000E+00 0.  1.
     999902    2    1    2    0    0 -0.46694305060E-02 -0.10598654105E-01 -0.73895158869E-02  0.10301917325E+01  0.10301001241E+01 0.  0.
     999903    2    3    3    0    0  0.21986600767E-02 -0.13333170757E+00  0.13644889168E-01  0.14139871984E+00  0.45002629054E-01 0.  0.
         14    1    1    2    0    0  0.46694305060E-02  0.10598654105E-01  0.73895158869E-02  0.13738267545E-01  0.00000000000E+00 0.  1.
     999901    1    3    3    0    0 -0.68680905827E-02  0.12273305346E+00 -0.21034405054E-01  0.88879301262E+00  0.88000000000E+00 0.  1.
        -11    1    4    4    0    0  0.20712835488E-01 -0.36026558852E-01  0.67801695076E-02  0.42108981420E-01  0.51100000000E-03 0.  1.
         11    1    4    4    0    0 -0.18514175411E-01 -0.97305148717E-01  0.68647196599E-02  0.99289738418E-01  0.51100000000E-03 0. -1.
</event>
<event>
 8    1  0.2257781E+004  0.1043930E+01  0.7957747E-01            NaN
         13   -1    0    0    0    0  0.00000000000E+00  0.00000000000E+00  0.74505805969E-08  0.10566000000E+00  0.10566000000E+00 0. -1.
     999900   -1    0    0    0    0 -0.00000000000E+00 -0.00000000000E+00 -0.74505805969E-08  0.93827000000E+00  0.93827000000E+00 0.  1.
     999902    2    1    2    0    0  0.12165275411E-01  0.69083384800E-02 -0.10627434146E-03  0.10299396333E+01  0.10298446086E+01 0.  0.
     999903    2    3    3    0    0 -0.55314232865E-01 -0.99588725890E-01 -0.64494921562E-01  0.13862543131E+00  0.45605225776E-01 0.  0.
         14    1    1    2    0    0 -0.12165275411E-01 -0.69083384800E-02  0.10627434146E-03  0.13990366708E-01  0.00000000000E+00 0. -1.
     999901    1    3    3    0    0  0.67479508276E-01  0.10649706437E+00  0.64388647220E-01  0.89131420198E+00  0.88000000000E+00 0. -1.
        -11    1    4    4    0    0  0.17291830809E-02 -0.38572313352E-01 -0.14318188526E-01  0.41183553455E-01  0.51100000000E-03 0. -1.
         11    1    4    4    0    0 -0.57043415946E-01 -0.61016412537E-01 -0.50176733036E-01  0.97441877860E-01  0.51100000000E-03 0.  1.
</event>
<event>
 7    1  0.2257781E+004  0.1043930E+01  0.7957747E-01            NaN
         13   -1    0    0    0    0  0.00000000000E+00  0.00000000000E+00  0.74505805969E-08  0.10566000000E+00  0.10566000000E+00 0.  1.
     999900   -1    0    0    0    0 -0.00000000000E+00 -0.00000000000E+00 -0.74505805969E-08  0.93827000000E+00  0.93827000000E+00 0. -1.
     999902    2    1    2    0    0  0.12210321843E-01 -0.42992401975E-02  0.36903085686E-02  0.10304691752E+01  0.10303812534E+01 0.  0.
         14    1    1    2    0    0 -0.12210321843E-01  0.42992401975E-02 -0.36903085686E-02  0.13460824757E-01  0.00000000000E+00 0. -1.
     999901    1    3    3    0    0  0.78745697706E-01 -0.11737309383E+00 -0.33851296188E-01  0.89192109422E+00  0.88000000000E+00 0.  1.
        -11    1    3    3    0    0 -0.38695978719E-01  0.54176072613E-01  0.81443032743E-02  0.67074707675E-01  0.51100000000E-03 0.  1.
         11    1    3    3    0    0 -0.27839397144E-01  0.58897781019E-01  0.29397301483E-01  0.71473373348E-01  0.51100000000E-03 0. -1.
</event>
<event>
 8    1  0.2257781E+004  0.1043930E+01  0.7957747E-01            NaN
         13   -1    0    0    0    0  0.00000000000E+00  0.00000000000E+00  0.74505805969E-08  0.10566000000E+00  0.10566000000E+00 0.  1.
     999900   -1    0    0    0    0 -0.00000000000E+00 -0.00000000000E+00 -0.74505805969E-08  0.93827000000E+00  0.93827000000E+00 0.  1.
     999902    2    1    2    0    0  0.12905608986E-01 -0.21508472260E-02 -0.14771998600E-02  0.10307632614E+01  0.10306791634E+01 0.  0.
     999903    2    3    3    0    0  0.12188151412E+00  0.57136865045E-01  0.98866831429E-03  0.14205810146E+00  0.45385040401E-01 0.  0.
         14    1    1    2    0    0 -0.12905608986E-01  0.21508472260E-02  0.14771998600E-02  0.13166738644E-01  0.00000000000E+00 0.  1.
     999901    1    3    3    0    0 -0.10897590514E+00 -0.59287712271E-01 -0.24658681743E-02  0.88870515990E+00  0.88000000000E+00 0.  1.
        -11    1    4    4    0    0  0.67879142577E-01  0.10544533069E-01  0.12459239429E-01  0.69815893197E-01  0.51100000000E-03 0. -1.
         11    1    4    4    0    0  0.54002371546E-01  0.46592331976E-01 -0.11470571115E-01  0.72242208259E-01  0.51100000000E-03 0.  1.
</event>
<event>
 8    1  0.2257781E+004  0.1043930E+01  0.7957747E-01            NaN
         13   -1    0    0    0    0  0.00000000000E+00  0.00000000000E+00  0.74505805969E-08  0.10566000000E+00  0.10566000000E+00 0. -1.
     999900   -1    0    0    0    0 -0.00000000000E+00 -0.00000000000E+00 -0.74505805969E-08  0.93827000000E+00  0.93827000000E+00 0.  1.
     999902    2    1    2    0    0  0.11934045553E-01  0.74897328547E-02  0.23148796266E-02  0.10296514773E+01  0.10295524701E+01 0.  0.
     999903    2    3    3    0    0 -0.26566342878E-01 -0.12803120245E+00 -0.14485852261E-01  0.13828709147E+00  0.42611270551E-01 0.  0.
         14    1    1    2    0    0 -0.11934045553E-01 -0.74897328547E-02 -0.23148796266E-02  0.14278522654E-01  0.00000000000E+00 0.  1.
     999901    1    3    3    0    0  0.38500388431E-01  0.13552093530E+00  0.16800731887E-01  0.89136438587E+00  0.88000000000E+00 0.  1.
        -11    1    4    4    0    0 -0.20965001455E-01 -0.41993713274E-01  0.11324401918E-01  0.48285675312E-01  0.51100000000E-03 0. -1.
         11    1    4    4    0    0 -0.56013414236E-02 -0.86037489173E-01 -0.25810254179E-01  0.90001416159E-01  0.51100000000E-03 0.  1.
</event>
<event>
 8    1  0.2257781E+004  0.1043930E+01  0.7957747E-01            NaN
         13   -1    0    0    0    0  0.00000000000E+00  0.00000000000E+00  0.74505805969E-08  0.10566000000E+00  0.10566000000E+00 0. -1.
     999900   -1    0    0    0    0 -0.00000000000E+00 -0.00000000000E+00 -0.74505805969E-08  0.93827000000E+00  0.93827000000E+00 0. -1.
     999902    2    1    2    0    0  0.55324590271E-02  0.70819660400E-02 -0.94732380447E-02  0.10308722596E+01  0.10307895571E+01 0.  0.
     999903    2    3    3    0    0 -0.75287092270E-01 -0.92773256167E-01 -0.58738441518E-01  0.14018155819E+00  0.43882131001E-01 0.  0.
         14    1    1    2    0    0 -0.55324590271E-02 -0.70819660400E-02  0.94732380447E-02  0.13057740422E-01  0.00000000000E+00 0. -1.
     999901    1    3    3    0    0  0.80819551297E-01  0.99855222207E-01  0.49265203473E-01  0.89069070139E+00  0.88000000000E+00 0. -1.
        -11    1    4    4    0    0 -0.65412200318E-01 -0.94186478689E-01 -0.61073926374E-01  0.12992357108E+00  0.51100000000E-03 0.  1.
         11    1    4    4    0    0 -0.98748919519E-02  0.14132225223E-02  0.23354848562E-02  0.10257987106E-01  0.51100000000E-03 0. -1.
</event>
<event>
 8    1  0.2257781E+004  0.1043930E+01  0.7957747E-01            NaN
         13   -1    0    0    0    0  0.00000000000E+00  0.00000000000E+00  0.74505805969E-08  0.10566000000E+00  0.10566000000E+00 0. -1.
     999900   -1    0    0    0    0 -0.00000000000E+00 -0.00000000000E+00 -0.74505805969E-08  0.93827000000E+00  0.93827000000E+00 0.  1.
     999902    2    1    2    0    0 -0.62997688160E-02  0.87023640693E-02  0.54715738753E-02  0.10318736179E+01  0.10318031823E+01 0.  0.
     999903    2    3    3    0    0  0.44354742549E-01  0.45487352893E-01  0.11924420051E+00  0.14234384020E+00  0.44790032696E-01 0.  0.
         14    1    1    2    0    0  0.62997688160E-02 -0.87023640693E-02 -0.54715738753E-02  0.12056382053E-01  0.00000000000E+00 0.  1.
     999901    1    3    3    0    0 -0.50654511365E-01 -0.36784988824E-01 -0.11377262663E+00  0.88952977775E+00  0.88000000000E+00 0.  1.
        -11    1    4    4    0    0  0.21133446932E-01  0.33273046380E-01  0.30619091552E-01  0.49915008595E-01  0.51100000000E-03 0.  1.
         11    1    4    4    0    0  0.23221295617E-01  0.12214306513E-01  0.88625108956E-01  0.92428831607E-01  0.51100000000E-03 0. -1.
</event>
<event>
 8    1  0.2257781E+004  0.1043930E+01  0.7957747E-01            NaN
         13   -1    0    0    0    0  0.00000000000E+00  0.00000000000E+00  0.74505805969E-08  0.10566000000E+00  0.10566000000E+00 0.  1.
     999900   -1    0    0    0    0 -0.00000000000E+00 -0.00000000000E+00 -0.74505805969E-08  0.93827000000E+00  0.93827000000E+00 0.  1.
     999902    2    1    2    0    0  0.11959317999E-01  0.52886469410E-02 -0.45084643122E-02  0.10300981048E+01  0.10300052351E+01 0.  0.
     999903    2    3    3    0    0 -0.13028353329E+00 -0.12955960646E-01 -0.31767284213E-02  0.13848851091E+00  0.45025771388E-01 0.  0.
         14    1    1    2    0    0 -0.11959317999E-01 -0.52886469410E-02  0.45084643122E-02  0.13831895168E-01  0.00000000000E+00 0. -1.
     999901    1    3    3    0    0  0.14224285129E+00  0.18244607587E-01 -0.13317358909E-02  0.89160959392E+00  0.88000000000E+00 0. -1.
        -11    1    4    4    0    0 -0.39949961068E-01 -0.21172533754E-01  0.11363525131E-01  0.46622595373E-01  0.51100000000E-03 0. -1.
         11    1    4    4    0    0 -0.90333572220E-01  0.82165731079E-02 -0.14540253552E-01  0.91865915540E-01  0.51100000000E-03 0.  1.
</event>
<event>
 8    1  0.2257781E+004  0.1043930E+01  0.7957747E-01            NaN
         13   -1    0    0    0    0  0.00000000000E+00  0.00000000000E+00  0.74505805969E-08  0.10566000000E+00  0.10566000000E+00 0. -1.
     999900   -1    0    0    0    0 -0.00000000000E+00 -0.00000000000E+00 -0.74505805969E-08  0.93827000000E+00  0.93827000000E+00 0.  1.
     999902    2    1    2    0    0  0.33405494267E-02  0.21959070158E-02  0.68224268729E-02  0.10360226119E+01  0.10359924351E+01 0.  0.
     999903    2    3    3    0    0  0.85849965447E-02  0.11193635414E+00  0.82262040223E-01  0.14598800290E+00  0.44068176554E-01 0.  0.
         14    1    1    2    0    0 -0.33405494267E-02 -0.21959070158E-02 -0.68224268729E-02  0.79073880978E-02  0.00000000000E+00 0.  1.
     999901    1    3    3    0    0 -0.52444471180E-02 -0.10974044712E+00 -0.75439613350E-01  0.89003460900E+00  0.88000000000E+00 0.  1.
        -11    1    4    4    0    0  0.19909203327E-01  0.29661470701E-01  0.13599507943E-01  0.38228091223E-01  0.51100000000E-03 0.  1.
         11    1    4    4    0    0 -0.11324206783E-01  0.82274883440E-01  0.68662532280E-01  0.10775991168E+00  0.51100000000E-03 0. -1.
</event>
<event>
 8    1  0.2257781E+004  0.1043930E+01  0.7957747E-01            NaN
         13   -1    0    0    0    0  0.00000000000E+00  0.00000000000E+00  0.74505805969E-08  0.10566000000E+00  0.10566000000E+00 0.  1.
     999900   -1    0    0    0    0 -0.00000000000E+00 -0.00000000000E+00 -0.74505805969E-08  0.93827000000E+00  0.93827000000E+00 0. -1.
     999902    2    1    2    0    0 -0.60647712201E-02 -0.12181521794E-01  0.31296973665E-02  0.10299669800E+01  0.10298723289E+01 0.  0.
     999903    2    3    3    0    0  0.47107554409E-02  0.13071673391E+00  0.43799097030E-02  0.13837425540E+00  0.44935456019E-01 0.  0.
         14    1    1    2    0    0  0.60647712201E-02  0.12181521794E-01 -0.31296973665E-02  0.13963020045E-01  0.00000000000E+00 0. -1.
     999901    1    3    3    0    0 -0.10775526661E-01 -0.14289825570E+00 -0.12502123365E-02  0.89159272456E+00  0.88000000000E+00 0. -1.
        -11    1    4    4    0    0  0.92908341254E-02  0.31822985350E-01 -0.16745653237E-01  0.37144313409E-01  0.51100000000E-03 0.  1.
         11    1    4    4    0    0 -0.45800786845E-02  0.98893748555E-01  0.21125562940E-01  0.10122994199E+00  0.51100000000E-03 0. -1.
</event>
<event>
 8    1  0.2257781E+004  0.1043930E+01  0.7957747E-01            NaN
         13   -1    0    0    0    0  0.00000000000E+00  0.00000000000E+00  0.74505805969E-08  0.10566000000E+00  0.10566000000E+00 0.  1.
     999900   -1    0    0    0    0 -0.00000000000E+00 -0.00000000000E+00 -0.74505805969E-08  0.93827000000E+00  0.93827000000E+00 0. -1.
     999902    2    1    2    0    0 -0.85851660386E-02 -0.10897152520E-01  0.18715015550E-02  0.10299315884E+01  0.10298364537E+01 0.  0.
     999903    2    3    3    0    0  0.91944364695E-01 -0.90690450354E-01 -0.30183093705E-01  0.14004358759E+00  0.44974029112E-01 0.  0.
         14    1    1    2    0    0  0.85851660386E-02  0.10897152520E-01 -0.18715015550E-02  0.13998411590E-01  0.00000000000E+00 0. -1.
     999901    1    3    3    0    0 -0.10052953073E+00  0.79793297834E-01  0.32054595260E-01  0.88988800082E+00  0.88000000000E+00 0. -1.
        -11    1    4    4    0    0  0.28705437529E-01 -0.36465854160E-01 -0.32578150878E-01  0.56704124179E-01  0.51100000000E-03 0. -1.
         11    1    4    4    0    0  0.63238927166E-01 -0.54224596195E-01  0.23950571725E-02  0.83339463410E-01  0.51100000000E-03 0.  1.
</event>
<event>
 8    1  0.2257781E+004  0.1043930E+01  0.7957747E-01            NaN
         13   -1    0    0    0    0  0.00000000000E+00  0.00000000000E+00  0.74505805969E-08  0.10566000000E+00  0.10566000000E+00 0.  1.
     999900   -1    0    0    0    0 -0.00000000000E+00 -0.00000000000E+00 -0.74505805969E-08  0.93827000000E+00  0.93827000000E+00 0.  1.
     999902    2    1    2    0    0 -0.10397741411E-01 -0.10213616696E-01  0.10249009609E-02  0.10293189968E+01  0.10292152913E+01 0.  0.
     999903    2    3    3    0    0 -0.92405345388E-01 -0.38856032855E-01 -0.86932147212E-01  0.14067841848E+00  0.46740561210E-01 0.  0.
         14    1    1    2    0    0  0.10397741411E-01  0.10213616696E-01 -0.10249009609E-02  0.14611003198E-01  0.00000000000E+00 0.  1.
     999901    1    3    3    0    0  0.82007603978E-01  0.28642416159E-01  0.87957048173E-01  0.88864057832E+00  0.88000000000E+00 0.  1.
        -11    1    4    4    0    0 -0.45746996388E-01 -0.24352831453E-01 -0.73621759008E-01  0.90034841027E-01  0.51100000000E-03 0. -1.
         11    1    4    4    0    0 -0.46658349000E-01 -0.14503201402E-01 -0.13310388204E-01  0.50643577455E-01  0.51100000000E-03 0.  1.
</event>
<event>
 8    1  0.2257781E+004  0.1043930E+01  0.7957747E-01            NaN
         13   -1    0    0    0    0  0.00000000000E+00  0.00000000000E+00  0.74505805969E-08  0.10566000000E+00  0.10566000000E+00 0.  1.
     999900   -1    0    0    0    0 -0.00000000000E+00 -0.00000000000E+00 -0.74505805969E-08  0.93827000000E+00  0.93827000000E+00 0.  1.
     999902    2    1    2    0    0 -0.91849128340E-02 -0.59626187262E-03 -0.13136483892E-01  0.10278898828E+01  0.10277647229E+01 0.  0.
     999903    2    3    3    0    0  0.91267996014E-01  0.60221693609E-01 -0.71653880879E-01  0.13816301661E+00  0.44701689406E-01 0.  0.
         14    1    1    2    0    0  0.91849128340E-02  0.59626187262E-03  0.13136483892E-01  0.16040117239E-01  0.00000000000E+00 0. -1.
     999901    1    3    3    0    0 -0.10045290885E+00 -0.60817955481E-01  0.58517396987E-01  0.88972686615E+00  0.88000000000E+00 0.  1.
        -11    1    4    4    0    0  0.71103772422E-01  0.23399215184E-01 -0.35914844043E-01  0.83026543150E-01  0.51100000000E-03 0. -1.
         11    1    4    4    0    0  0.20164223592E-01  0.36822478425E-01 -0.35739036836E-01  0.55136473458E-01  0.51100000000E-03 0.  1.
</event>
<event>
 8    1  0.2257781E+004  0.1043930E+01  0.7957747E-01            NaN
         13   -1    0    0    0    0  0.00000000000E+00  0.00000000000E+00  0.74505805969E-08  0.10566000000E+00  0.10566000000E+00 0.  1.
     999900   -1    0    0    0    0 -0.00000000000E+00 -0.00000000000E+00 -0.74505805969E-08  0.93827000000E+00  0.93827000000E+00 0. -1.
     999902    2    1    2    0    0  0.11081453335E-01  0.84282809480E-02  0.66603590604E-03  0.10299916310E+01  0.10298973161E+01 0.  0.
     999903    2    3    3    0    0  0.67145305559E-01 -0.97904306198E-01  0.59373916998E-01  0.13988130638E+00  0.44133577062E-01 0.  0.
         14    1    1    2    0    0 -0.11081453335E-01 -0.84282809480E-02 -0.66603590604E-03  0.13938369043E-01  0.00000000000E+00 0. -1.
     999901    1    3    3    0    0 -0.56063852224E-01  0.10633258715E+00 -0.58707881092E-01  0.89011032458E+00  0.88000000000E+00 0.  1.
        -11    1    4    4    0    0  0.41980617343E-01 -0.24357763077E-01  0.28152116036E-01  0.56111278838E-01  0.51100000000E-03 0. -1.
         11    1    4    4    0    0  0.25164688216E-01 -0.73546543121E-01  0.31221800963E-01  0.83770027542E-01  0.51100000000E-03 0.  1.
</event>
<event>
 8    1  0.2257781E+004  0.1043930E+01  0.7957747E-01            NaN
         13   -1    0    0    0    0  0.00000000000E+00  0.00000000000E+00  0.74505805969E-08  0.10566000000E+00  0.10566000000E+00 0. -1.
     999900   -1    0    0    0    0 -0.00000000000E+00 -0.00000000000E+00 -0.74505805969E-08  0.93827000000E+00  0.93827000000E+00 0. -1.
     999902    2    1    2    0    0  0.58932349315E-02  0.10316183832E-01 -0.66427015092E-02  0.10303182642E+01  0.10302283467E+01 0.  0.
     999903    2    3    3    0    0  0.49363023000E-01  0.11955004027E+00  0.37359185130E-01  0.14141004407E+00  0.43268599269E-01 0.  0.
         14    1    1    2    0    0 -0.58932349315E-02 -0.10316183832E-01  0.66427015092E-02  0.13611735751E-01  0.00000000000E+00 0.  1.
     999901    1    3    3    0    0 -0.43469788069E-01 -0.10923385644E+00 -0.44001886639E-01  0.88890822018E+00  0.88000000000E+00 0. -1.
        -11    1    4    4    0    0  0.31408514732E-01  0.25892846968E-01  0.15598295763E-01  0.43594750526E-01  0.51100000000E-03 0. -1.
         11    1    4    4    0    0  0.17954508269E-01  0.93657193304E-01  0.21760889366E-01  0.97815293547E-01  0.51100000000E-03 0.  1.
</event>
<event>
 8    1  0.2257781E+004  0.1043930E+01  0.7957747E-01            NaN
         13   -1    0    0    0    0  0.00000000000E+00  0.00000000000E+00  0.74505805969E-08  0.10566000000E+00  0.10566000000E+00 0. -1.
     999900   -1    0    0    0    0 -0.00000000000E+00 -0.00000000000E+00 -0.74505805969E-08  0.93827000000E+00  0.93827000000E+00 0. -1.
     999902    2    1    2    0    0  0.50879511558E-02  0.86565254438E-02 -0.97259744040E-02  0.10299508277E+01  0.10298559561E+01 0.  0.
     999903    2    3    3    0    0 -0.65562613207E-01 -0.92664116255E-01 -0.66933382103E-01  0.13948462275E+00  0.45725131527E-01 0.  0.
         14    1    1    2    0    0 -0.50879511558E-02 -0.86565254438E-02  0.97259744040E-02  0.13979172287E-01  0.00000000000E+00 0. -1.
     999901    1    3    3    0    0  0.70650564363E-01  0.10132064170E+00  0.57207407699E-01  0.89046620496E+00  0.88000000000E+00 0. -1.
        -11    1    4    4    0    0 -0.68181601272E-01 -0.75215304629E-01 -0.67347974690E-01  0.12182809043E+00  0.51100000000E-03 0. -1.
         11    1    4    4    0    0  0.26189880646E-02 -0.17448811625E-01  0.41459258635E-03  0.17656532322E-01  0.51100000000E-03 0.  1.
</event>
<event>
 8    1  0.2257781E+004  0.1043930E+01  0.7957747E-01            NaN
         13   -1    0    0    0    0  0.00000000000E+00  0.00000000000E+00  0.74505805969E-08  0.10566000000E+00  0.10566000000E+00 0.  1.
     999900   -1    0    0    0    0 -0.00000000000E+00 -0.00000000000E+00 -0.74505805969E-08  0.93827000000E+00  0.93827000000E+00 0. -1.
     999902    2    1    2    0    0 -0.74665985291E-02 -0.13642950204E-02  0.14304657497E-01  0.10277363401E+01  0.10276087534E+01 0.  0.
     999903    2    3    3    0    0  0.41254318192E-01  0.19029877718E-02 -0.12137371097E+00  0.13600038001E+00  0.45376045634E-01 0.  0.
         14    1    1    2    0    0  0.74665985291E-02  0.13642950204E-02 -0.14304657497E-01  0.16193659889E-01  0.00000000000E+00 0. -1.
     999901    1    3    3    0    0 -0.48720916721E-01 -0.32672827923E-02  0.13567836847E+00  0.89173596010E+00  0.88000000000E+00 0.  1.
        -11    1    4    4    0    0  0.45062158875E-02  0.19110782246E-01 -0.52588092361E-01  0.56136410277E-01  0.51100000000E-03 0.  1.
         11    1    4    4    0    0  0.36748102304E-01 -0.17207794474E-01 -0.68785618607E-01  0.79863969735E-01  0.51100000000E-03 0. -1.
</event>
<event>
 8    1  0.2257781E+004  0.1043930E+01  0.7957747E-01            NaN
         13   -1    0    0    0    0  0.00000000000E+00  0.00000000000E+00  0.74505805969E-08  0.10566000000E+00  0.10566000000E+00 0. -1.
     999900   -1    0    0    0    0 -0.00000000000E+00 -0.00000000000E+00 -0.74505805969E-08  0.93827000000E+00  0.93827000000E+00 0. -1.
     999902    2    1    2    0    0  0.72861192488E-02  0.19725348473E-02  0.10086709890E-01  0.10313315817E+01  0.10312546297E+01 0.  0.
     999903    2    3    3    0    0  0.11177284152E+00  0.72534259346E-01 -0.16010975212E-01  0.14196241129E+00  0.46288097956E-01 0.  0.
         14    1    1    2    0    0 -0.72861192488E-02 -0.19725348473E-02 -0.10086709890E-01  0.12598418307E-01  0.00000000000E+00 0.  1.
     999901    1    3    3    0    0 -0.10448672227E+00 -0.70561724499E-01  0.26097685102E-01  0.88936917040E+00  0.88000000000E+00 0.  1.
        -11    1    4    4    0    0  0.83274232024E-01  0.71194216668E-01 -0.24351042711E-01  0.11223390133E+00  0.51100000000E-03 0. -1.
         11    1    4    4    0    0  0.28498609493E-01  0.13400426781E-02  0.83400674993E-02  0.29728509958E-01  0.51100000000E-03 0.  1.
</event>
<event>
 8    1  0.2257781E+004  0.1043930E+01  0.7957747E-01            NaN
         13   -1    0    0    0    0  0.00000000000E+00  0.00000000000E+00  0.74505805969E-08  0.10566000000E+00  0.10566000000E+00 0.  1.
     999900   -1    0    0    0    0 -0.00000000000E+00 -0.00000000000E+00 -0.74505805969E-08  0.93827000000E+00  0.93827000000E+00 0. -1.
     999902    2    1    2    0    0  0.76282523983E-02 -0.93633800978E-02  0.12113819253E-01  0.10268242192E+01  0.10266817274E+01 0.  0.
     999903    2    3    3    0    0 -0.39156473928E-01 -0.82784191954E-01 -0.91447392390E-01  0.13648476098E+00  0.43347577966E-01 0.  0.
         14    1    1    2    0    0 -0.76282523983E-02  0.93633800978E-02 -0.12113819253E-01  0.17105780847E-01  0.00000000000E+00 0. -1.
     999901    1    3    3    0    0  0.46784726327E-01  0.73420811856E-01  0.10356121164E+00  0.89033945818E+00  0.88000000000E+00 0.  1.
        -11    1    4    4    0    0 -0.23751551006E-01 -0.43516337076E-01 -0.77599230086E-01  0.92085337587E-01  0.51100000000E-03 0. -1.
         11    1    4    4    0    0 -0.15404922922E-01 -0.39267854878E-01 -0.13848162304E-01  0.44399423388E-01  0.51100000000E-03 0.  1.
</event>
<event>
 8    1  0.2257781E+004  0.1043930E+01  0.7957747E-01            NaN
         13   -1    0    0    0    0  0.00000000000E+00  0.00000000000E+00  0.74505805969E-08  0.10566000000E+00  0.10566000000E+00 0.  1.
     999900   -1    0    0    0    0 -0.00000000000E+00 -0.00000000000E+00 -0.74505805969E-08  0.93827000000E+00  0.93827000000E+00 0. -1.
     999902    2    1    2    0    0  0.10520453647E-01  0.74556187072E-02  0.26821957271E-02  0.10307595646E+01  0.10306754191E+01 0.  0.
     999903    2    3    3    0    0 -0.94631339849E-01  0.92432232731E-01 -0.12814933142E-01  0.14030008453E+00  0.44956457581E-01 0.  0.
         14    1    1    2    0    0 -0.10520453647E-01 -0.74556187072E-02 -0.26821957271E-02  0.13170435421E-01  0.00000000000E+00 0. -1.
     999901    1    3    3    0    0  0.10515179350E+00 -0.84976614024E-01  0.15497128869E-01  0.89045948005E+00  0.88000000000E+00 0. -1.
        -11    1    4    4    0    0 -0.83774963312E-01  0.65012983208E-01 -0.24052872800E-01  0.10873699589E+00  0.51100000000E-03 0. -1.
         11    1    4    4    0    0 -0.10856376537E-01  0.27419249523E-01  0.11237939657E-01  0.31563088643E-01  0.51100000000E-03 0.  1.
</event>
<event>
 8    1  0.2257781E+004  0.1043930E+01  0.7957747E-01            NaN
         13   -1    0    0    0    0  0.00000000000E+00  0.00000000000E+00  0.74505805969E-08  0.10566000000E+00  0.10566000000E+00 0. -1.
     999900   -1    0    0    0    0 -0.00000000000E+00 -0.00000000000E+00 -0.74505805969E-08  0.93827000000E+00  0.93827000000E+00 0. -1.
     999902    2    1    2    0    0 -0.21502141974E-02 -0.10077582166E-01 -0.10671459573E-01  0.10290955424E+01  0.10289886171E+01 0.  0.
     999903    2    3    3    0    0  0.78337620564E-01  0.73092509183E-01  0.73628369018E-01  0.13752276535E+00  0.44856176517E-01 0.  0.
         14    1    1    2    0    0  0.21502141974E-02  0.10077582166E-01  0.10671459573E-01  0.14834457618E-01  0.00000000000E+00 0.  1.
     999901    1    3    3    0    0 -0.80487834761E-01 -0.83170091349E-01 -0.84299828591E-01  0.89157277703E+00  0.88000000000E+00 0. -1.
        -11    1    4    4    0    0  0.29001579186E-01  0.25214759364E-01  0.23709784307E-02  0.38506601314E-01  0.51100000000E-03 0. -1.
         11    1    4    4    0    0  0.49336041378E-01  0.47877749819E-01  0.71257390587E-01  0.99016164038E-01  0.51100000000E-03 0.  1.
</event>
<event>
 8    1  0.2257781E+004  0.1043930E+01  0.7957747E-01            NaN
         13   -1    0    0    0    0  0.00000000000E+00  0.00000000000E+00  0.74505805969E-08  0.10566000000E+00  0.10566000000E+00 0. -1.
     999900   -1    0    0    0    0 -0.00000000000E+00 -0.00000000000E+00 -0.74505805969E-08  0.93827000000E+00  0.93827000000E+00 0. -1.
     999902    2    1    2    0    0 -0.50941435395E-02  0.82601134563E-02  0.98982612032E-02  0.10300679891E+01  0.10299747117E+01 0.  0.
     999903    2    3    3    0    0 -0.80992971151E-01 -0.10181952501E+00  0.26894535900E-01  0.13980565008E+00  0.43534201321E-01 0.  0.
         14    1    1    2    0    0  0.50941435395E-02 -0.82601134563E-02 -0.98982612032E-02  0.13862010949E-01  0.00000000000E+00 0.  1.
     999901    1    3    3    0    0  0.75898827612E-01  0.11007963846E+00 -0.16996274697E-01  0.89026233897E+00  0.88000000000E+00 0. -1.
        -11    1    4    4    0    0 -0.73952359354E-01 -0.10051543191E+00  0.14697094159E-01  0.12565257341E+00  0.51100000000E-03 0. -1.
         11    1    4    4    0    0 -0.70406117970E-02 -0.13040930954E-02  0.12197441741E-01  0.14153076672E-01  0.51100000000E-03 0.  1.
</event>
<event>
 8    1  0.2257781E+004  0.1043930E+01  0.7957747E-01            NaN
         13   -1    0    0    0    0  0.00000000000E+00  0.00000000000E+00  0.74505805969E-08  0.10566000000E+00  0.10566000000E+00 0.  1.
     999900   -1    0    0    0    0 -0.00000000000E+00 -0.00000000000E+00 -0.74505805969E-08  0.93827000000E+00  0.93827000000E+00 0. -1.
     999902    2    1    2    0    0  0.12395269455E-01  0.46311955411E-02 -0.15374948605E-02  0.10306087926E+01  0.10305226969E+01 0.  0.
     999903    2    3    3    0    0 -0.10525259892E+00  0.78648551604E-01 -0.16133585619E-01  0.13957981672E+00  0.44255264118E-01 0.  0.
         14    1    1    2    0    0 -0.12395269455E-01 -0.46311955411E-02  0.15374948605E-02  0.13321207432E-01  0.00000000000E+00 0. -1.
     999901    1    3    3    0    0  0.11764786838E+00 -0.74017356063E-01  0.14596090758E-01  0.89102897585E+00  0.88000000000E+00 0.  1.
        -11    1    4    4    0    0 -0.79095098970E-01  0.39899266497E-01 -0.24872356994E-01  0.92015658513E-01  0.51100000000E-03 0. -1.
         11    1    4    4    0    0 -0.26157499951E-01  0.38749285107E-01  0.87387713752E-02  0.47564158209E-01  0.51100000000E-03 0.  1.
</event>
<event>
 8    1  0.2257781E+004  0.1043930E+01  0.7957747E-01            NaN
         13   -1    0    0    0    0  0.00000000000E+00  0.00000000000E+00  0.74505805969E-08  0.10566000000E+00  0.10566000000E+00 0.  1.
     999900   -1    0    0    0    0 -0.00000000000E+00 -0.00000000000E+00 -0.74505805969E-08  0.93827000000E+00  0.93827000000E+00 0. -1.
     999902    2    1    2    0    0  0.83265789429E-02 -0.93958686121E-02 -0.18558426356E-01  0.10215239862E+01  0.10212782309E+01 0.  0.
     999903    2    3    3    0    0  0.66610358710E-02  0.36048184465E-01 -0.12126762226E+00  0.13438413542E+00  0.44826539468E-01 0.  0.
         14    1    1    2    0    0 -0.83265789429E-02  0.93958686121E-02  0.18558426356E-01  0.22406013761E-01  0.00000000000E+00 0.  1.
     999901    1    3    3    0    0  0.16655430719E-02 -0.45444053078E-01  0.10270919590E+00  0.88713985082E+00  0.88000000000E+00 0.  1.
        -11    1    4    4    0    0  0.20655059791E-01  0.23158634555E-01 -0.38475545784E-01  0.49432606585E-01  0.51100000000E-03 0. -1.
         11    1    4    4    0    0 -0.13994023920E-01  0.12889549910E-01 -0.82792076477E-01  0.84951528831E-01  0.51100000000E-03 0.  1.
</event>
<event>
 7    1  0.2257781E+004  0.1043930E+01  0.7957747E-01            NaN
         13   -1    0    0    0    0  0.00000000000E+00  0.00000000000E+00  0.74505805969E-08  0.10566000000E+00  0.10566000000E+00 0. -1.
     999900   -1    0    0    0    0 -0.00000000000E+00 -0.00000000000E+00 -0.74505805969E-08  0.93827000000E+00  0.93827000000E+00 0.  1.
     999903    2    1    2    0    0 -0.11473997152E+00  0.40626037789E-02 -0.86433437013E-02  0.12397618407E+00  0.45974134161E-01 0.  0.
         14    1    1    2    0    0 -0.85431704514E-02  0.28090425297E-01 -0.86564778610E-02  0.30610330996E-01  0.00000000000E+00 0.  1.
     999901    1    1    2    0    0  0.12328314197E+00 -0.32153029076E-01  0.17299821562E-01  0.88934348494E+00  0.88000000000E+00 0. -1.
        -11    1    3    3    0    0 -0.41671459650E-01  0.19979069139E-01  0.91302222216E-02  0.47109402796E-01  0.51100000000E-03 0.  1.
         11    1    3    3    0    0 -0.73068511870E-01 -0.15916465360E-01 -0.17773565923E-01  0.76866781271E-01  0.51100000000E-03 0. -1.
</event>
<event>
 8    1  0.2257781E+004  0.1043930E+01  0.7957747E-01            NaN
         13   -1    0    0    0    0  0.00000000000E+00  0.00000000000E+00  0.74505805969E-08  0.10566000000E+00  0.10566000000E+00 0.  1.
     999900   -1    0    0    0    0 -0.00000000000E+00 -0.00000000000E+00 -0.74505805969E-08  0.93827000000E+00  0.93827000000E+00 0. -1.
     999902    2    1    2    0    0 -0.11625215899E-01  0.61046598418E-02 -0.51621136412E-02  0.10298211399E+01  0.10297244875E+01 0.  0.
     999903    2    3    3    0    0 -0.50361261497E-01 -0.99168988755E-01 -0.71882148391E-01  0.14019504688E+00  0.46009378634E-01 0.  0.
         14    1    1    2    0    0  0.11625215899E-01 -0.61046598418E-02  0.51621136412E-02  0.14108860114E-01  0.00000000000E+00 0.  1.
     999901    1    3    3    0    0  0.38736045599E-01  0.10527364860E+00  0.66720034750E-01  0.88962609300E+00  0.88000000000E+00 0.  1.
        -11    1    4    4    0    0 -0.23582309089E-01 -0.17815115055E-01 -0.19525732348E-02  0.29623931030E-01  0.51100000000E-03 0.  1.
         11    1    4    4    0    0 -0.26778952408E-01 -0.81353873700E-01 -0.69929575156E-01  0.11057111585E+00  0.51100000000E-03 0. -1.
</event>
<event>
 8    1  0.2257781E+004  0.1043930E+01  0.7957747E-01            NaN
         13   -1    0    0    0    0  0.00000000000E+00  0.00000000000E+00  0.74505805969E-08  0.10566000000E+00  0.10566000000E+00 0.  1.
     999900   -1    0    0    0    0 -0.00000000000E+00 -0.00000000000E+00 -0.74505805969E-08  0.93827000000E+00  0.93827000000E+00 0. -1.
     999902    2    1    2    0    0 -0.25238618346E-02  0.96166719904E-02  0.10007682759E-01  0.10298231232E+01  0.10297264982E+01 0.  0.
     999903    2    3    3    0    0  0.12722328763E-01 -0.12979406751E+00  0.13855231328E-01  0.13870999669E+00  0.45167888329E-01 0.  0.
         14    1    1    2    0    0  0.25238618346E-02 -0.96166719904E-02 -0.10007682759E-01  0.14106876796E-01  0.00000000000E+00 0. -1.
     999901    1    3    3    0    0 -0.15246190598E-01  0.13941073950E+00 -0.38475485692E-02  0.89111312651E+00  0.88000000000E+00 0.  1.
        -11    1    4    4    0    0 -0.12779969240E-01 -0.34103887461E-01 -0.80091678989E-02  0.37293573778E-01  0.51100000000E-03 0. -1.
         11    1    4    4    0    0  0.25502298003E-01 -0.95690180051E-01  0.21864399227E-01  0.10141642291E+00  0.51100000000E-03 0.  1.
</event>
<event>
 8    1  0.2257781E+004  0.1043930E+01  0.7957747E-01            NaN
         13   -1    0    0    0    0  0.00000000000E+00  0.00000000000E+00  0.74505805969E-08  0.10566000000E+00  0.10566000000E+00 0. -1.
     999900   -1    0    0    0    0 -0.00000000000E+00 -0.00000000000E+00 -0.74505805969E-08  0.93827000000E+00  0.93827000000E+00 0.  1.
     999902    2    1    2    0    0  0.75269330093E-02 -0.13684087458E-02  0.10613305032E-01  0.10308468235E+01  0.10307637964E+01 0.  0.
     999903    2    3    3    0    0 -0.86017028754E-01 -0.78396705434E-01 -0.62354292435E-01  0.13955108049E+00  0.45182669485E-01 0.  0.
         14    1    1    2    0    0 -0.75269330093E-02  0.13684087458E-02 -0.10613305032E-01  0.13083176477E-01  0.00000000000E+00 0.  1.
     999901    1    3    3    0    0  0.93543961763E-01  0.77028296688E-01  0.72967597467E-01  0.89129574304E+00  0.88000000000E+00 0. -1.
        -11    1    4    4    0    0 -0.20381096209E-01 -0.44821869987E-01 -0.13330355169E-01  0.51013219872E-01  0.51100000000E-03 0.  1.
         11    1    4    4    0    0 -0.65635932544E-01 -0.33574835447E-01 -0.49023937266E-01  0.88537860615E-01  0.51100000000E-03 0. -1.
</event>
<event>
 8    1  0.2257781E+004  0.1043930E+01  0.7957747E-01            NaN
         13   -1    0    0    0    0  0.00000000000E+00  0.00000000000E+00  0.74505805969E-08  0.10566000000E+00  0.10566000000E+00 0. -1.
     999900   -1    0    0    0    0 -0.00000000000E+00 -0.00000000000E+00 -0.74505805969E-08  0.93827000000E+00  0.93827000000E+00 0. -1.
     999902    2    1    2    0    0  0.50837568553E-02  0.11880594972E-01 -0.19774285355E-02  0.10308569994E+01  0.10307741023E+01 0.  0.
     999903    2    3    3    0    0  0.88599081266E-01  0.41955108857E-01 -0.93270354073E-01  0.14169240045E+00  0.42039850578E-01 0.  0.
         14    1    1    2    0    0 -0.50837568553E-02 -0.11880594972E-01  0.19774285355E-02  0.13073000583E-01  0.00000000000E+00 0.  1.
     999901    1    3    3    0    0 -0.83515324411E-01 -0.30074513886E-01  0.91292925538E-01  0.88916459896E+00  0.88000000000E+00 0.  1.
        -11    1    4    4    0    0  0.63395362088E-01  0.82210079003E-02 -0.48627845420E-01  0.80321139038E-01  0.51100000000E-03 0. -1.
         11    1    4    4    0    0  0.25203719178E-01  0.33734100957E-01 -0.44642508653E-01  0.61371261415E-01  0.51100000000E-03 0.  1.
</event>
<event>
 8    1  0.2257781E+004  0.1043930E+01  0.7957747E-01            NaN
         13   -1    0    0    0    0  0.00000000000E+00  0.00000000000E+00  0.74505805969E-08  0.10566000000E+00  0.10566000000E+00 0. -1.
     999900   -1    0    0    0    0 -0.00000000000E+00 -0.00000000000E+00 -0.74505805969E-08  0.93827000000E+00  0.93827000000E+00 0.  1.
     999902    2    1    2    0    0  0.31530969663E-02 -0.12694909528E-01 -0.26855646592E-02  0.10305765358E+01  0.10304900199E+01 0.  0.
     999903    2    3    3    0    0  0.33029967531E-01  0.86169279659E-01  0.94403215573E-01  0.13923317517E+00  0.44246880641E-01 0.  0.
         14    1    1    2    0    0 -0.31530969663E-02  0.12694909528E-01  0.26855646592E-02  0.13353464193E-01  0.00000000000E+00 0. -1.
     999901    1    3    3    0    0 -0.29876870564E-01 -0.98864189187E-01 -0.97088780232E-01  0.89134336063E+00  0.88000000000E+00 0.  1.
        -11    1    4    4    0    0  0.54979956735E-02  0.68604091811E-01  0.55345108431E-01  0.88318126780E-01  0.51100000000E-03 0.  1.
         11    1    4    4    0    0  0.27531971857E-01  0.17565187848E-01  0.39058107142E-01  0.50915048394E-01  0.51100000000E-03 0. -1.
</event>
<event>
 8    1  0.2257781E+004  0.1043930E+01  0.7957747E-01            NaN
         13   -1    0    0    0    0  0.00000000000E+00  0.00000000000E+00  0.74505805969E-08  0.10566000000E+00  0.10566000000E+00 0.  1.
     999900   -1    0    0    0    0 -0.00000000000E+00 -0.00000000000E+00 -0.74505805969E-08  0.93827000000E+00  0.93827000000E+00 0. -1.
     999902    2    1    2    0    0  0.39701037801E-02 -0.85016630350E-02 -0.85668310343E-02  0.10312244661E+01  0.10311461918E+01 0.  0.
     999903    2    3    3    0    0  0.78897896440E-01 -0.95432396422E-01  0.52447984491E-01  0.14167742728E+00  0.44603609416E-01 0.  0.
         14    1    1    2    0    0 -0.39701037801E-02  0.85016630350E-02  0.85668310343E-02  0.12705533926E-01  0.00000000000E+00 0.  1.
     999901    1    3    3    0    0 -0.74927792660E-01  0.86930733387E-01 -0.61014815526E-01  0.88954703880E+00  0.88000000000E+00 0. -1.
        -11    1    4    4    0    0  0.57238508940E-01 -0.92326477600E-01  0.50219306614E-01  0.11967733808E+00  0.51100000000E-03 0. -1.
         11    1    4    4    0    0  0.21659387500E-01 -0.31059188213E-02  0.22286778769E-02  0.22000089198E-01  0.51100000000E-03 0.  1.
</event>
<event>
 8    1  0.2257781E+004  0.1043930E+01  0.7957747E-01            NaN
         13   -1    0    0    0    0  0.00000000000E+00  0.00000000000E+00  0.74505805969E-08  0.10566000000E+00  0.10566000000E+00 0. -1.
     999900   -1    0    0    0    0 -0.00000000000E+00 -0.00000000000E+00 -0.74505805969E-08  0.93827000000E+00  0.93827000000E+00 0.  1.
     999902    2    1    2    0    0  0.32891226669E-02 -0.78218478265E-02 -0.44738108315E-03  0.10354329546E+01  0.10353980894E+01 0.  0.
     999903    2    3    3    0    0  0.13364036132E-01 -0.11502333893E+00  0.76067650193E-01  0.14557441885E+00  0.44683979846E-01 0.  0.
         14    1    1    2    0    0 -0.32891226669E-02  0.78218478265E-02  0.44738108315E-03  0.84970454379E-02  0.00000000000E+00 0.  1.
     999901    1    3    3    0    0 -0.10074913465E-01  0.10720149111E+00 -0.76515031276E-01  0.88985853572E+00  0.88000000000E+00 0.  1.
        -11    1    4    4    0    0  0.18387533807E-01 -0.91343000669E-01  0.77677456481E-01  0.12130825832E+00  0.51100000000E-03 0. -1.
         11    1    4    4    0    0 -0.50234976751E-02 -0.23680338266E-01 -0.16098062882E-02  0.24266160524E-01  0.51100000000E-03 0.  1.
</event>
<event>
 8    1  0.2257781E+004  0.1043930E+01  0.7957747E-01            NaN
         13   -1    0    0    0    0  0.00000000000E+00  0.00000000000E+00  0.74505805969E-08  0.10566000000E+00  0.10566000000E+00 0.  1.
     999900   -1    0    0    0    0 -0.00000000000E+00 -0.00000000000E+00 -0.74505805969E-08  0.93827000000E+00  0.93827000000E+00 0. -1.
     999902    2    1    2    0    0  0.11035895234E-01 -0.94287105223E-02  0.44022866116E-02  0.10287618856E+01  0.10286500599E+01 0.  0.
     999903    2    3    3    0    0  0.11731422686E+00 -0.17558628704E-01 -0.59718786126E-01  0.14001406353E+00  0.44347167932E-01 0.  0.
         14    1    1    2    0    0 -0.11035895234E-01  0.94287105223E-02 -0.44022866116E-02  0.15168114357E-01  0.00000000000E+00 0. -1.
     999901    1    3    3    0    0 -0.10627833163E+00  0.81299181817E-02  0.64121072738E-01  0.88874782211E+00  0.88000000000E+00 0. -1.
        -11    1    4    4    0    0  0.93236262243E-01 -0.31774909589E-01 -0.43456271179E-01  0.10766315109E+00  0.51100000000E-03 0.  1.
         11    1    4    4    0    0  0.24077964618E-01  0.14216280885E-01 -0.16262514947E-01  0.32350912441E-01  0.51100000000E-03 0. -1.
</event>
<event>
 8    1  0.2257781E+004  0.1043930E+01  0.7957747E-01            NaN
         13   -1    0    0    0    0  0.00000000000E+00  0.00000000000E+00  0.74505805969E-08  0.10566000000E+00  0.10566000000E+00 0. -1.
     999900   -1    0    0    0    0 -0.00000000000E+00 -0.00000000000E+00 -0.74505805969E-08  0.93827000000E+00  0.93827000000E+00 0. -1.
     999902    2    1    2    0    0  0.73878177104E-02 -0.11497447343E-01 -0.25398024692E-02  0.10300295776E+01  0.10299357791E+01 0.  0.
     999903    2    3    3    0    0 -0.70881897735E-03  0.55919604719E-01  0.11915291082E+00  0.13906396049E+00  0.44876099816E-01 0.  0.
         14    1    1    2    0    0 -0.73878177104E-02  0.11497447343E-01  0.25398024692E-02  0.13900422386E-01  0.00000000000E+00 0.  1.
     999901    1    3    3    0    0  0.80966366878E-02 -0.67417052062E-01 -0.12169271328E+00  0.89096561713E+00  0.88000000000E+00 0.  1.
        -11    1    4    4    0    0 -0.10640202968E-01  0.59989567621E-01  0.99813762500E-01  0.11694020031E+00  0.51100000000E-03 0.  1.
         11    1    4    4    0    0  0.99313839903E-02 -0.40699629020E-02  0.19339148315E-01  0.22123760181E-01  0.51100000000E-03 0. -1.
</event>
<event>
 8    1  0.2257781E+004  0.1043930E+01  0.7957747E-01            NaN
         13   -1    0    0    0    0  0.00000000000E+00  0.00000000000E+00  0.74505805969E-08  0.10566000000E+00  0.10566000000E+00 0. -1.
     999900   -1    0    0    0    0 -0.00000000000E+00 -0.00000000000E+00 -0.74505805969E-08  0.93827000000E+00  0.93827000000E+00 0.  1.
     999902    2    1    2    0    0  0.26874275573E-02 -0.33489867594E-02 -0.10104286145E-01  0.10329511759E+01  0.10328928295E+01 0.  0.
     999903    2    3    3    0    0 -0.41427145882E-01  0.12816827614E+00 -0.33395290747E-02  0.14205912414E+00  0.45014740593E-01 0.  0.
         14    1    1    2    0    0 -0.26874275573E-02  0.33489867594E-02  0.10104286145E-01  0.10978824057E-01  0.00000000000E+00 0. -1.
     999901    1    3    3    0    0  0.44114573439E-01 -0.13151726290E+00 -0.67647570700E-02  0.89089205181E+00  0.88000000000E+00 0. -1.
        -11    1    4    4    0    0 -0.54301609620E-02  0.57734308681E-01  0.16911373247E-01  0.60406892927E-01  0.51100000000E-03 0.  1.
         11    1    4    4    0    0 -0.35996984920E-01  0.70433967463E-01 -0.20250902321E-01  0.81652231211E-01  0.51100000000E-03 0. -1.
</event>
<event>
 8    1  0.2257781E+004  0.1043930E+01  0.7957747E-01            NaN
         13   -1    0    0    0    0  0.00000000000E+00  0.00000000000E+00  0.74505805969E-08  0.10566000000E+00  0.10566000000E+00 0. -1.
     999900   -1    0    0    0    0 -0.00000000000E+00 -0.00000000000E+00 -0.74505805969E-08  0.93827000000E+00  0.93827000000E+00 0. -1.
     999902    2    1    2    0    0 -0.76551925027E-02 -0.76684323563E-02  0.83769905919E-02  0.10302339860E+01  0.10301429441E+01 0.  0.
     999903    2    3    3    0    0  0.12504083949E+00  0.32055363420E-01 -0.24390828707E-01  0.13879697377E+00  0.44798767151E-01 0.  0.
         14    1    1    2    0    0  0.76551925027E-02  0.76684323563E-02 -0.83769905919E-02  0.13696013961E-01  0.00000000000E+00 0.  1.
     999901    1    3    3    0    0 -0.13269603199E+00 -0.39723795777E-01  0.32767819299E-01  0.89143701227E+00  0.88000000000E+00 0.  1.
        -11    1    4    4    0    0  0.79624669843E-01  0.31276582950E-01 -0.34528222073E-01  0.92253845064E-01  0.51100000000E-03 0. -1.
         11    1    4    4    0    0  0.45416169649E-01  0.77878047017E-03  0.10137393366E-01  0.46543128707E-01  0.51100000000E-03 0.  1.
</event>
<event>
 8    1  0.2257781E+004  0.1043930E+01  0.7957747E-01            NaN
         13   -1    0    0    0    0  0.00000000000E+00  0.00000000000E+00  0.74505805969E-08  0.10566000000E+00  0.10566000000E+00 0.  1.
     999900   -1    0    0    0    0 -0.00000000000E+00 -0.00000000000E+00 -0.74505805969E-08  0.93827000000E+00  0.93827000000E+00 0.  1.
     999902    2    1    2    0    0 -0.35795498506E-04  0.12307940947E-01 -0.89047974797E-02  0.10287384856E+01  0.10286263120E+01 0.  0.
     999903    2    3    3    0    0 -0.11911249475E+00  0.41777748912E-01  0.37481651995E-01  0.13901974769E+00  0.44592031836E-01 0.  0.
         14    1    1    2    0    0  0.35795498506E-04 -0.12307940947E-01  0.89047974797E-02  0.15191514402E-01  0.00000000000E+00 0.  1.
     999901    1    3    3    0    0  0.11907669925E+00 -0.29469807965E-01 -0.46386449475E-01  0.88971873791E+00  0.88000000000E+00 0.  1.
        -11    1    4    4    0    0 -0.54968607395E-01 -0.24110114943E-02  0.23726661755E-01  0.59921418328E-01  0.51100000000E-03 0. -1.
         11    1    4    4    0    0 -0.64143887352E-01  0.44188760406E-01  0.13754990240E-01  0.79098329365E-01  0.51100000000E-03 0.  1.
</event>
<event>
 8    1  0.2257781E+004  0.1043930E+01  0.7957747E-01            NaN
         13   -1    0    0    0    0  0.00000000000E+00  0.00000000000E+00  0.74505805969E-08  0.10566000000E+00  0.10566000000E+00 0.  1.
     999900   -1    0    0    0    0 -0.00000000000E+00 -0.00000000000E+00 -0.74505805969E-08  0.93827000000E+00  0.93827000000E+00 0.  1.
     999902    2    1    2    0    0  0.46755700957E-03 -0.10156558112E-01  0.18352930675E-01  0.10229489527E+01  0.10227337657E+01 0.  0.
     999903    2    3    3    0    0  0.22667165313E-01 -0.12179073975E+00 -0.26396294426E-01  0.13449101543E+00  0.45213761183E-01 0.  0.
         14    1    1    2    0    0 -0.46755700957E-03  0.10156558112E-01 -0.18352930675E-01  0.20981047319E-01  0.00000000000E+00 0. -1.
     999901    1    3    3    0    0 -0.22199608304E-01  0.11163418164E+00  0.44749225102E-01  0.88845793725E+00  0.88000000000E+00 0. -1.
        -11    1    4    4    0    0  0.88614510253E-02 -0.31855566158E-01  0.12744027304E-01  0.35439720123E-01  0.51100000000E-03 0. -1.
         11    1    4    4    0    0  0.13805714288E-01 -0.89935173589E-01 -0.39140321731E-01  0.99051295306E-01  0.51100000000E-03 0.  1.
</event>
<event>
 8    1  0.2282748E+004  0.1043930E+01  0.7957747E-01            NaN
         13   -1    0    0    0    0  0.00000000000E+00  0.00000000000E+00  0.74505805969E-08  0.10566000000E+00  0.10566000000E+00 0. -1.
     999900   -1    0    0    0    0 -0.00000000000E+00 -0.00000000000E+00 -0.74505805969E-08  0.93827000000E+00  0.93827000000E+00 0. -1.
     999902    2    1    2    0    0 -0.74854783247E-02  0.97605050008E-02  0.13513819617E-01  0.10256564354E+01  0.10254936374E+01 0.  0.
     999903    2    3    3    0    0  0.25590577499E-01 -0.93631025429E-01 -0.78319205925E-01  0.13424343422E+00  0.49656369538E-01 0.  0.
         14    1    1    2    0    0  0.74854783247E-02 -0.97605050008E-02 -0.13513819617E-01  0.18273564629E-01  0.00000000000E+00 0.  1.
     999901    1    3    3    0    0 -0.33076055824E-01  0.10339153043E+00  0.91833025543E-01  0.89141300115E+00  0.88000000000E+00 0.  1.
        -11    1    4    4    0    0  0.25444510382E-03 -0.75984289706E-01 -0.42927912492E-01  0.87273958409E-01  0.51100000000E-03 0.  1.
         11    1    4    4    0    0  0.25336132395E-01 -0.17646735723E-01 -0.35391293434E-01  0.46969475815E-01  0.51100000000E-03 0. -1.
</event>
<event>
 8    1  0.2257781E+004  0.1043930E+01  0.7957747E-01            NaN
         13   -1    0    0    0    0  0.00000000000E+00  0.00000000000E+00  0.74505805969E-08  0.10566000000E+00  0.10566000000E+00 0.  1.
     999900   -1    0    0    0    0 -0.00000000000E+00 -0.00000000000E+00 -0.74505805969E-08  0.93827000000E+00  0.93827000000E+00 0. -1.
     999902    2    1    2    0    0 -0.63212087143E-02 -0.44716343674E-02 -0.11703533155E-01  0.10298969718E+01  0.10298013627E+01 0.  0.
     999903    2    3    3    0    0 -0.25939744808E-01  0.11712978014E+00 -0.56563995833E-01  0.14018676495E+00  0.45393696558E-01 0.  0.
         14    1    1    2    0    0  0.63212087143E-02  0.44716343674E-02  0.11703533155E-01  0.14033028249E-01  0.00000000000E+00 0.  1.
     999901    1    3    3    0    0  0.19618536094E-01 -0.12160141451E+00  0.44860462677E-01  0.88971020680E+00  0.88000000000E+00 0.  1.
        -11    1    4    4    0    0 -0.15477918111E-01  0.25025308470E-01 -0.33640101356E-01  0.44696191710E-01  0.51100000000E-03 0. -1.
         11    1    4    4    0    0 -0.10461826697E-01  0.92104471670E-01 -0.22923894476E-01  0.95490573243E-01  0.51100000000E-03 0.  1.
</event>
<event>
 8    1  0.2257781E+004  0.1043930E+01  0.7957747E-01            NaN
         13   -1    0    0    0    0  0.00000000000E+00  0.00000000000E+00  0.74505805969E-08  0.10566000000E+00  0.10566000000E+00 0.  1.
     999900   -1    0    0    0    0 -0.00000000000E+00 -0.00000000000E+00 -0.74505805969E-08  0.93827000000E+00  0.93827000000E+00 0.  1.
     999902    2    1    2    0    0 -0.68956448823E-02  0.12068773758E-01 -0.34014672811E-02  0.10296200315E+01  0.10295205846E+01 0.  0.
     999903    2    3    3    0    0 -0.95508174436E-01 -0.81332515102E-01 -0.41393542003E-01  0.13944062325E+00  0.44648322438E-01 0.  0.
         14    1    1    2    0    0  0.68956448823E-02 -0.12068773758E-01  0.34014672811E-02  0.14309968484E-01  0.00000000000E+00 0. -1.
     999901    1    3    3    0    0  0.88612529553E-01  0.93401288860E-01  0.37992074722E-01  0.89017940826E+00  0.88000000000E+00 0. -1.
        -11    1    4    4    0    0 -0.69145852790E-01 -0.33043759207E-01 -0.13725404066E-01  0.77856835399E-01  0.51100000000E-03 0.  1.
         11    1    4    4    0    0 -0.26362321646E-01 -0.48288755895E-01 -0.27668137937E-01  0.61583787854E-01  0.51100000000E-03 0. -1.
</event>
<event>
 8    1  0.2257781E+004  0.1043930E+01  0.7957747E-01            NaN
         13   -1    0    0    0    0  0.00000000000E+00  0.00000000000E+00  0.74505805969E-08  0.10566000000E+00  0.10566000000E+00 0. -1.
     999900   -1    0    0    0    0 -0.00000000000E+00 -0.00000000000E+00 -0.74505805969E-08  0.93827000000E+00  0.93827000000E+00 0. -1.
     999902    2    1    2    0    0  0.28232132355E-02 -0.35247707740E-02 -0.13329815211E-01  0.10298559631E+01  0.10297597905E+01 0.  0.
     999903    2    3    3    0    0 -0.10883044061E+00  0.40418136293E-01  0.60424637966E-01  0.13865607704E+00  0.45789521512E-01 0.  0.
         14    1    1    2    0    0 -0.28232132355E-02  0.35247707740E-02  0.13329815211E-01  0.14074036931E-01  0.00000000000E+00 0. -1.
     999901    1    3    3    0    0  0.11165365385E+00 -0.43942907067E-01 -0.73754453177E-01  0.89119988603E+00  0.88000000000E+00 0. -1.
        -11    1    4    4    0    0 -0.36254833713E-01  0.12341648262E-01  0.45403256350E-01  0.59400724386E-01  0.51100000000E-03 0.  1.
         11    1    4    4    0    0 -0.72575606901E-01  0.28076488031E-01  0.15021381616E-01  0.79255352651E-01  0.51100000000E-03 0. -1.
</event>
<event>
 8    1  0.2257781E+004  0.1043930E+01  0.7957747E-01            NaN
         13   -1    0    0    0    0  0.00000000000E+00  0.00000000000E+00  0.74505805969E-08  0.10566000000E+00  0.10566000000E+00 0. -1.
     999900   -1    0    0    0    0 -0.00000000000E+00 -0.00000000000E+00 -0.74505805969E-08  0.93827000000E+00  0.93827000000E+00 0.  1.
     999902    2    1    2    0    0 -0.40388477042E-02  0.42392334825E-02 -0.12770018247E-01  0.10298816279E+01  0.10297858082E+01 0.  0.
     999903    2    3    3    0    0 -0.70089946273E-01  0.11344082042E+00 -0.18159677973E-01  0.14065905590E+00  0.40911805104E-01 0.  0.
         14    1    1    2    0    0  0.40388477042E-02 -0.42392334825E-02  0.12770018247E-01  0.14048372053E-01  0.00000000000E+00 0. -1.
     999901    1    3    3    0    0  0.66051098569E-01 -0.10920158693E+00  0.53896597258E-02  0.88922257205E+00  0.88000000000E+00 0. -1.
        -11    1    4    4    0    0 -0.30945879190E-01  0.62780245534E-01 -0.28926599240E-01  0.75736490100E-01  0.51100000000E-03 0.  1.
         11    1    4    4    0    0 -0.39144067083E-01  0.50660574881E-01  0.10766921267E-01  0.64922565797E-01  0.51100000000E-03 0. -1.
</event>
<event>
 8    1  0.2257781E+004  0.1043930E+01  0.7957747E-01            NaN
         13   -1    0    0    0    0  0.00000000000E+00  0.00000000000E+00  0.74505805969E-08  0.10566000000E+00  0.10566000000E+00 0.  1.
     999900   -1    0    0    0    0 -0.00000000000E+00 -0.00000000000E+00 -0.74505805969E-08  0.93827000000E+00  0.93827000000E+00 0. -1.
     999902    2    1    2    0    0  0.10837049955E-01 -0.82526992222E-02 -0.13515019597E-03  0.10303077035E+01  0.10302176454E+01 0.  0.
     999903    2    3    3    0    0  0.81178753516E-01  0.79252064443E-01  0.69366638295E-01  0.14045629033E+00  0.45225648086E-01 0.  0.
         14    1    1    2    0    0 -0.10837049955E-01  0.82526992222E-02  0.13515019597E-03  0.13622296493E-01  0.00000000000E+00 0. -1.
     999901    1    3    3    0    0 -0.70341703562E-01 -0.87504763665E-01 -0.69501788491E-01  0.88985141317E+00  0.88000000000E+00 0. -1.
        -11    1    4    4    0    0  0.10516489249E-01  0.38800119895E-01  0.29033191920E-01  0.49590656419E-01  0.51100000000E-03 0.  1.
         11    1    4    4    0    0  0.70662264268E-01  0.40451944548E-01  0.40333446375E-01  0.90865633914E-01  0.51100000000E-03 0. -1.
</event>
<event>
 8    1  0.2257781E+004  0.1043930E+01  0.7957747E-01            NaN
         13   -1    0    0    0    0  0.00000000000E+00  0.00000000000E+00  0.74505805969E-08  0.10566000000E+00  0.10566000000E+00 0. -1.
     999900   -1    0    0    0    0 -0.00000000000E+00 -0.00000000000E+00 -0.74505805969E-08  0.93827000000E+00  0.93827000000E+00 0. -1.
     999902    2    1    2    0    0 -0.43499836886E-02  0.73470928699E-02 -0.10390860311E-01  0.10304811298E+01  0.10303933651E+01 0.  0.
     999903    2    3    3    0    0 -0.35372773973E-01 -0.61290791505E-01  0.11087771101E+00  0.13897698562E+00  0.44865816288E-01 0.  0.
         14    1    1    2    0    0  0.43499836886E-02 -0.73470928699E-02  0.10390860311E-01  0.13448870203E-01  0.00000000000E+00 0. -1.
     999901    1    3    3    0    0  0.31022790285E-01  0.68637884375E-01 -0.12126857133E+00  0.89150414417E+00  0.88000000000E+00 0. -1.
        -11    1    4    4    0    0 -0.32242260346E-01 -0.16075299437E-01  0.65985217150E-01  0.75181703941E-01  0.51100000000E-03 0.  1.
         11    1    4    4    0    0 -0.31305136275E-02 -0.45215492068E-01  0.44892493865E-01  0.63795281682E-01  0.51100000000E-03 0. -1.
</event>
<event>
 8    1  0.2257781E+004  0.1043930E+01  0.7957747E-01            NaN
         13   -1    0    0    0    0  0.00000000000E+00  0.00000000000E+00  0.74505805969E-08  0.10566000000E+00  0.10566000000E+00 0. -1.
     999900   -1    0    0    0    0 -0.00000000000E+00 -0.00000000000E+00 -0.74505805969E-08  0.93827000000E+00  0.93827000000E+00 0.  1.
     999902    2    1    2    0    0 -0.11960394008E-01  0.71638921296E-02 -0.44230966323E-02  0.10293034434E+01  0.10291995153E+01 0.  0.
     999903    2    3    3    0    0 -0.11067536044E+00 -0.67867373204E-01 -0.27686637067E-01  0.14030652116E+00  0.45435165372E-01 0.  0.
         14    1    1    2    0    0  0.11960394008E-01 -0.71638921296E-02  0.44230966323E-02  0.14626556639E-01  0.00000000000E+00 0.  1.
     999901    1    3    3    0    0  0.98714966434E-01  0.75031265333E-01  0.23263540434E-01  0.88899692220E+00  0.88000000000E+00 0.  1.
        -11    1    4    4    0    0 -0.71695634687E-01 -0.49176495593E-01 -0.39493046828E-01  0.95491118020E-01  0.51100000000E-03 0. -1.
         11    1    4    4    0    0 -0.38979725756E-01 -0.18690877611E-01  0.11806409761E-01  0.44815403137E-01  0.51100000000E-03 0.  1.
</event>
<event>
 8    1  0.2257781E+004  0.1043930E+01  0.7957747E-01            NaN
         13   -1    0    0    0    0  0.00000000000E+00  0.00000000000E+00  0.74505805969E-08  0.10566000000E+00  0.10566000000E+00 0.  1.
     999900   -1    0    0    0    0 -0.00000000000E+00 -0.00000000000E+00 -0.74505805969E-08  0.93827000000E+00  0.93827000000E+00 0. -1.
     999902    2    1    2    0    0  0.11411151625E-01 -0.93252733048E-02 -0.42552824429E-03  0.10291869956E+01  0.10290813942E+01 0.  0.
     999903    2    3    3    0    0  0.14194869248E-01 -0.29819728421E-01  0.12798807806E+00  0.13962652772E+00  0.44987871741E-01 0.  0.
         14    1    1    2    0    0 -0.11411151625E-01  0.93252733048E-02  0.42552824429E-03  0.14743004371E-01  0.00000000000E+00 0. -1.
     999901    1    3    3    0    0 -0.27837176234E-02  0.20494455116E-01 -0.12841360630E+00  0.88956046790E+00  0.88000000000E+00 0. -1.
        -11    1    4    4    0    0  0.28411527379E-01 -0.29968107640E-01  0.10102638323E+00  0.10914162173E+00  0.51100000000E-03 0.  1.
         11    1    4    4    0    0 -0.14216658131E-01  0.14837921914E-03  0.26961694824E-01  0.30484905996E-01  0.51100000000E-03 0. -1.
</event>
<event>
 8    1  0.2257781E+004  0.1043930E+01  0.7957747E-01            NaN
         13   -1    0    0    0    0  0.00000000000E+00  0.00000000000E+00  0.74505805969E-08  0.10566000000E+00  0.10566000000E+00 0. -1.
     999900   -1    0    0    0    0 -0.00000000000E+00 -0.00000000000E+00 -0.74505805969E-08  0.93827000000E+00  0.93827000000E+00 0.  1.
     999902    2    1    2    0    0 -0.53160803564E-02 -0.15079878557E-01 -0.66312948295E-02  0.10266199590E+01  0.10264740146E+01 0.  0.
     999903    2    3    3    0    0  0.49961338016E-01 -0.30071535660E-01  0.11456243246E+00  0.13646926262E+00  0.45813493161E-01 0.  0.
         14    1    1    2    0    0  0.53160803564E-02  0.15079878557E-01  0.66312948295E-02  0.17310040981E-01  0.00000000000E+00 0. -1.
     999901    1    3    3    0    0 -0.55277418372E-01  0.14991657103E-01 -0.12119372729E+00  0.89015069640E+00  0.88000000000E+00 0.  1.
        -11    1    4    4    0    0  0.14436795338E-01 -0.34885381070E-01  0.50476852831E-01  0.63036375727E-01  0.51100000000E-03 0. -1.
         11    1    4    4    0    0  0.35524542678E-01  0.48138454102E-02  0.64085579629E-01  0.73432886894E-01  0.51100000000E-03 0.  1.
</event>
<event>
 8    1  0.2257781E+004  0.1043930E+01  0.7957747E-01            NaN
         13   -1    0    0    0    0  0.00000000000E+00  0.00000000000E+00  0.74505805969E-08  0.10566000000E+00  0.10566000000E+00 0. -1.
     999900   -1    0    0    0    0 -0.00000000000E+00 -0.00000000000E+00 -0.74505805969E-08  0.93827000000E+00  0.93827000000E+00 0. -1.
     999902    2    1    2    0    0 -0.73675096576E-02 -0.70212739243E-02  0.92829030221E-02  0.10301549946E+01  0.10300628923E+01 0.  0.
     999903    2    3    3    0    0  0.62130757809E-02 -0.11768007794E+00  0.63965599787E-01  0.14143681622E+00  0.45006354793E-01 0.  0.
         14    1    1    2    0    0  0.73675096576E-02  0.70212739243E-02 -0.92829030221E-02  0.13775005430E-01  0.00000000000E+00 0.  1.
     999901    1    3    3    0    0 -0.13580585438E-01  0.11065880401E+00 -0.54682696765E-01  0.88871817835E+00  0.88000000000E+00 0. -1.
        -11    1    4    4    0    0  0.20409240734E-01 -0.39432915151E-01  0.35907690734E-01  0.57106175494E-01  0.51100000000E-03 0. -1.
         11    1    4    4    0    0 -0.14196164954E-01 -0.78247162787E-01  0.28057909053E-01  0.84330640725E-01  0.51100000000E-03 0.  1.
</event>
<event>
 8    1  0.2257781E+004  0.1043930E+01  0.7957747E-01            NaN
         13   -1    0    0    0    0  0.00000000000E+00  0.00000000000E+00  0.74505805969E-08  0.10566000000E+00  0.10566000000E+00 0. -1.
     999900   -1    0    0    0    0 -0.00000000000E+00 -0.00000000000E+00 -0.74505805969E-08  0.93827000000E+00  0.93827000000E+00 0. -1.
     999902    2    1    2    0    0 -0.21139900427E-04  0.12368816080E-01  0.58447560373E-02  0.10302497503E+01  0.10301589192E+01 0.  0.
     999903    2    3    3    0    0 -0.65887816044E-01  0.40478537655E-01  0.10943764792E+00  0.14128402392E+00  0.44775666578E-01 0.  0.
         14    1    1    2    0    0  0.21139900426E-04 -0.12368816080E-01 -0.58447560373E-02  0.13680249678E-01  0.00000000000E+00 0. -1.
     999901    1    3    3    0    0  0.65866676144E-01 -0.28109721575E-01 -0.10359289189E+00  0.88896572640E+00  0.88000000000E+00 0. -1.
        -11    1    4    4    0    0 -0.46746974033E-01  0.46898005813E-01  0.97384619283E-01  0.11776556256E+00  0.51100000000E-03 0.  1.
         11    1    4    4    0    0 -0.19140842011E-01 -0.64194681587E-02  0.12053028640E-01  0.23518461359E-01  0.51100000000E-03 0. -1.
</event>
<event>
 8    1  0.2257781E+004  0.1043930E+01  0.7957747E-01            NaN
         13   -1    0    0    0    0  0.00000000000E+00  0.00000000000E+00  0.74505805969E-08  0.10566000000E+00  0.10566000000E+00 0. -1.
     999900   -1    0    0    0    0 -0.00000000000E+00 -0.00000000000E+00 -0.74505805969E-08  0.93827000000E+00  0.93827000000E+00 0.  1.
     999902    2    1    2    0    0 -0.51348325101E-02 -0.10372390329E-01 -0.38184150220E-02  0.10317425770E+01  0.10316705927E+01 0.  0.
     999903    2    3    3    0    0 -0.74212342009E-01 -0.35490603664E-01  0.10805004493E+00  0.14162057453E+00  0.40181093375E-01 0.  0.
         14    1    1    2    0    0  0.51348325101E-02  0.10372390329E-01  0.38184150220E-02  0.12187422998E-01  0.00000000000E+00 0. -1.
     999901    1    3    3    0    0  0.69077509499E-01  0.25118213335E-01 -0.11186845995E+00  0.89012200248E+00  0.88000000000E+00 0.  1.
        -11    1    4    4    0    0 -0.30636213214E-01 -0.26104837109E-01  0.25062011377E-01  0.47417355640E-01  0.51100000000E-03 0. -1.
         11    1    4    4    0    0 -0.43576128794E-01 -0.93857665554E-02  0.82988033553E-01  0.94203218886E-01  0.51100000000E-03 0.  1.
</event>
<event>
 8    1  0.2257781E+004  0.1043930E+01  0.7957747E-01            NaN
         13   -1    0    0    0    0  0.00000000000E+00  0.00000000000E+00  0.74505805969E-08  0.10566000000E+00  0.10566000000E+00 0. -1.
     999900   -1    0    0    0    0 -0.00000000000E+00 -0.00000000000E+00 -0.74505805969E-08  0.93827000000E+00  0.93827000000E+00 0. -1.
     999902    2    1    2    0    0  0.18359325604E-02 -0.41942446501E-02 -0.15071208408E-01  0.10281786934E+01  0.10280580343E+01 0.  0.
     999903    2    3    3    0    0  0.61128608012E-01  0.11518993071E+00 -0.33473463733E-02  0.13806316628E+00  0.45219534522E-01 0.  0.
         14    1    1    2    0    0 -0.18359325604E-02  0.41942446501E-02  0.15071208408E-01  0.15751306595E-01  0.00000000000E+00 0.  1.
     999901    1    3    3    0    0 -0.59292675451E-01 -0.11938417536E+00 -0.11723862035E-01  0.89011552712E+00  0.88000000000E+00 0. -1.
        -11    1    4    4    0    0  0.52388351192E-02 -0.30914417091E-02  0.35460757246E-02  0.70596160867E-02  0.51100000000E-03 0.  1.
         11    1    4    4    0    0  0.55889772893E-01  0.11828137241E+00 -0.68934220979E-02  0.13100355019E+00  0.51100000000E-03 0. -1.
</event>
<event>
 8    1  0.2257781E+004  0.1043930E+01  0.7957747E-01            NaN
         13   -1    0    0    0    0  0.00000000000E+00  0.00000000000E+00  0.74505805969E-08  0.10566000000E+00  0.10566000000E+00 0. -1.
     999900   -1    0    0    0    0 -0.00000000000E+00 -0.00000000000E+00 -0.74505805969E-08  0.93827000000E+00  0.93827000000E+00 0.  1.
     999902    2    1    2    0    0 -0.11098836204E-02  0.14069383381E-01 -0.17956169693E-01  0.10210913612E+01  0.10208359146E+01 0.  0.
     999903    2    3    3    0    0 -0.64932946648E-01 -0.10420556370E+00 -0.61208773890E-02  0.13080914721E+00  0.44704370986E-01 0.  0.
         14    1    1    2    0    0  0.11098836204E-02 -0.14069383381E-01  0.17956169693E-01  0.22838638760E-01  0.00000000000E+00 0. -1.
     999901    1    3    3    0    0  0.63823063028E-01  0.11827494709E+00 -0.11835292304E-01  0.89028221403E+00  0.88000000000E+00 0.  1.
        -11    1    4    4    0    0 -0.17216692251E-01 -0.26876841949E-01 -0.21722652769E-01  0.38612354105E-01  0.51100000000E-03 0.  1.
         11    1    4    4    0    0 -0.47716254398E-01 -0.77328721755E-01  0.15601775380E-01  0.92196793101E-01  0.51100000000E-03 0. -1.
</event>
<event>
 8    1  0.2257781E+004  0.1043930E+01  0.7957747E-01            NaN
         13   -1    0    0    0    0  0.00000000000E+00  0.00000000000E+00  0.74505805969E-08  0.10566000000E+00  0.10566000000E+00 0. -1.
     999900   -1    0    0    0    0 -0.00000000000E+00 -0.00000000000E+00 -0.74505805969E-08  0.93827000000E+00  0.93827000000E+00 0. -1.
     999902    2    1    2    0    0  0.57700337621E-02 -0.79238806926E-02  0.88975291093E-02  0.10306919035E+01  0.10306068856E+01 0.  0.
     999903    2    3    3    0    0  0.79543256004E-01  0.10648225904E+00  0.62461650209E-02  0.14022108260E+00  0.44241794304E-01 0.  0.
         14    1    1    2    0    0 -0.57700337621E-02  0.79238806926E-02 -0.88975291093E-02  0.13238096506E-01  0.00000000000E+00 0.  1.
     999901    1    3    3    0    0 -0.73773222242E-01 -0.11440613973E+00  0.26513640884E-02  0.89047082089E+00  0.88000000000E+00 0.  1.
        -11    1    4    4    0    0  0.42176307133E-01  0.88708109722E-01  0.96557253203E-02  0.98698853926E-01  0.51100000000E-03 0.  1.
         11    1    4    4    0    0  0.37366948871E-01  0.17774149316E-01 -0.34095602994E-02  0.41522228677E-01  0.51100000000E-03 0. -1.
</event>
<event>
 8    1  0.2257781E+004  0.1043930E+01  0.7957747E-01            NaN
         13   -1    0    0    0    0  0.00000000000E+00  0.00000000000E+00  0.74505805969E-08  0.10566000000E+00  0.10566000000E+00 0.  1.
     999900   -1    0    0    0    0 -0.00000000000E+00 -0.00000000000E+00 -0.74505805969E-08  0.93827000000E+00  0.93827000000E+00 0.  1.
     999902    2    1    2    0    0 -0.89073234115E-02  0.55525857328E-02 -0.14884708354E-01  0.10257166488E+01  0.10255549315E+01 0.  0.
     999903    2    3    3    0    0  0.87615306862E-01  0.16605988935E-01 -0.91343332036E-01  0.13707458532E+00  0.49936327135E-01 0.  0.
         14    1    1    2    0    0  0.89073234115E-02 -0.55525857328E-02  0.14884708354E-01  0.18213351187E-01  0.00000000000E+00 0.  1.
     999901    1    3    3    0    0 -0.96522630274E-01 -0.11053403203E-01  0.76458623682E-01  0.88864206350E+00  0.88000000000E+00 0.  1.
        -11    1    4    4    0    0  0.68648645189E-01 -0.16885351017E-02 -0.40287122478E-01  0.79616587440E-01  0.51100000000E-03 0. -1.
         11    1    4    4    0    0  0.18966661673E-01  0.18294524037E-01 -0.51056209558E-01  0.57457997878E-01  0.51100000000E-03 0.  1.
</event>
<event>
 8    1  0.2257781E+004  0.1043930E+01  0.7957747E-01            NaN
         13   -1    0    0    0    0  0.00000000000E+00  0.00000000000E+00  0.74505805969E-08  0.10566000000E+00  0.10566000000E+00 0. -1.
     999900   -1    0    0    0    0 -0.00000000000E+00 -0.00000000000E+00 -0.74505805969E-08  0.93827000000E+00  0.93827000000E+00 0. -1.
     999902    2    1    2    0    0 -0.84624661220E-02  0.22821928987E-02 -0.10562118051E-01  0.10302048379E+01  0.10301134054E+01 0.  0.
     999903    2    3    3    0    0 -0.85334468110E-01  0.78958595963E-01  0.63635976636E-01  0.14043299481E+00  0.46426901524E-01 0.  0.
         14    1    1    2    0    0  0.84624661220E-02 -0.22821928987E-02  0.10562118051E-01  0.13725162112E-01  0.00000000000E+00 0. -1.
     999901    1    3    3    0    0  0.76872001988E-01 -0.76676403065E-01 -0.74198094686E-01  0.88977184308E+00  0.88000000000E+00 0. -1.
        -11    1    4    4    0    0 -0.63177723199E-01  0.80212589572E-01  0.45576839443E-01  0.11181678608E+00  0.51100000000E-03 0.  1.
         11    1    4    4    0    0 -0.22156744911E-01 -0.12539936089E-02  0.18059137193E-01  0.28616208732E-01  0.51100000000E-03 0. -1.
</event>
<event>
 8    1  0.2257781E+004  0.1043930E+01  0.7957747E-01            NaN
         13   -1    0    0    0    0  0.00000000000E+00  0.00000000000E+00  0.74505805969E-08  0.10566000000E+00  0.10566000000E+00 0.  1.
     999900   -1    0    0    0    0 -0.00000000000E+00 -0.00000000000E+00 -0.74505805969E-08  0.93827000000E+00  0.93827000000E+00 0.  1.
     999902    2    1    2    0    0 -0.39543081138E-02 -0.47969961595E-02  0.14198329715E-01  0.10284303132E+01  0.10283135070E+01 0.  0.
     999903    2    3    3    0    0 -0.92035906209E-01  0.23052665181E-01  0.91898618863E-01  0.14018974526E+00  0.46965680283E-01 0.  0.
         14    1    1    2    0    0  0.39543081138E-02  0.47969961595E-02 -0.14198329715E-01  0.15499686820E-01  0.00000000000E+00 0. -1.
     999901    1    3    3    0    0  0.88081598095E-01 -0.27849661340E-01 -0.77700289147E-01  0.88824056792E+00  0.88000000000E+00 0.  1.
        -11    1    4    4    0    0 -0.34363336311E-02  0.11122246760E-01  0.27921861571E-01  0.30255648009E-01  0.51100000000E-03 0. -1.
         11    1    4    4    0    0 -0.88599572578E-01  0.11930418421E-01  0.63976757291E-01  0.10993409725E+00  0.51100000000E-03 0.  1.
</event>
<event>
 8    1  0.2257781E+004  0.1043930E+01  0.7957747E-01            NaN
         13   -1    0    0    0    0  0.00000000000E+00  0.00000000000E+00  0.74505805969E-08  0.10566000000E+00  0.10566000000E+00 0.  1.
     999900   -1    0    0    0    0 -0.00000000000E+00 -0.00000000000E+00 -0.74505805969E-08  0.93827000000E+00  0.93827000000E+00 0. -1.
     999902    2    1    2    0    0  0.27645034266E-02 -0.13641062470E-01 -0.12485440675E-03  0.10300110685E+01  0.10299170183E+01 0.  0.
     999903    2    3    3    0    0 -0.60945458543E-01  0.53527034560E-01  0.10388821384E+00  0.13906256785E+00  0.44341227480E-01 0.  0.
         14    1    1    2    0    0 -0.27645034266E-02  0.13641062470E-01  0.12485440675E-03  0.13918931465E-01  0.00000000000E+00 0.  1.
     999901    1    3    3    0    0  0.63709961969E-01 -0.67168097030E-01 -0.10401306825E+00  0.89094850069E+00  0.88000000000E+00 0. -1.
        -11    1    4    4    0    0 -0.39485927009E-01  0.18002926885E-01  0.25427154743E-01  0.50299553949E-01  0.51100000000E-03 0. -1.
         11    1    4    4    0    0 -0.21459531534E-01  0.35524107676E-01  0.78461059101E-01  0.88763013897E-01  0.51100000000E-03 0.  1.
</event>
<event>
 8    1  0.2257781E+004  0.1043930E+01  0.7957747E-01            NaN
         13   -1    0    0    0    0  0.00000000000E+00  0.00000000000E+00  0.74505805969E-08  0.10566000000E+00  0.10566000000E+00 0.  1.
     999900   -1    0    0    0    0 -0.00000000000E+00 -0.00000000000E+00 -0.74505805969E-08  0.93827000000E+00  0.93827000000E+00 0.  1.
     999902    2    1    2    0    0 -0.12804876190E-01 -0.57543953509E-02 -0.28019691914E-02  0.10296146603E+01  0.10295151382E+01 0.  0.
     999903    2    3    3    0    0 -0.86464074114E-01 -0.48218677798E-02 -0.10196863986E+00  0.14098618019E+00  0.44499583920E-01 0.  0.
         14    1    1    2    0    0  0.12804876190E-01  0.57543953509E-02  0.28019691914E-02  0.14315339725E-01  0.00000000000E+00 0. -1.
     999901    1    3    3    0    0  0.73659197924E-01 -0.93252757109E-03  0.99166670666E-01  0.88862848008E+00  0.88000000000E+00 0. -1.
        -11    1    4    4    0    0 -0.65263759089E-01 -0.48849941490E-02 -0.10023320703E+00  0.11970872287E+00  0.51100000000E-03 0.  1.
         11    1    4    4    0    0 -0.21200315025E-01  0.63126369167E-04 -0.17354328303E-02  0.21277457324E-01  0.51100000000E-03 0. -1.
</event>
<event>
 8    1  0.2257781E+004  0.1043930E+01  0.7957747E-01            NaN
         13   -1    0    0    0    0  0.00000000000E+00  0.00000000000E+00  0.74505805969E-08  0.10566000000E+00  0.10566000000E+00 0.  1.
     999900   -1    0    0    0    0 -0.00000000000E+00 -0.00000000000E+00 -0.74505805969E-08  0.93827000000E+00  0.93827000000E+00 0. -1.
     999902    2    1    2    0    0  0.11208080634E-01  0.79322931868E-02 -0.10444526803E-02  0.10301592619E+01  0.10300672170E+01 0.  0.
     999903    2    3    3    0    0  0.75869140912E-01  0.88693917189E-01 -0.66683294458E-01  0.14167068561E+00  0.44734594140E-01 0.  0.
         14    1    1    2    0    0 -0.11208080634E-01 -0.79322931868E-02  0.10444526803E-02  0.13770738110E-01  0.00000000000E+00 0.  1.
     999901    1    3    3    0    0 -0.64661060278E-01 -0.80761624002E-01  0.65638841777E-01  0.88848857628E+00  0.88000000000E+00 0.  1.
        -11    1    4    4    0    0  0.48630841168E-01  0.30544017151E-01 -0.15312500733E-01  0.59435927655E-01  0.51100000000E-03 0.  1.
         11    1    4    4    0    0  0.27238299743E-01  0.58149900038E-01 -0.51370793724E-01  0.82234757957E-01  0.51100000000E-03 0. -1.
</event>
<event>
 8    1  0.2257781E+004  0.1043930E+01  0.7957747E-01            NaN
         13   -1    0    0    0    0  0.00000000000E+00  0.00000000000E+00  0.74505805969E-08  0.10566000000E+00  0.10566000000E+00 0. -1.
     999900   -1    0    0    0    0 -0.00000000000E+00 -0.00000000000E+00 -0.74505805969E-08  0.93827000000E+00  0.93827000000E+00 0.  1.
     999902    2    1    2    0    0 -0.83561441625E-02  0.15024502488E-01 -0.52010838861E-02  0.10259685943E+01  0.10258113591E+01 0.  0.
     999903    2    3    3    0    0 -0.29130398351E-01 -0.94186188688E-01 -0.82953418220E-01  0.13557319328E+00  0.42180598553E-01 0.  0.
         14    1    1    2    0    0  0.83561441625E-02 -0.15024502488E-01  0.52010838861E-02  0.17961405676E-01  0.00000000000E+00 0.  1.
     999901    1    3    3    0    0  0.20774254189E-01  0.10921069118E+00  0.77752334334E-01  0.89039540104E+00  0.88000000000E+00 0. -1.
        -11    1    4    4    0    0  0.35691768550E-02 -0.85663307320E-02 -0.26131879595E-01  0.27735488058E-01  0.51100000000E-03 0. -1.
         11    1    4    4    0    0 -0.32699575206E-01 -0.85619857956E-01 -0.56821538625E-01  0.10783770522E+00  0.51100000000E-03 0.  1.
</event>
<event>
 8    1  0.2257781E+004  0.1043930E+01  0.7957747E-01            NaN
         13   -1    0    0    0    0  0.00000000000E+00  0.00000000000E+00  0.74505805969E-08  0.10566000000E+00  0.10566000000E+00 0.  1.
     999900   -1    0    0    0    0 -0.00000000000E+00 -0.00000000000E+00 -0.74505805969E-08  0.93827000000E+00  0.93827000000E+00 0.  1.
     999902    2    1    2    0    0  0.38962431568E-02  0.10822332872E-01  0.81894070821E-02  0.10298101562E+01  0.10297133523E+01 0.  0.
     999903    2    3    3    0    0 -0.54749632937E-01  0.11233814606E+00  0.47591060537E-01  0.14116101884E+00  0.45212197789E-01 0.  0.
         14    1    1    2    0    0 -0.38962431568E-02 -0.10822332872E-01 -0.81894070821E-02  0.14119843763E-01  0.00000000000E+00 0.  1.
     999901    1    3    3    0    0  0.58645876093E-01 -0.10151581319E+00 -0.39401653455E-01  0.88864913740E+00  0.88000000000E+00 0.  1.
        -11    1    4    4    0    0 -0.34073625704E-01  0.23713807275E-01  0.19873596042E-01  0.46028008481E-01  0.51100000000E-03 0. -1.
         11    1    4    4    0    0 -0.20676007233E-01  0.88624338785E-01  0.27717464495E-01  0.95133010355E-01  0.51100000000E-03 0.  1.
</event>
<event>
 8    1  0.2257781E+004  0.1043930E+01  0.7957747E-01            NaN
         13   -1    0    0    0    0  0.00000000000E+00  0.00000000000E+00  0.74505805969E-08  0.10566000000E+00  0.10566000000E+00 0. -1.
     999900   -1    0    0    0    0 -0.00000000000E+00 -0.00000000000E+00 -0.74505805969E-08  0.93827000000E+00  0.93827000000E+00 0.  1.
     999902    2    1    2    0    0 -0.58142399639E-02  0.27831733262E-02 -0.64150371917E-02  0.10348358182E+01  0.10347958574E+01 0.  0.
     999903    2    3    3    0    0 -0.22913427808E-01 -0.69206613824E-02 -0.13586334870E+00  0.14514856306E+00  0.45125769937E-01 0.  0.
         14    1    1    2    0    0  0.58142399639E-02 -0.27831733262E-02  0.64150371917E-02  0.90941817824E-02  0.00000000000E+00 0. -1.
     999901    1    3    3    0    0  0.17099187844E-01  0.97038347086E-02  0.12944831150E+00  0.88968725515E+00  0.88000000000E+00 0. -1.
        -11    1    4    4    0    0 -0.55522083159E-02 -0.82917276777E-02 -0.12321316037E+00  0.12361765154E+00  0.51100000000E-03 0. -1.
         11    1    4    4    0    0 -0.17361219492E-01  0.13710662952E-02 -0.12650188331E-01  0.21530911519E-01  0.51100000000E-03 0.  1.
</event>
<event>
 8    1  0.2257781E+004  0.1043930E+01  0.7957747E-01            NaN
         13   -1    0    0    0    0  0.00000000000E+00  0.00000000000E+00  0.74505805969E-08  0.10566000000E+00  0.10566000000E+00 0.  1.
     999900   -1    0    0    0    0 -0.00000000000E+00 -0.00000000000E+00 -0.74505805969E-08  0.93827000000E+00  0.93827000000E+00 0. -1.
     999902    2    1    2    0    0 -0.53459062228E-02  0.26147277918E-02 -0.12891025148E-01  0.10297316183E+01  0.10296337269E+01 0.  0.
     999903    2    3    3    0    0  0.84351756253E-01 -0.20604542486E-01  0.97075246081E-01  0.13806049841E+00  0.45796635954E-01 0.  0.
         14    1    1    2    0    0  0.53459062228E-02 -0.26147277918E-02  0.12891025148E-01  0.14198381744E-01  0.00000000000E+00 0.  1.
     999901    1    3    3    0    0 -0.89697662476E-01  0.23219270278E-01 -0.10996627123E+00  0.89167111985E+00  0.88000000000E+00 0.  1.
        -11    1    4    4    0    0  0.86250151987E-01 -0.23342638303E-01  0.77755556847E-01  0.11844895619E+00  0.51100000000E-03 0.  1.
         11    1    4    4    0    0 -0.18983957342E-02  0.27380958172E-02  0.19319689233E-01  0.19611542217E-01  0.51100000000E-03 0. -1.
</event>
<event>
 8    1  0.2257781E+004  0.1043930E+01  0.7957747E-01            NaN
         13   -1    0    0    0    0  0.00000000000E+00  0.00000000000E+00  0.74505805969E-08  0.10566000000E+00  0.10566000000E+00 0. -1.
     999900   -1    0    0    0    0 -0.00000000000E+00 -0.00000000000E+00 -0.74505805969E-08  0.93827000000E+00  0.93827000000E+00 0. -1.
     999902    2    1    2    0    0  0.37796775681E-02 -0.12493471580E-01 -0.68491583359E-02  0.10291894517E+01  0.10290838856E+01 0.  0.
     999903    2    3    3    0    0  0.46930783842E-01  0.48430051959E-01  0.11182950553E+00  0.13808995166E+00  0.44889063680E-01 0.  0.
         14    1    1    2    0    0 -0.37796775681E-02  0.12493471580E-01  0.68491583359E-02  0.14740548313E-01  0.00000000000E+00 0.  1.
     999901    1    3    3    0    0 -0.43151106274E-01 -0.60923523540E-01 -0.11867866386E+00  0.89109950003E+00  0.88000000000E+00 0.  1.
        -11    1    4    4    0    0  0.38543471044E-01  0.45443416922E-01  0.56736929741E-01  0.82280274787E-01  0.51100000000E-03 0.  1.
         11    1    4    4    0    0  0.83873127987E-02  0.29866350372E-02  0.55092575787E-01  0.55809676873E-01  0.51100000000E-03 0. -1.
</event>
<event>
 8    1  0.2257781E+004  0.1043930E+01  0.7957747E-01            NaN
         13   -1    0    0    0    0  0.00000000000E+00  0.00000000000E+00  0.74505805969E-08  0.10566000000E+00  0.10566000000E+00 0. -1.
     999900   -1    0    0    0    0 -0.00000000000E+00 -0.00000000000E+00 -0.74505805969E-08  0.93827000000E+00  0.93827000000E+00 0. -1.
     999902    2    1    2    0    0  0.37669762892E-02 -0.71848064446E-02  0.88878735607E-02  0.10318964697E+01  0.10318263024E+01 0.  0.
     999903    2    3    3    0    0  0.73873928102E-01  0.10511380609E+00  0.38510908786E-01  0.14150133988E+00  0.45091790905E-01 0.  0.
         14    1    1    2    0    0 -0.37669762892E-02  0.71848064446E-02 -0.88878735607E-02  0.12033530257E-01  0.00000000000E+00 0.  1.
     999901    1    3    3    0    0 -0.70106951813E-01 -0.11229861254E+00 -0.29623035225E-01  0.89039512986E+00  0.88000000000E+00 0. -1.
        -11    1    4    4    0    0  0.59462748339E-01  0.69811689689E-01  0.46068629256E-01  0.10262587481E+00  0.51100000000E-03 0.  1.
         11    1    4    4    0    0  0.14411179764E-01  0.35302116405E-01 -0.75577204700E-02  0.38875465072E-01  0.51100000000E-03 0. -1.
</event>
<event>
 8    1  0.2257781E+004  0.1043930E+01  0.7957747E-01            NaN
         13   -1    0    0    0    0  0.00000000000E+00  0.00000000000E+00  0.74505805969E-08  0.10566000000E+00  0.10566000000E+00 0. -1.
     999900   -1    0    0    0    0 -0.00000000000E+00 -0.00000000000E+00 -0.74505805969E-08  0.93827000000E+00  0.93827000000E+00 0. -1.
     999902    2    1    2    0    0 -0.31974670850E-02  0.89762479023E-02  0.11121789755E-01  0.10292844877E+01  0.10291802882E+01 0.  0.
     999903    2    3    3    0    0 -0.71878563560E-02 -0.12965577430E+00 -0.14885283862E-01  0.13804314631E+00  0.44407808762E-01 0.  0.
         14    1    1    2    0    0  0.31974670850E-02 -0.89762479023E-02 -0.11121789755E-01  0.14645512265E-01  0.00000000000E+00 0. -1.
     999901    1    3    3    0    0  0.39903892709E-02  0.13863202220E+00  0.26007073617E-01  0.89124134142E+00  0.88000000000E+00 0.  1.
        -11    1    4    4    0    0 -0.20583310663E-01 -0.63103103635E-01  0.69224733387E-02  0.66737216936E-01  0.51100000000E-03 0.  1.
         11    1    4    4    0    0  0.13395454307E-01 -0.66552670665E-01 -0.21807757201E-01  0.71305929374E-01  0.51100000000E-03 0. -1.
</event>
<event>
 8    1  0.2257781E+004  0.1043930E+01  0.7957747E-01            NaN
         13   -1    0    0    0    0  0.00000000000E+00  0.00000000000E+00  0.74505805969E-08  0.10566000000E+00  0.10566000000E+00 0. -1.
     999900   -1    0    0    0    0 -0.00000000000E+00 -0.00000000000E+00 -0.74505805969E-08  0.93827000000E+00  0.93827000000E+00 0. -1.
     999902    2    1    2    0    0  0.30077580990E-02 -0.61805292198E-02 -0.11012306985E-01  0.10309486112E+01  0.10308668791E+01 0.  0.
     999903    2    3    3    0    0 -0.38032105090E-01 -0.11693375205E+00 -0.54669278489E-01  0.14198490108E+00  0.45288395183E-01 0.  0.
         14    1    1    2    0    0 -0.30077580990E-02  0.61805292198E-02  0.11012306985E-01  0.12981388807E-01  0.00000000000E+00 0. -1.
     999901    1    3    3    0    0  0.41039863189E-01  0.11075322283E+00  0.43656971504E-01  0.88896371011E+00  0.88000000000E+00 0.  1.
        -11    1    4    4    0    0  0.98209688159E-02 -0.31962953068E-01 -0.16086124575E-01  0.37109383209E-01  0.51100000000E-03 0. -1.
         11    1    4    4    0    0 -0.47853073905E-01 -0.84970798981E-01 -0.38583153914E-01  0.10487551787E+00  0.51100000000E-03 0.  1.
</event>
<event>
 8    1  0.2257781E+004  0.1043930E+01  0.7957747E-01            NaN
         13   -1    0    0    0    0  0.00000000000E+00  0.00000000000E+00  0.74505805969E-08  0.10566000000E+00  0.10566000000E+00 0. -1.
     999900   -1    0    0    0    0 -0.00000000000E+00 -0.00000000000E+00 -0.74505805969E-08  0.93827000000E+00  0.93827000000E+00 0. -1.
     999902    2    1    2    0    0  0.13859878159E-01 -0.76824209610E-03  0.12647559391E-02  0.10299913478E+01  0.10298970291E+01 0.  0.
     999903    2    3    3    0    0  0.32831098503E-01 -0.77754916528E-01  0.10330983110E+00  0.14055329337E+00  0.44256061761E-01 0.  0.
         14    1    1    2    0    0 -0.13859878159E-01  0.76824209610E-03 -0.12647559391E-02  0.13938652234E-01  0.00000000000E+00 0. -1.
     999901    1    3    3    0    0 -0.18971220344E-01  0.76986674432E-01 -0.10204507516E+00  0.88943805439E+00  0.88000000000E+00 0. -1.
        -11    1    4    4    0    0  0.15341713157E-01 -0.25385720119E-01  0.85377204273E-02  0.30869997403E-01  0.51100000000E-03 0.  1.
         11    1    4    4    0    0  0.17489385346E-01 -0.52369196409E-01  0.94772110672E-01  0.10968329597E+00  0.51100000000E-03 0. -1.
</event>
<event>
 8    1  0.2257781E+004  0.1043930E+01  0.7957747E-01            NaN
         13   -1    0    0    0    0  0.00000000000E+00  0.00000000000E+00  0.74505805969E-08  0.10566000000E+00  0.10566000000E+00 0.  1.
     999900   -1    0    0    0    0 -0.00000000000E+00 -0.00000000000E+00 -0.74505805969E-08  0.93827000000E+00  0.93827000000E+00 0. -1.
     999902    2    1    2    0    0  0.56220160855E-02 -0.11820176678E-01  0.56979963298E-02  0.10296544684E+01  0.10295555028E+01 0.  0.
     999903    2    3    3    0    0  0.66642726602E-01 -0.10333667411E+00 -0.51628838902E-01  0.14095589040E+00  0.45643233977E-01 0.  0.
         14    1    1    2    0    0 -0.56220160855E-02  0.11820176678E-01 -0.56979963298E-02  0.14275531645E-01  0.00000000000E+00 0.  1.
     999901    1    3    3    0    0 -0.61020710517E-01  0.91516497434E-01  0.57326835232E-01  0.88869857795E+00  0.88000000000E+00 0.  1.
        -11    1    4    4    0    0  0.65284911742E-01 -0.70160095907E-01 -0.26867563428E-01  0.99532335673E-01  0.51100000000E-03 0. -1.
         11    1    4    4    0    0  0.13578148606E-02 -0.33176578204E-01 -0.24761275474E-01  0.41423554732E-01  0.51100000000E-03 0.  1.
</event>
<event>
 8    1  0.2257781E+004  0.1043930E+01  0.7957747E-01            NaN
         13   -1    0    0    0    0  0.00000000000E+00  0.00000000000E+00  0.74505805969E-08  0.10566000000E+00  0.10566000000E+00 0. -1.
     999900   -1    0    0    0    0 -0.00000000000E+00 -0.00000000000E+00 -0.74505805969E-08  0.93827000000E+00  0.93827000000E+00 0.  1.
     999902    2    1    2    0    0 -0.13172303874E-01  0.61913131608E-02  0.36377759132E-02  0.10289274882E+01  0.10288181086E+01 0.  0.
     999903    2    3    3    0    0  0.98977154651E-02  0.62834996582E-01 -0.11502021589E+00  0.13885982124E+00  0.44790605322E-01 0.  0.
         14    1    1    2    0    0  0.13172303874E-01 -0.61913131608E-02 -0.36377759132E-02  0.15002511843E-01  0.00000000000E+00 0.  1.
     999901    1    3    3    0    0 -0.23070019339E-01 -0.56643683422E-01  0.11865799181E+00  0.89006766691E+00  0.88000000000E+00 0.  1.
        -11    1    4    4    0    0  0.19471699139E-01  0.85641433800E-02 -0.21111496410E-01  0.29974122521E-01  0.51100000000E-03 0.  1.
         11    1    4    4    0    0 -0.95739836744E-02  0.54270853202E-01 -0.93908719482E-01  0.10888569872E+00  0.51100000000E-03 0. -1.
</event>
<event>
 8    1  0.2257781E+004  0.1043930E+01  0.7957747E-01            NaN
         13   -1    0    0    0    0  0.00000000000E+00  0.00000000000E+00  0.74505805969E-08  0.10566000000E+00  0.10566000000E+00 0. -1.
     999900   -1    0    0    0    0 -0.00000000000E+00 -0.00000000000E+00 -0.74505805969E-08  0.93827000000E+00  0.93827000000E+00 0.  1.
     999902    2    1    2    0    0  0.93728789724E-02  0.57563731796E-02  0.15611336906E-01  0.10248328659E+01  0.10246549187E+01 0.  0.
     999903    2    3    3    0    0  0.11599386528E+00 -0.45103794480E-01 -0.30169412511E-01  0.13575993949E+00  0.45073702533E-01 0.  0.
         14    1    1    2    0    0 -0.93728789724E-02 -0.57563731796E-02 -0.15611336906E-01  0.19097134141E-01  0.00000000000E+00 0.  1.
     999901    1    3    3    0    0 -0.10662098631E+00  0.50860167659E-01  0.45780749418E-01  0.88907292636E+00  0.88000000000E+00 0. -1.
        -11    1    4    4    0    0  0.89815473044E-01 -0.50822006614E-01 -0.34069836605E-01  0.10867709253E+00  0.51100000000E-03 0.  1.
         11    1    4    4    0    0  0.26178392241E-01  0.57182121348E-02  0.39004240940E-02  0.27082846960E-01  0.51100000000E-03 0. -1.
</event>
<event>
 8    1  0.2257781E+004  0.1043930E+01  0.7957747E-01            NaN
         13   -1    0    0    0    0  0.00000000000E+00  0.00000000000E+00  0.74505805969E-08  0.10566000000E+00  0.10566000000E+00 0.  1.
     999900   -1    0    0    0    0 -0.00000000000E+00 -0.00000000000E+00 -0.74505805969E-08  0.93827000000E+00  0.93827000000E+00 0.  1.
     999902    2    1    2    0    0  0.10692301721E-01 -0.73096050380E-02  0.75274455112E-02  0.10289494100E+01  0.10288403521E+01 0.  0.
     999903    2    3    3    0    0 -0.83801737622E-01  0.87536042817E-01 -0.45395270249E-01  0.13725123556E+00  0.45737086504E-01 0.  0.
         14    1    1    2    0    0 -0.10692301721E-01  0.73096050380E-02 -0.75274455112E-02  0.14980590036E-01  0.00000000000E+00 0. -1.
     999901    1    3    3    0    0  0.94494039343E-01 -0.94845647855E-01  0.52922715761E-01  0.89169817440E+00  0.88000000000E+00 0. -1.
        -11    1    4    4    0    0 -0.69642044940E-01  0.42045327314E-01 -0.34561650141E-01  0.88388872342E-01  0.51100000000E-03 0.  1.
         11    1    4    4    0    0 -0.14159692682E-01  0.45490715503E-01 -0.10833620108E-01  0.48862363220E-01  0.51100000000E-03 0. -1.
</event>
<event>
 8    1  0.2257781E+004  0.1043930E+01  0.7957747E-01            NaN
         13   -1    0    0    0    0  0.00000000000E+00  0.00000000000E+00  0.74505805969E-08  0.10566000000E+00  0.10566000000E+00 0.  1.
     999900   -1    0    0    0    0 -0.00000000000E+00 -0.00000000000E+00 -0.74505805969E-08  0.93827000000E+00  0.93827000000E+00 0.  1.
     999902    2    1    2    0    0 -0.18023835136E-02  0.13134664296E-01 -0.21245193564E-02  0.10305031026E+01  0.10304156262E+01 0.  0.
     999903    2    3    3    0    0  0.13168571153E+00  0.37326398149E-03 -0.17089739190E-01  0.14021894418E+00  0.45033622689E-01 0.  0.
         14    1    1    2    0    0  0.18023835136E-02 -0.13134664296E-01  0.21245193564E-02  0.13426897445E-01  0.00000000000E+00 0. -1.
     999901    1    3    3    0    0 -0.13348809505E+00  0.12761400314E-01  0.14965219834E-01  0.89028415838E+00  0.88000000000E+00 0. -1.
        -11    1    4    4    0    0  0.22703628326E-01 -0.15677533533E-01 -0.11567551772E-01  0.29921717395E-01  0.51100000000E-03 0. -1.
         11    1    4    4    0    0  0.10898208321E+00  0.16050797514E-01 -0.55221874180E-02  0.11029722678E+00  0.51100000000E-03 0.  1.
</event>
<event>
 8    1  0.2257781E+004  0.1043930E+01  0.7957747E-01            NaN
         13   -1    0    0    0    0  0.00000000000E+00  0.00000000000E+00  0.74505805969E-08  0.10566000000E+00  0.10566000000E+00 0. -1.
     999900   -1    0    0    0    0 -0.00000000000E+00 -0.00000000000E+00 -0.74505805969E-08  0.93827000000E+00  0.93827000000E+00 0.  1.
     999902    2    1    2    0    0 -0.69020112127E-02  0.55064833762E-02  0.88681696057E-02  0.10314158660E+01  0.10313399464E+01 0.  0.
     999903    2    3    3    0    0 -0.43450784090E-01  0.15481622419E-01 -0.12511443348E+00  0.14046881137E+00  0.44161229959E-01 0.  0.
         14    1    1    2    0    0  0.69020112127E-02 -0.55064833762E-02 -0.88681696057E-02  0.12514134013E-01  0.00000000000E+00 0.  1.
     999901    1    3    3    0    0  0.36548772878E-01 -0.99751390433E-02  0.13398260309E+00  0.89094705462E+00  0.88000000000E+00 0. -1.
        -11    1    4    4    0    0 -0.34270074226E-01  0.13222466916E-01 -0.38045631894E-01  0.52886698195E-01  0.51100000000E-03 0.  1.
         11    1    4    4    0    0 -0.91807098644E-02  0.22591555037E-02 -0.87068801589E-01  0.87582113176E-01  0.51100000000E-03 0. -1.
</event>
<event>
 8    1  0.2257781E+004  0.1043930E+01  0.7957747E-01            NaN
         13   -1    0    0    0    0  0.00000000000E+00  0.00000000000E+00  0.74505805969E-08  0.10566000000E+00  0.10566000000E+00 0. -1.
     999900   -1    0    0    0    0 -0.00000000000E+00 -0.00000000000E+00 -0.74505805969E-08  0.93827000000E+00  0.93827000000E+00 0.  1.
     999902    2    1    2    0    0  0.86718800807E-02  0.76791443595E-02 -0.72122796856E-02  0.10302849371E+01  0.10301945758E+01 0.  0.
     999903    2    3    3    0    0 -0.10441930309E+00  0.19166122253E-01  0.77511349321E-01  0.13893783321E+00  0.44999790257E-01 0.  0.
         14    1    1    2    0    0 -0.86718800807E-02 -0.76791443595E-02  0.72122796856E-02  0.13645062861E-01  0.00000000000E+00 0. -1.
     999901    1    3    3    0    0  0.11309118317E+00 -0.11486977894E-01 -0.84723629007E-01  0.89134710393E+00  0.88000000000E+00 0.  1.
        -11    1    4    4    0    0 -0.47973872935E-01 -0.58867916067E-02  0.13937149085E-01  0.50305586622E-01  0.51100000000E-03 0. -1.
         11    1    4    4    0    0 -0.56445430155E-01  0.25052913860E-01  0.63574200236E-01  0.88632246586E-01  0.51100000000E-03 0.  1.
</event>
<event>
 7    1  0.2257781E+004  0.1043930E+01  0.7957747E-01            NaN
         13   -1    0    0    0    0  0.00000000000E+00  0.00000000000E+00  0.74505805969E-08  0.10566000000E+00  0.10566000000E+00 0.  1.
     999900   -1    0    0    0    0 -0.00000000000E+00 -0.00000000000E+00 -0.74505805969E-08  0.93827000000E+00  0.93827000000E+00 0. -1.
     999903    2    1    2    0    0  0.48048473412E-01 -0.51118005284E-01  0.76332859632E-01  0.11319868940E+00  0.45448119441E-01 0.  0.
         14    1    1    2    0    0  0.63955536087E-02  0.42089744231E-01 -0.20459790494E-01  0.47234020604E-01  0.00000000000E+00 0. -1.
     999901    1    1    2    0    0 -0.54444027021E-01  0.90282610530E-02 -0.55873069138E-01  0.88349729000E+00  0.88000000000E+00 0. -1.
        -11    1    3    3    0    0  0.39176744477E-01 -0.50811990239E-01  0.39587940738E-01  0.75393247925E-01  0.51100000000E-03 0. -1.
         11    1    3    3    0    0  0.88717289355E-02 -0.30601504449E-03  0.36744918894E-01  0.37805441474E-01  0.51100000000E-03 0.  1.
</event>
<event>
 8    1  0.2257781E+004  0.1043930E+01  0.7957747E-01            NaN
         13   -1    0    0    0    0  0.00000000000E+00  0.00000000000E+00  0.74505805969E-08  0.10566000000E+00  0.10566000000E+00 0.  1.
     999900   -1    0    0    0    0 -0.00000000000E+00 -0.00000000000E+00 -0.74505805969E-08  0.93827000000E+00  0.93827000000E+00 0. -1.
     999902    2    1    2    0    0 -0.30517542788E-02 -0.14376969248E-01 -0.12420597262E-01  0.10246872953E+01  0.10245065990E+01 0.  0.
     999903    2    3    3    0    0  0.25524024122E-01 -0.42060218362E-01  0.11647167810E+00  0.13440859956E+00  0.45601338343E-01 0.  0.
         14    1    1    2    0    0  0.30517542788E-02  0.14376969248E-01  0.12420597262E-01  0.19242704729E-01  0.00000000000E+00 0.  1.
     999901    1    3    3    0    0 -0.28575778400E-01  0.27683249114E-01 -0.12889227537E+00  0.89027869571E+00  0.88000000000E+00 0. -1.
        -11    1    4    4    0    0  0.31283408171E-01 -0.79597864772E-02  0.50922287887E-01  0.60293866621E-01  0.51100000000E-03 0. -1.
         11    1    4    4    0    0 -0.57593840492E-02 -0.34100431884E-01  0.65549390217E-01  0.74114732936E-01  0.51100000000E-03 0.  1.
</event>
<event>
 8    1  0.2257781E+004  0.1043930E+01  0.7957747E-01            NaN
         13   -1    0    0    0    0  0.00000000000E+00  0.00000000000E+00  0.74505805969E-08  0.10566000000E+00  0.10566000000E+00 0.  1.
     999900   -1    0    0    0    0 -0.00000000000E+00 -0.00000000000E+00 -0.74505805969E-08  0.93827000000E+00  0.93827000000E+00 0. -1.
     999902    2    1    2    0    0 -0.40747351876E-02 -0.13460123946E-01 -0.92337529253E-03  0.10298363480E+01  0.10297399054E+01 0.  0.
     999903    2    3    3    0    0 -0.11688477521E+00  0.26137600626E-01  0.57248159039E-01  0.13984870076E+00  0.43989573160E-01 0.  0.
         14    1    1    2    0    0  0.40747351876E-02  0.13460123946E-01  0.92337529253E-03  0.14093651955E-01  0.00000000000E+00 0. -1.
     999901    1    3    3    0    0  0.11281004002E+00 -0.39597724572E-01 -0.58171534332E-01  0.88998764729E+00  0.88000000000E+00 0. -1.
        -11    1    4    4    0    0 -0.88463024080E-01  0.37911377760E-01  0.37528316023E-01  0.10330350825E+00  0.51100000000E-03 0. -1.
         11    1    4    4    0    0 -0.28421751132E-01 -0.11773777134E-01  0.19719843017E-01  0.36545192502E-01  0.51100000000E-03 0.  1.
</event>
<event>
 8    1  0.2257781E+004  0.1043930E+01  0.7957747E-01            NaN
         13   -1    0    0    0    0  0.00000000000E+00  0.00000000000E+00  0.74505805969E-08  0.10566000000E+00  0.10566000000E+00 0.  1.
     999900   -1    0    0    0    0 -0.00000000000E+00 -0.00000000000E+00 -0.74505805969E-08  0.93827000000E+00  0.93827000000E+00 0.  1.
     999902    2    1    2    0    0  0.31631158370E-02  0.12881953996E-01 -0.65289677201E-02  0.10291456346E+01  0.10290394355E+01 0.  0.
     999903    2    3    3    0    0 -0.18978047554E-01  0.28721963252E-01 -0.12832260828E+00  0.14034035341E+00  0.45206255497E-01 0.  0.
         14    1    1    2    0    0 -0.31631158370E-02 -0.12881953996E-01  0.65289677201E-02  0.14784365392E-01  0.00000000000E+00 0.  1.
     999901    1    3    3    0    0  0.22141163391E-01 -0.15840009256E-01  0.12179364056E+00  0.88880528120E+00  0.88000000000E+00 0. -1.
        -11    1    4    4    0    0  0.60080048698E-02  0.30646665043E-01 -0.80499773033E-01  0.86346909500E-01  0.51100000000E-03 0.  1.
         11    1    4    4    0    0 -0.24986052424E-01 -0.19247017908E-02 -0.47822835249E-01  0.53993443907E-01  0.51100000000E-03 0. -1.
</event>
<event>
 8    1  0.2257781E+004  0.1043930E+01  0.7957747E-01            NaN
         13   -1    0    0    0    0  0.00000000000E+00  0.00000000000E+00  0.74505805969E-08  0.10566000000E+00  0.10566000000E+00 0. -1.
     999900   -1    0    0    0    0 -0.00000000000E+00 -0.00000000000E+00 -0.74505805969E-08  0.93827000000E+00  0.93827000000E+00 0.  1.
     999902    2    1    2    0    0  0.66906645365E-02 -0.41031160789E-02  0.10911083257E-01  0.10304893047E+01  0.10304016473E+01 0.  0.
     999903    2    3    3    0    0  0.25386999256E-01 -0.12290431876E+00  0.47727627965E-01  0.14154682246E+00  0.44806307332E-01 0.  0.
         14    1    1    2    0    0 -0.66906645365E-02  0.41031160789E-02 -0.10911083257E-01  0.13440695345E-01  0.00000000000E+00 0.  1.
     999901    1    3    3    0    0 -0.18696334720E-01  0.11880120268E+00 -0.36816544707E-01  0.88894248220E+00  0.88000000000E+00 0.  1.
        -11    1    4    4    0    0  0.26568292094E-01 -0.10569974056E+00  0.22990056443E-01  0.11138722151E+00  0.51100000000E-03 0. -1.
         11    1    4    4    0    0 -0.11812928373E-02 -0.17204578198E-01  0.24737571522E-01  0.30159600951E-01  0.51100000000E-03 0.  1.
</event>
<event>
 8    1  0.2257781E+004  0.1043930E+01  0.7957747E-01            NaN
         13   -1    0    0    0    0  0.00000000000E+00  0.00000000000E+00  0.74505805969E-08  0.10566000000E+00  0.10566000000E+00 0.  1.
     999900   -1    0    0    0    0 -0.00000000000E+00 -0.00000000000E+00 -0.74505805969E-08  0.93827000000E+00  0.93827000000E+00 0.  1.
     999902    2    1    2    0    0 -0.69309316905E-02  0.11051611291E-01 -0.56738996822E-02  0.10297043519E+01  0.10296060816E+01 0.  0.
     999903    2    3    3    0    0 -0.10329784670E+00  0.42290566220E-01  0.72279921951E-01  0.14046914515E+00  0.45257667844E-01 0.  0.
         14    1    1    2    0    0  0.69309316905E-02 -0.11051611291E-01  0.56738996822E-02  0.14225648099E-01  0.00000000000E+00 0.  1.
     999901    1    3    3    0    0  0.96366915009E-01 -0.31238954929E-01 -0.77953821633E-01  0.88923520675E+00  0.88000000000E+00 0.  1.
        -11    1    4    4    0    0 -0.44319368901E-01  0.41755775234E-01  0.43529933700E-01  0.74852304401E-01  0.51100000000E-03 0.  1.
         11    1    4    4    0    0 -0.58978477798E-01  0.53479098585E-03  0.28749988251E-01  0.65616840751E-01  0.51100000000E-03 0. -1.
</event>
<event>
 8    1  0.2257781E+004  0.1043930E+01  0.7957747E-01            NaN
         13   -1    0    0    0    0  0.00000000000E+00  0.00000000000E+00  0.74505805969E-08  0.10566000000E+00  0.10566000000E+00 0. -1.
     999900   -1    0    0    0    0 -0.00000000000E+00 -0.00000000000E+00 -0.74505805969E-08  0.93827000000E+00  0.93827000000E+00 0. -1.
     999902    2    1    2    0    0 -0.34769823082E-02  0.40214020781E-02 -0.12166587113E-01  0.10306526914E+01  0.10305671659E+01 0.  0.
     999903    2    3    3    0    0  0.10910188383E+00  0.46356871334E-01 -0.61663046102E-01  0.14109314171E+00  0.45307425537E-01 0.  0.
         14    1    1    2    0    0  0.34769823082E-02 -0.40214020781E-02  0.12166587113E-01  0.13277308561E-01  0.00000000000E+00 0. -1.
     999901    1    3    3    0    0 -0.11257886614E+00 -0.42335469256E-01  0.49496458989E-01  0.88955954973E+00  0.88000000000E+00 0.  1.
        -11    1    4    4    0    0  0.69507248085E-01  0.25561666800E-01 -0.13346904639E-01  0.75253287838E-01  0.51100000000E-03 0. -1.
         11    1    4    4    0    0  0.39594635744E-01  0.20795204534E-01 -0.48316141464E-01  0.65839853875E-01  0.51100000000E-03 0.  1.
</event>
<event>
 8    1  0.2257781E+004  0.1043930E+01  0.7957747E-01            NaN
         13   -1    0    0    0    0  0.00000000000E+00  0.00000000000E+00  0.74505805969E-08  0.10566000000E+00  0.10566000000E+00 0.  1.
     999900   -1    0    0    0    0 -0.00000000000E+00 -0.00000000000E+00 -0.74505805969E-08  0.93827000000E+00  0.93827000000E+00 0.  1.
     999902    2    1    2    0    0 -0.32594800065E-02 -0.13316284778E-01 -0.76004618616E-02  0.10282547115E+01  0.10281352231E+01 0.  0.
     999903    2    3    3    0    0  0.59152576811E-01  0.11276010908E+00  0.18797073916E-01  0.13669015866E+00  0.46010867671E-01 0.  0.
         14    1    1    2    0    0  0.32594800065E-02  0.13316284778E-01  0.76004618616E-02  0.15675288537E-01  0.00000000000E+00 0. -1.
     999901    1    3    3    0    0 -0.62412056818E-01 -0.12607639385E+00 -0.26397535778E-01  0.89156455281E+00  0.88000000000E+00 0. -1.
        -11    1    4    4    0    0  0.40772964588E-01  0.62575684878E-01  0.32594636946E-01  0.81491241602E-01  0.51100000000E-03 0.  1.
         11    1    4    4    0    0  0.18379612224E-01  0.50184424198E-01 -0.13797563030E-01  0.55198917056E-01  0.51100000000E-03 0. -1.
</event>
<event>
 8    1  0.2257781E+004  0.1043930E+01  0.7957747E-01            NaN
         13   -1    0    0    0    0  0.00000000000E+00  0.00000000000E+00  0.74505805969E-08  0.10566000000E+00  0.10566000000E+00 0. -1.
     999900   -1    0    0    0    0 -0.00000000000E+00 -0.00000000000E+00 -0.74505805969E-08  0.93827000000E+00  0.93827000000E+00 0. -1.
     999902    2    1    2    0    0 -0.81825178744E-02 -0.16059718947E-02  0.11399974133E-01  0.10298058308E+01  0.10297089672E+01 0.  0.
     999903    2    3    3    0    0 -0.12427802100E+00  0.14876698284E-01  0.47317416372E-01  0.14130152194E+00  0.45396470738E-01 0.  0.
         14    1    1    2    0    0  0.81825178744E-02  0.16059718947E-02 -0.11399974133E-01  0.14124169170E-01  0.00000000000E+00 0.  1.
     999901    1    3    3    0    0  0.11609550312E+00 -0.16482670179E-01 -0.35917442238E-01  0.88850430889E+00  0.88000000000E+00 0. -1.
        -11    1    4    4    0    0 -0.37309162166E-01  0.78259202296E-02  0.37531918809E-01  0.53498828580E-01  0.51100000000E-03 0. -1.
         11    1    4    4    0    0 -0.86968858831E-01  0.70507780544E-02  0.97854975625E-02  0.87802693359E-01  0.51100000000E-03 0.  1.
</event>
<event>
 8    1  0.2257781E+004  0.1043930E+01  0.7957747E-01            NaN
         13   -1    0    0    0    0  0.00000000000E+00  0.00000000000E+00  0.74505805969E-08  0.10566000000E+00  0.10566000000E+00 0. -1.
     999900   -1    0    0    0    0 -0.00000000000E+00 -0.00000000000E+00 -0.74505805969E-08  0.93827000000E+00  0.93827000000E+00 0. -1.
     999902    2    1    2    0    0  0.44961631917E-02 -0.71580658101E-02  0.10864694504E-01  0.10301642826E+01  0.10300723053E+01 0.  0.
     999903    2    3    3    0    0  0.69808937124E-01 -0.59762566670E-01  0.98326596571E-01  0.14186108194E+00  0.44850807101E-01 0.  0.
         14    1    1    2    0    0 -0.44961631917E-02  0.71580658101E-02 -0.10864694504E-01  0.13765717426E-01  0.00000000000E+00 0.  1.
     999901    1    3    3    0    0 -0.65312773933E-01  0.52604500860E-01 -0.87461902067E-01  0.88830320064E+00  0.88000000000E+00 0. -1.
        -11    1    4    4    0    0  0.61618139496E-01 -0.34442919741E-01  0.89132891995E-01  0.11370155404E+00  0.51100000000E-03 0. -1.
         11    1    4    4    0    0  0.81907976288E-02 -0.25319646929E-01  0.91937045757E-02  0.28159527895E-01  0.51100000000E-03 0.  1.
</event>
<event>
 8    1  0.2257781E+004  0.1043930E+01  0.7957747E-01            NaN
         13   -1    0    0    0    0  0.00000000000E+00  0.00000000000E+00  0.74505805969E-08  0.10566000000E+00  0.10566000000E+00 0. -1.
     999900   -1    0    0    0    0 -0.00000000000E+00 -0.00000000000E+00 -0.74505805969E-08  0.93827000000E+00  0.93827000000E+00 0. -1.
     999902    2    1    2    0    0 -0.67523714178E-02 -0.60872394354E-02  0.25584259152E-01  0.10167785116E+01  0.10164159279E+01 0.  0.
     999903    2    3    3    0    0 -0.11288789536E+00  0.40269106770E-01 -0.97927513680E-02  0.12848509551E+00  0.45246479513E-01 0.  0.
         14    1    1    2    0    0  0.67523714178E-02  0.60872394354E-02 -0.25584259152E-01  0.27151488359E-01  0.00000000000E+00 0.  1.
     999901    1    3    3    0    0  0.10613552394E+00 -0.46356346205E-01  0.35377010520E-01  0.88829341614E+00  0.88000000000E+00 0.  1.
        -11    1    4    4    0    0 -0.33793804055E-01  0.15444576766E-01 -0.24196970035E-01  0.44343101198E-01  0.51100000000E-03 0.  1.
         11    1    4    4    0    0 -0.79094091307E-01  0.24824530004E-01  0.14404218667E-01  0.84141994307E-01  0.51100000000E-03 0. -1.
</event>
<event>
 8    1  0.2257781E+004  0.1043930E+01  0.7957747E-01            NaN
         13   -1    0    0    0    0  0.00000000000E+00  0.00000000000E+00  0.74505805969E-08  0.10566000000E+00  0.10566000000E+00 0. -1.
     999900   -1    0    0    0    0 -0.00000000000E+00 -0.00000000000E+00 -0.74505805969E-08  0.93827000000E+00  0.93827000000E+00 0. -1.
     999902    2    1    2    0    0  0.82233847416E-02 -0.66679497703E-02  0.16358304069E-01  0.10244446280E+01  0.10242593012E+01 0.  0.
     999903    2    3    3    0    0  0.21154741188E-01  0.96343698065E-01 -0.79000760753E-01  0.13322525498E+00  0.42168911927E-01 0.  0.
         14    1    1    2    0    0 -0.82233847416E-02  0.66679497703E-02 -0.16358304069E-01  0.19485372020E-01  0.00000000000E+00 0.  1.
     999901    1    3    3    0    0 -0.12931356446E-01 -0.10301164783E+00  0.95359064822E-01  0.89121937300E+00  0.88000000000E+00 0.  1.
        -11    1    4    4    0    0  0.31763931360E-01  0.88589601307E-01 -0.69921560723E-01  0.11724483174E+00  0.51100000000E-03 0.  1.
         11    1    4    4    0    0 -0.10609190173E-01  0.77540967578E-02 -0.90792000303E-02  0.15980423237E-01  0.51100000000E-03 0. -1.
</event>
<event>
 8    1  0.2257781E+004  0.1043930E+01  0.7957747E-01            NaN
         13   -1    0    0    0    0  0.00000000000E+00  0.00000000000E+00  0.74505805969E-08  0.10566000000E+00  0.10566000000E+00 0.  1.
     999900   -1    0    0    0    0 -0.00000000000E+00 -0.00000000000E+00 -0.74505805969E-08  0.93827000000E+00  0.93827000000E+00 0.  1.
     999902    2    1    2    0    0  0.11807985433E-01 -0.45369681000E-02  0.11596357499E-01  0.10267693442E+01  0.10266259290E+01 0.  0.
     999903    2    3    3    0    0  0.12716186358E+00  0.27954123620E-01  0.15290314644E-01  0.13863881690E+00  0.45114911629E-01 0.  0.
         14    1    1    2    0    0 -0.11807985433E-01  0.45369681000E-02 -0.11596357499E-01  0.17160655780E-01  0.00000000000E+00 0. -1.
     999901    1    3    3    0    0 -0.11535387815E+00 -0.32491091720E-01 -0.36939571442E-02  0.88813052732E+00  0.88000000000E+00 0. -1.
        -11    1    4    4    0    0  0.57571194023E-01 -0.37161542112E-02 -0.90484504063E-02  0.58398525316E-01  0.51100000000E-03 0. -1.
         11    1    4    4    0    0  0.69590669560E-01  0.31670277831E-01  0.24338765050E-01  0.80240291580E-01  0.51100000000E-03 0.  1.
</event>
<event>
 8    1  0.2257781E+004  0.1043930E+01  0.7957747E-01            NaN
         13   -1    0    0    0    0  0.00000000000E+00  0.00000000000E+00  0.74505805969E-08  0.10566000000E+00  0.10566000000E+00 0. -1.
     999900   -1    0    0    0    0 -0.00000000000E+00 -0.00000000000E+00 -0.74505805969E-08  0.93827000000E+00  0.93827000000E+00 0. -1.
     999902    2    1    2    0    0  0.60117464307E-02  0.12473547930E-01 -0.12919341542E-01  0.10249922103E+01  0.10248172477E+01 0.  0.
     999903    2    3    3    0    0  0.18315120207E-01  0.12574563265E+00  0.23406286184E-01  0.13690353825E+00  0.45247284930E-01 0.  0.
         14    1    1    2    0    0 -0.60117464307E-02 -0.12473547930E-01  0.12919341542E-01  0.18937789707E-01  0.00000000000E+00 0. -1.
     999901    1    3    3    0    0 -0.12303373777E-01 -0.11327208472E+00 -0.36325627726E-01  0.88808867204E+00  0.88000000000E+00 0. -1.
        -11    1    4    4    0    0  0.13204420733E-01  0.46675789149E-01  0.30577672985E-01  0.57343188137E-01  0.51100000000E-03 0. -1.
         11    1    4    4    0    0  0.51106994749E-02  0.79069843501E-01 -0.71713868003E-02  0.79560350113E-01  0.51100000000E-03 0.  1.
</event>
<event>
 8    1  0.2257781E+004  0.1043930E+01  0.7957747E-01            NaN
         13   -1    0    0    0    0  0.00000000000E+00  0.00000000000E+00  0.74505805969E-08  0.10566000000E+00  0.10566000000E+00 0.  1.
     999900   -1    0    0    0    0 -0.00000000000E+00 -0.00000000000E+00 -0.74505805969E-08  0.93827000000E+00  0.93827000000E+00 0.  1.
     999902    2    1    2    0    0 -0.11082192696E-01 -0.23220050218E-02 -0.79624596473E-02  0.10300877651E+01  0.10299947555E+01 0.  0.
     999903    2    3    3    0    0  0.55676226940E-01  0.42243295483E-01  0.11079666781E+00  0.13849005151E+00  0.44936115864E-01 0.  0.
         14    1    1    2    0    0  0.11082192696E-01  0.23220050218E-02  0.79624596473E-02  0.13842234860E-01  0.00000000000E+00 0.  1.
     999901    1    3    3    0    0 -0.66758419636E-01 -0.44565300505E-01 -0.11875912746E+00  0.89159771363E+00  0.88000000000E+00 0.  1.
        -11    1    4    4    0    0  0.50460035114E-01  0.39293768476E-01  0.61168932011E-01  0.88499235867E-01  0.51100000000E-03 0. -1.
         11    1    4    4    0    0  0.52161918258E-02  0.29495270074E-02  0.49627735800E-01  0.49990815640E-01  0.51100000000E-03 0.  1.
</event>
<event>
 8    1  0.2257781E+004  0.1043930E+01  0.7957747E-01            NaN
         13   -1    0    0    0    0  0.00000000000E+00  0.00000000000E+00  0.74505805969E-08  0.10566000000E+00  0.10566000000E+00 0. -1.
     999900   -1    0    0    0    0 -0.00000000000E+00 -0.00000000000E+00 -0.74505805969E-08  0.93827000000E+00  0.93827000000E+00 0. -1.
     999902    2    1    2    0    0  0.95616418847E-03  0.11239625925E-01  0.82959752473E-02  0.10299276200E+01  0.10298324309E+01 0.  0.
     999903    2    3    3    0    0 -0.10648794324E+00  0.78808048135E-01 -0.15247193067E-01  0.14050982801E+00  0.44273517652E-01 0.  0.
         14    1    1    2    0    0 -0.95616418847E-03 -0.11239625925E-01 -0.82959752473E-02  0.14002380019E-01  0.00000000000E+00 0.  1.
     999901    1    3    3    0    0  0.10744410743E+00 -0.67568422210E-01  0.23543168315E-01  0.88941779197E+00  0.88000000000E+00 0.  1.
        -11    1    4    4    0    0 -0.53358532289E-01  0.15011013884E-01 -0.15226468607E-01  0.57485389215E-01  0.51100000000E-03 0. -1.
         11    1    4    4    0    0 -0.53129410948E-01  0.63797034250E-01 -0.20724460166E-04  0.83024438795E-01  0.51100000000E-03 0.  1.
</event>
<event>
 8    1  0.2257781E+004  0.1043930E+01  0.7957747E-01            NaN
         13   -1    0    0    0    0  0.00000000000E+00  0.00000000000E+00  0.74505805969E-08  0.10566000000E+00  0.10566000000E+00 0. -1.
     999900   -1    0    0    0    0 -0.00000000000E+00 -0.00000000000E+00 -0.74505805969E-08  0.93827000000E+00  0.93827000000E+00 0. -1.
     999902    2    1    2    0    0 -0.74535235945E-02  0.66974248730E-02 -0.94489652768E-02  0.10301570752E+01  0.10300650009E+01 0.  0.
     999903    2    3    3    0    0 -0.26971990022E-01  0.12201705845E+00  0.47197145719E-01  0.14061316376E+00  0.43918566218E-01 0.  0.
         14    1    1    2    0    0  0.74535235945E-02 -0.66974248730E-02  0.94489652768E-02  0.13772924842E-01  0.00000000000E+00 0. -1.
     999901    1    3    3    0    0  0.19518466428E-01 -0.11531963358E+00 -0.56646110996E-01  0.88954391140E+00  0.88000000000E+00 0. -1.
        -11    1    4    4    0    0  0.30386266786E-02  0.53305305428E-01  0.27870743196E-02  0.53466978063E-01  0.51100000000E-03 0. -1.
         11    1    4    4    0    0 -0.30010616701E-01  0.68711753023E-01  0.44410071399E-01  0.87146185694E-01  0.51100000000E-03 0.  1.
</event>
<event>
 8    1  0.2257781E+004  0.1043930E+01  0.7957747E-01            NaN
         13   -1    0    0    0    0  0.00000000000E+00  0.00000000000E+00  0.74505805969E-08  0.10566000000E+00  0.10566000000E+00 0.  1.
     999900   -1    0    0    0    0 -0.00000000000E+00 -0.00000000000E+00 -0.74505805969E-08  0.93827000000E+00  0.93827000000E+00 0. -1.
     999902    2    1    2    0    0 -0.91955027938E-02 -0.10871109881E-01  0.13039458094E-01  0.10246228570E+01  0.10244409370E+01 0.  0.
     999903    2    3    3    0    0 -0.10138318204E+00  0.66924407055E-01  0.38682959872E-01  0.13602379119E+00  0.47420191112E-01 0.  0.
         14    1    1    2    0    0  0.91955027938E-02  0.10871109881E-01 -0.13039458094E-01  0.19307142955E-01  0.00000000000E+00 0. -1.
     999901    1    3    3    0    0  0.92187679243E-01 -0.77795516936E-01 -0.25643501778E-01  0.88859906586E+00  0.88000000000E+00 0. -1.
        -11    1    4    4    0    0 -0.47799712784E-01  0.57810231976E-01  0.13925159660E-01  0.76295521860E-01  0.51100000000E-03 0. -1.
         11    1    4    4    0    0 -0.53583469253E-01  0.91141750791E-02  0.24757800212E-01  0.59728269328E-01  0.51100000000E-03 0.  1.
</event>
<event>
 8    1  0.2257781E+004  0.1043930E+01  0.7957747E-01            NaN
         13   -1    0    0    0    0  0.00000000000E+00  0.00000000000E+00  0.74505805969E-08  0.10566000000E+00  0.10566000000E+00 0. -1.
     999900   -1    0    0    0    0 -0.00000000000E+00 -0.00000000000E+00 -0.74505805969E-08  0.93827000000E+00  0.93827000000E+00 0. -1.
     999902    2    1    2    0    0 -0.63625956808E-02  0.11824886048E-01  0.44942138540E-02  0.10297698972E+01  0.10296725366E+01 0.  0.
     999903    2    3    3    0    0 -0.67503793921E-01 -0.92672217944E-01  0.65046157110E-01  0.13941916365E+00  0.45407031003E-01 0.  0.
         14    1    1    2    0    0  0.63625956808E-02 -0.11824886048E-01 -0.44942138540E-02  0.14160102825E-01  0.00000000000E+00 0.  1.
     999901    1    3    3    0    0  0.61141198241E-01  0.10449710399E+00 -0.60551943256E-01  0.89035073353E+00  0.88000000000E+00 0. -1.
        -11    1    4    4    0    0 -0.46493347324E-01 -0.26523752244E-01  0.22932105418E-01  0.58234726396E-01  0.51100000000E-03 0.  1.
         11    1    4    4    0    0 -0.21010446597E-01 -0.66148465700E-01  0.42114051692E-01  0.81184437250E-01  0.51100000000E-03 0. -1.
</event>
<event>
 8    1  0.2257781E+004  0.1043930E+01  0.7957747E-01            NaN
         13   -1    0    0    0    0  0.00000000000E+00  0.00000000000E+00  0.74505805969E-08  0.10566000000E+00  0.10566000000E+00 0.  1.
     999900   -1    0    0    0    0 -0.00000000000E+00 -0.00000000000E+00 -0.74505805969E-08  0.93827000000E+00  0.93827000000E+00 0. -1.
     999902    2    1    2    0    0  0.90851661237E-02 -0.79106562529E-02 -0.65729836761E-02  0.10302069231E+01  0.10301155185E+01 0.  0.
     999903    2    3    3    0    0  0.17029697195E-01 -0.65217496718E-01 -0.11612131635E+00  0.14152923869E+00  0.44755254751E-01 0.  0.
         14    1    1    2    0    0 -0.90851661237E-02  0.79106562529E-02  0.65729836761E-02  0.13723076924E-01  0.00000000000E+00 0.  1.
     999901    1    3    3    0    0 -0.79445310710E-02  0.57306840465E-01  0.10954833267E+00  0.88867768439E+00  0.88000000000E+00 0.  1.
        -11    1    4    4    0    0  0.21068845998E-01 -0.21111152136E-01 -0.76462680627E-01  0.82075451055E-01  0.51100000000E-03 0. -1.
         11    1    4    4    0    0 -0.40391488036E-02 -0.44106344582E-01 -0.39658635724E-01  0.59453787633E-01  0.51100000000E-03 0.  1.
</event>
<event>
 8    1  0.2257781E+004  0.1043930E+01  0.7957747E-01            NaN
         13   -1    0    0    0    0  0.00000000000E+00  0.00000000000E+00  0.74505805969E-08  0.10566000000E+00  0.10566000000E+00 0.  1.
     999900   -1    0    0    0    0 -0.00000000000E+00 -0.00000000000E+00 -0.74505805969E-08  0.93827000000E+00  0.93827000000E+00 0.  1.
     999902    2    1    2    0    0  0.71041668213E-02 -0.11740464427E-01 -0.33608812385E-02  0.10298018998E+01  0.10297049819E+01 0.  0.
     999903    2    3    3    0    0  0.45794363522E-01 -0.65021718768E-01  0.10902945588E+00  0.14021356176E+00  0.38045670047E-01 0.  0.
         14    1    1    2    0    0 -0.71041668213E-02  0.11740464427E-01  0.33608812385E-02  0.14128100152E-01  0.00000000000E+00 0. -1.
     999901    1    3    3    0    0 -0.38690196701E-01  0.53281254341E-01 -0.11239033712E+00  0.88958833809E+00  0.88000000000E+00 0.  1.
        -11    1    4    4    0    0  0.26018406900E-01 -0.12552549848E-01  0.20526819523E-01  0.35442001157E-01  0.51100000000E-03 0.  1.
         11    1    4    4    0    0  0.19775956622E-01 -0.52469168920E-01  0.88502636360E-01  0.10477156060E+00  0.51100000000E-03 0. -1.
</event>
<event>
 8    1  0.2257781E+004  0.1043930E+01  0.7957747E-01            NaN
         13   -1    0    0    0    0  0.00000000000E+00  0.00000000000E+00  0.74505805969E-08  0.10566000000E+00  0.10566000000E+00 0.  1.
     999900   -1    0    0    0    0 -0.00000000000E+00 -0.00000000000E+00 -0.74505805969E-08  0.93827000000E+00  0.93827000000E+00 0. -1.
     999902    2    1    2    0    0  0.81456426121E-02 -0.76330653692E-02  0.89767483941E-02  0.10296052943E+01  0.10295056410E+01 0.  0.
     999903    2    3    3    0    0  0.63963570890E-01  0.21045370962E-01  0.11547146166E+00  0.14096632503E+00  0.44761593972E-01 0.  0.
         14    1    1    2    0    0 -0.81456426121E-02  0.76330653692E-02 -0.89767483941E-02  0.14324705659E-01  0.00000000000E+00 0. -1.
     999901    1    3    3    0    0 -0.55817928278E-01 -0.28678436332E-01 -0.10649471326E+00  0.88863896931E+00  0.88000000000E+00 0. -1.
        -11    1    4    4    0    0  0.21389986798E-01  0.21443084491E-02  0.65137282700E-02  0.22468185751E-01  0.51100000000E-03 0.  1.
         11    1    4    4    0    0  0.42573584092E-01  0.18901062513E-01  0.10895773339E+00  0.11849813928E+00  0.51100000000E-03 0. -1.
</event>
<event>
 8    1  0.2257781E+004  0.1043930E+01  0.7957747E-01            NaN
         13   -1    0    0    0    0  0.00000000000E+00  0.00000000000E+00  0.74505805969E-08  0.10566000000E+00  0.10566000000E+00 0.  1.
     999900   -1    0    0    0    0 -0.00000000000E+00 -0.00000000000E+00 -0.74505805969E-08  0.93827000000E+00  0.93827000000E+00 0.  1.
     999902    2    1    2    0    0  0.11414609287E-01  0.15433443404E-03 -0.66992730698E-02  0.10306937851E+01  0.10306087916E+01 0.  0.
     999903    2    3    3    0    0  0.10217229186E+00  0.24874901592E-02 -0.88196386895E-01  0.14227711480E+00  0.44931168509E-01 0.  0.
         14    1    1    2    0    0 -0.11414609287E-01 -0.15433443404E-03  0.66992730698E-02  0.13236214865E-01  0.00000000000E+00 0.  1.
     999901    1    3    3    0    0 -0.90757682576E-01 -0.23331557251E-02  0.81497113825E-01  0.88841667033E+00  0.88000000000E+00 0. -1.
        -11    1    4    4    0    0  0.26057983675E-01  0.18956340335E-01 -0.15576185541E-01  0.35794413378E-01  0.51100000000E-03 0.  1.
         11    1    4    4    0    0  0.76114308188E-01 -0.16468850176E-01 -0.72620201354E-01  0.10648270142E+00  0.51100000000E-03 0. -1.
</event>
<event>
 8    1  0.2257781E+004  0.1043930E+01  0.7957747E-01            NaN
         13   -1    0    0    0    0  0.00000000000E+00  0.00000000000E+00  0.74505805969E-08  0.10566000000E+00  0.10566000000E+00 0.  1.
     999900   -1    0    0    0    0 -0.00000000000E+00 -0.00000000000E+00 -0.74505805969E-08  0.93827000000E+00  0.93827000000E+00 0. -1.
     999902    2    1    2    0    0 -0.72637394832E-02 -0.55469850184E-02 -0.10062549875E-01  0.10303364036E+01  0.10302467271E+01 0.  0.
     999903    2    3    3    0    0 -0.11623268654E+00 -0.17995465473E-01 -0.65408604916E-01  0.14180256521E+00  0.44674463677E-01 0.  0.
         14    1    1    2    0    0  0.72637394832E-02  0.55469850184E-02  0.10062549875E-01  0.13593596436E-01  0.00000000000E+00 0.  1.
     999901    1    3    3    0    0  0.10896894706E+00  0.12448480455E-01  0.55346055041E-01  0.88853383835E+00  0.88000000000E+00 0. -1.
        -11    1    4    4    0    0 -0.62148520381E-01 -0.32029757378E-01 -0.37602932565E-01  0.79388825421E-01  0.51100000000E-03 0. -1.
         11    1    4    4    0    0 -0.54084166162E-01  0.14034291905E-01 -0.27805672352E-01  0.62413739791E-01  0.51100000000E-03 0.  1.
</event>
<event>
 8    1  0.2257781E+004  0.1043930E+01  0.7957747E-01            NaN
         13   -1    0    0    0    0  0.00000000000E+00  0.00000000000E+00  0.74505805969E-08  0.10566000000E+00  0.10566000000E+00 0.  1.
     999900   -1    0    0    0    0 -0.00000000000E+00 -0.00000000000E+00 -0.74505805969E-08  0.93827000000E+00  0.93827000000E+00 0.  1.
     999902    2    1    2    0    0  0.13844887512E-02 -0.11438141730E-01 -0.85694275294E-02  0.10295709268E+01  0.10294707914E+01 0.  0.
     999903    2    3    3    0    0 -0.12704839945E+00  0.13601420095E-01  0.30903695210E-01  0.13902047126E+00  0.45225641155E-01 0.  0.
         14    1    1    2    0    0 -0.13844887512E-02  0.11438141730E-01  0.85694275294E-02  0.14359073213E-01  0.00000000000E+00 0.  1.
     999901    1    3    3    0    0  0.12843288821E+00 -0.25039561825E-01 -0.39473122740E-01  0.89055045553E+00  0.88000000000E+00 0.  1.
        -11    1    4    4    0    0 -0.58549614257E-01  0.28477836572E-01  0.10006320287E-01  0.65874365820E-01  0.51100000000E-03 0. -1.
         11    1    4    4    0    0 -0.68498785198E-01 -0.14876416477E-01  0.20897374923E-01  0.73146105436E-01  0.51100000000E-03 0.  1.
</event>
<event>
 8    1  0.2257781E+004  0.1043930E+01  0.7957747E-01            NaN
         13   -1    0    0    0    0  0.00000000000E+00  0.00000000000E+00  0.74505805969E-08  0.10566000000E+00  0.10566000000E+00 0. -1.
     999900   -1    0    0    0    0 -0.00000000000E+00 -0.00000000000E+00 -0.74505805969E-08  0.93827000000E+00  0.93827000000E+00 0.  1.
     999902    2    1    2    0    0 -0.38504342092E-02 -0.14348089113E-01  0.78907881695E-05  0.10290742413E+01  0.10289670065E+01 0.  0.
     999903    2    3    3    0    0 -0.17703514870E-01 -0.99758108820E-01  0.83698303977E-01  0.14087895613E+00  0.50758048400E-01 0.  0.
         14    1    1    2    0    0  0.38504342092E-02  0.14348089113E-01 -0.78907881695E-05  0.14855758717E-01  0.00000000000E+00 0.  1.
     999901    1    3    3    0    0  0.13853080661E-01  0.85410019707E-01 -0.83690413189E-01  0.88819528515E+00  0.88000000000E+00 0.  1.
        -11    1    4    4    0    0  0.91547208361E-02 -0.73136525118E-01  0.43060324714E-01  0.85365173843E-01  0.51100000000E-03 0.  1.
         11    1    4    4    0    0 -0.26858235706E-01 -0.26621583702E-01  0.40637979264E-01  0.55513782286E-01  0.51100000000E-03 0. -1.
</event>
<event>
 8    1  0.2257781E+004  0.1043930E+01  0.7957747E-01            NaN
         13   -1    0    0    0    0  0.00000000000E+00  0.00000000000E+00  0.74505805969E-08  0.10566000000E+00  0.10566000000E+00 0.  1.
     999900   -1    0    0    0    0 -0.00000000000E+00 -0.00000000000E+00 -0.74505805969E-08  0.93827000000E+00  0.93827000000E+00 0.  1.
     999902    2    1    2    0    0 -0.30383527831E-03  0.11805354451E-01 -0.73586283701E-02  0.10300156865E+01  0.10299216991E+01 0.  0.
     999903    2    3    3    0    0 -0.14254048876E-01  0.13354428550E+00 -0.35839814204E-02  0.14151738948E+00  0.44464283453E-01 0.  0.
         14    1    1    2    0    0  0.30383527831E-03 -0.11805354451E-01  0.73586283701E-02  0.13914313532E-01  0.00000000000E+00 0. -1.
     999901    1    3    3    0    0  0.13950213598E-01 -0.12173893105E+00 -0.37746469497E-02  0.88849829699E+00  0.88000000000E+00 0. -1.
        -11    1    4    4    0    0 -0.40639718777E-02  0.83473454493E-01  0.18908821382E-01  0.85686277311E-01  0.51100000000E-03 0. -1.
         11    1    4    4    0    0 -0.10190076999E-01  0.50070831007E-01 -0.22492802802E-01  0.55831112167E-01  0.51100000000E-03 0.  1.
</event>
<event>
 8    1  0.2257781E+004  0.1043930E+01  0.7957747E-01            NaN
         13   -1    0    0    0    0  0.00000000000E+00  0.00000000000E+00  0.74505805969E-08  0.10566000000E+00  0.10566000000E+00 0. -1.
     999900   -1    0    0    0    0 -0.00000000000E+00 -0.00000000000E+00 -0.74505805969E-08  0.93827000000E+00  0.93827000000E+00 0.  1.
     999902    2    1    2    0    0  0.44350222698E-02  0.69896580617E-02  0.97937441771E-02  0.10311064994E+01  0.10310267557E+01 0.  0.
     999903    2    3    3    0    0 -0.51801899749E-01 -0.85011658042E-01  0.89114700154E-01  0.14098367214E+00  0.44994968687E-01 0.  0.
         14    1    1    2    0    0 -0.44350222698E-02 -0.69896580617E-02 -0.97937441771E-02  0.12823500589E-01  0.00000000000E+00 0.  1.
     999901    1    3    3    0    0  0.56236922019E-01  0.92001316104E-01 -0.79320955977E-01  0.89012282727E+00  0.88000000000E+00 0. -1.
        -11    1    4    4    0    0 -0.33532451634E-01 -0.61199071259E-01  0.32671588491E-01  0.77054821076E-01  0.51100000000E-03 0.  1.
         11    1    4    4    0    0 -0.18269448116E-01 -0.23812586783E-01  0.56443111663E-01  0.63928851068E-01  0.51100000000E-03 0. -1.
</event>
<event>
 8    1  0.2257781E+004  0.1043930E+01  0.7957747E-01            NaN
         13   -1    0    0    0    0  0.00000000000E+00  0.00000000000E+00  0.74505805969E-08  0.10566000000E+00  0.10566000000E+00 0. -1.
     999900   -1    0    0    0    0 -0.00000000000E+00 -0.00000000000E+00 -0.74505805969E-08  0.93827000000E+00  0.93827000000E+00 0.  1.
     999902    2    1    2    0    0  0.12534195880E-01 -0.51970918148E-03 -0.50972749280E-02  0.10303890113E+01  0.10303000321E+01 0.  0.
     999903    2    3    3    0    0  0.83183942893E-01 -0.89281191015E-01 -0.55857168132E-01  0.14165589376E+00  0.45339492504E-01 0.  0.
         14    1    1    2    0    0 -0.12534195880E-01  0.51970918148E-03  0.50972749280E-02  0.13540988726E-01  0.00000000000E+00 0. -1.
     999901    1    3    3    0    0 -0.70649747013E-01  0.88761481833E-01  0.50759893204E-01  0.88873311752E+00  0.88000000000E+00 0. -1.
        -11    1    4    4    0    0  0.71635779241E-01 -0.58961656822E-01 -0.57520130730E-01  0.10916495959E+00  0.51100000000E-03 0.  1.
         11    1    4    4    0    0  0.11548163652E-01 -0.30319534193E-01  0.16629625971E-02  0.32490934166E-01  0.51100000000E-03 0. -1.
</event>
<event>
 8    1  0.2257781E+004  0.1043930E+01  0.7957747E-01            NaN
         13   -1    0    0    0    0  0.00000000000E+00  0.00000000000E+00  0.74505805969E-08  0.10566000000E+00  0.10566000000E+00 0.  1.
     999900   -1    0    0    0    0 -0.00000000000E+00 -0.00000000000E+00 -0.74505805969E-08  0.93827000000E+00  0.93827000000E+00 0. -1.
     999902    2    1    2    0    0 -0.44008223885E-02  0.11283270646E-01  0.80871092411E-02  0.10293670068E+01  0.10292639865E+01 0.  0.
     999903    2    3    3    0    0  0.12110943302E+00 -0.50048082148E-01  0.17815199491E-01  0.13829518325E+00  0.40445903177E-01 0.  0.
         14    1    1    2    0    0  0.44008223885E-02 -0.11283270646E-01 -0.80871092411E-02  0.14562993169E-01  0.00000000000E+00 0. -1.
     999901    1    3    3    0    0 -0.12551025540E+00  0.61331352795E-01 -0.97280902504E-02  0.89107182359E+00  0.88000000000E+00 0.  1.
        -11    1    4    4    0    0  0.10542063233E+00 -0.48274990977E-01  0.20355980033E-02  0.11596719043E+00  0.51100000000E-03 0.  1.
         11    1    4    4    0    0  0.15688800683E-01 -0.17730911710E-02  0.15779601488E-01  0.22327992818E-01  0.51100000000E-03 0. -1.
</event>
<event>
 8    1  0.2257781E+004  0.1043930E+01  0.7957747E-01            NaN
         13   -1    0    0    0    0  0.00000000000E+00  0.00000000000E+00  0.74505805969E-08  0.10566000000E+00  0.10566000000E+00 0. -1.
     999900   -1    0    0    0    0 -0.00000000000E+00 -0.00000000000E+00 -0.74505805969E-08  0.93827000000E+00  0.93827000000E+00 0. -1.
     999902    2    1    2    0    0  0.60915443131E-03  0.91483433522E-03  0.13446683845E-01  0.10304384731E+01  0.10303501471E+01 0.  0.
     999903    2    3    3    0    0  0.20848930574E-02  0.11424137103E-01  0.13623483147E+00  0.14184995618E+00  0.37770664218E-01 0.  0.
         14    1    1    2    0    0 -0.60915443131E-03 -0.91483433522E-03 -0.13446683845E-01  0.13491526875E-01  0.00000000000E+00 0.  1.
     999901    1    3    3    0    0 -0.14757386261E-02 -0.10509302768E-01 -0.12278814762E+00  0.88858851694E+00  0.88000000000E+00 0. -1.
        -11    1    4    4    0    0 -0.72931186586E-02  0.23257789890E-01  0.81493173657E-01  0.85061817780E-01  0.51100000000E-03 0.  1.
         11    1    4    4    0    0  0.93780117160E-02 -0.11833652787E-01  0.54741657811E-01  0.56788138400E-01  0.51100000000E-03 0. -1.
</event>
<event>
 8    1  0.2257781E+004  0.1043930E+01  0.7957747E-01            NaN
         13   -1    0    0    0    0  0.00000000000E+00  0.00000000000E+00  0.74505805969E-08  0.10566000000E+00  0.10566000000E+00 0.  1.
     999900   -1    0    0    0    0 -0.00000000000E+00 -0.00000000000E+00 -0.74505805969E-08  0.93827000000E+00  0.93827000000E+00 0.  1.
     999902    2    1    2    0    0 -0.57667169603E-03 -0.12275939430E-01  0.80518345561E-02  0.10292377136E+01  0.10291328427E+01 0.  0.
     999903    2    3    3    0    0 -0.59765506244E-01  0.40344043814E-01  0.11087673836E+00  0.13971810079E+00  0.45032643402E-01 0.  0.
         14    1    1    2    0    0  0.57667169603E-03  0.12275939430E-01 -0.80518345561E-02  0.14692286373E-01  0.00000000000E+00 0. -1.
     999901    1    3    3    0    0  0.59188834548E-01 -0.52619983244E-01 -0.10282490381E+00  0.88951961283E+00  0.88000000000E+00 0.  1.
        -11    1    4    4    0    0 -0.46595941415E-01  0.19337661933E-01  0.39254436748E-01  0.63924164842E-01  0.51100000000E-03 0. -1.
         11    1    4    4    0    0 -0.13169564829E-01  0.21006381881E-01  0.71622301614E-01  0.75793935952E-01  0.51100000000E-03 0.  1.
</event>
<event>
 8    1  0.2257781E+004  0.1043930E+01  0.7957747E-01            NaN
         13   -1    0    0    0    0  0.00000000000E+00  0.00000000000E+00  0.74505805969E-08  0.10566000000E+00  0.10566000000E+00 0.  1.
     999900   -1    0    0    0    0 -0.00000000000E+00 -0.00000000000E+00 -0.74505805969E-08  0.93827000000E+00  0.93827000000E+00 0. -1.
     999902    2    1    2    0    0 -0.11639765371E-01 -0.63827036926E-02 -0.55925742446E-02  0.10295251421E+01  0.10294243626E+01 0.  0.
     999903    2    3    3    0    0  0.46885812147E-01 -0.12286728274E+00  0.55873785616E-02  0.13985166733E+00  0.47250624391E-01 0.  0.
         14    1    1    2    0    0  0.11639765371E-01  0.63827036926E-02  0.55925742446E-02  0.14404857896E-01  0.00000000000E+00 0.  1.
     999901    1    3    3    0    0 -0.58525577518E-01  0.11648457905E+00 -0.11179952806E-01  0.88967347478E+00  0.88000000000E+00 0. -1.
        -11    1    4    4    0    0  0.27558208139E-01 -0.20296330679E-01  0.90891110830E-02  0.35415659477E-01  0.51100000000E-03 0.  1.
         11    1    4    4    0    0  0.19327604008E-01 -0.10257095206E+00 -0.35017325214E-02  0.10443600785E+00  0.51100000000E-03 0. -1.
</event>
<event>
 8    1  0.2257781E+004  0.1043930E+01  0.7957747E-01            NaN
         13   -1    0    0    0    0  0.00000000000E+00  0.00000000000E+00  0.74505805969E-08  0.10566000000E+00  0.10566000000E+00 0.  1.
     999900   -1    0    0    0    0 -0.00000000000E+00 -0.00000000000E+00 -0.74505805969E-08  0.93827000000E+00  0.93827000000E+00 0. -1.
     999902    2    1    2    0    0  0.82402790195E-02  0.16003932126E-02  0.10292985638E-01  0.10306480946E+01  0.10305625095E+01 0.  0.
     999903    2    3    3    0    0 -0.63389477130E-01 -0.95040757821E-01  0.67165368413E-01  0.14064539691E+00  0.47105939112E-01 0.  0.
         14    1    1    2    0    0 -0.82402790195E-02 -0.16003932126E-02 -0.10292985638E-01  0.13281905364E-01  0.00000000000E+00 0. -1.
     999901    1    3    3    0    0  0.71629756149E-01  0.96641151034E-01 -0.56872382775E-01  0.89000269773E+00  0.88000000000E+00 0.  1.
        -11    1    4    4    0    0 -0.22829146310E-02 -0.14755165700E-01 -0.59098793190E-02  0.16065939394E-01  0.51100000000E-03 0. -1.
         11    1    4    4    0    0 -0.61106562499E-01 -0.80285592122E-01  0.73075247732E-01  0.12457945752E+00  0.51100000000E-03 0.  1.
</event>
<event>
 8    1  0.2257781E+004  0.1043930E+01  0.7957747E-01            NaN
         13   -1    0    0    0    0  0.00000000000E+00  0.00000000000E+00  0.74505805969E-08  0.10566000000E+00  0.10566000000E+00 0.  1.
     999900   -1    0    0    0    0 -0.00000000000E+00 -0.00000000000E+00 -0.74505805969E-08  0.93827000000E+00  0.93827000000E+00 0. -1.
     999902    2    1    2    0    0  0.12775046235E-01  0.31192827562E-02  0.51840278350E-03  0.10307694349E+01  0.10306854164E+01 0.  0.
     999903    2    3    3    0    0  0.30935612053E-01  0.12851265034E+00  0.14634258136E-01  0.14158297522E+00  0.48570196297E-01 0.  0.
         14    1    1    2    0    0 -0.12775046235E-01 -0.31192827562E-02 -0.51840278350E-03  0.13160565058E-01  0.00000000000E+00 0.  1.
     999901    1    3    3    0    0 -0.18160565819E-01 -0.12539336759E+00 -0.14115855353E-01  0.88918645973E+00  0.88000000000E+00 0.  1.
        -11    1    4    4    0    0  0.13013764379E-01  0.42948654600E-01 -0.17879508134E-01  0.48310277658E-01  0.51100000000E-03 0.  1.
         11    1    4    4    0    0  0.17921847674E-01  0.85563995744E-01  0.32513766270E-01  0.93272697558E-01  0.51100000000E-03 0. -1.
</event>
<event>
 8    1  0.2257781E+004  0.1043930E+01  0.7957747E-01            NaN
         13   -1    0    0    0    0  0.00000000000E+00  0.00000000000E+00  0.74505805969E-08  0.10566000000E+00  0.10566000000E+00 0. -1.
     999900   -1    0    0    0    0 -0.00000000000E+00 -0.00000000000E+00 -0.74505805969E-08  0.93827000000E+00  0.93827000000E+00 0. -1.
     999902    2    1    2    0    0 -0.10741812616E-01 -0.48043359296E-02 -0.78846490579E-02  0.10297654007E+01  0.10296679779E+01 0.  0.
     999903    2    3    3    0    0 -0.62460995366E-01 -0.41791983147E-02  0.11594624889E+00  0.13959162221E+00  0.46080871503E-01 0.  0.
         14    1    1    2    0    0  0.10741812616E-01  0.48043359296E-02  0.78846490579E-02  0.14164599280E-01  0.00000000000E+00 0. -1.
     999901    1    3    3    0    0  0.51719182750E-01 -0.62513761488E-03 -0.12383089795E+00  0.89017377851E+00  0.88000000000E+00 0. -1.
        -11    1    4    4    0    0 -0.35421986956E-01  0.12373552728E-01  0.30190157488E-01  0.48161485621E-01  0.51100000000E-03 0.  1.
         11    1    4    4    0    0 -0.27039008409E-01 -0.16552751043E-01  0.85756091403E-01  0.91430136588E-01  0.51100000000E-03 0. -1.
</event>
<event>
 8    1  0.2257781E+004  0.1043930E+01  0.7957747E-01            NaN
         13   -1    0    0    0    0  0.00000000000E+00  0.00000000000E+00  0.74505805969E-08  0.10566000000E+00  0.10566000000E+00 0.  1.
     999900   -1    0    0    0    0 -0.00000000000E+00 -0.00000000000E+00 -0.74505805969E-08  0.93827000000E+00  0.93827000000E+00 0. -1.
     999902    2    1    2    0    0  0.12870836534E-01 -0.46047013059E-02  0.45922822177E-02  0.10295095020E+01  0.10294085020E+01 0.  0.
     999903    2    3    3    0    0  0.91915329135E-01 -0.37167734990E-01  0.90015171798E-01  0.14124971282E+00  0.44931970396E-01 0.  0.
         14    1    1    2    0    0 -0.12870836534E-01  0.46047013059E-02 -0.45922822177E-02  0.14420498021E-01  0.00000000000E+00 0.  1.
     999901    1    3    3    0    0 -0.79044492602E-01  0.32563033684E-01 -0.85422889580E-01  0.88825978916E+00  0.88000000000E+00 0. -1.
        -11    1    4    4    0    0  0.29721508750E-01 -0.22794699803E-01  0.59944765145E-01  0.70686649452E-01  0.51100000000E-03 0. -1.
         11    1    4    4    0    0  0.62193820385E-01 -0.14373035187E-01  0.30070406652E-01  0.70563063368E-01  0.51100000000E-03 0.  1.
</event>
<event>
 8    1  0.2257781E+004  0.1043930E+01  0.7957747E-01            NaN
         13   -1    0    0    0    0  0.00000000000E+00  0.00000000000E+00  0.74505805969E-08  0.10566000000E+00  0.10566000000E+00 0.  1.
     999900   -1    0    0    0    0 -0.00000000000E+00 -0.00000000000E+00 -0.74505805969E-08  0.93827000000E+00  0.93827000000E+00 0. -1.
     999902    2    1    2    0    0  0.84255161210E-02 -0.10674751595E-01 -0.39018915984E-03  0.10303251519E+01  0.10302353259E+01 0.  0.
     999903    2    3    3    0    0 -0.78898182873E-01 -0.98375017609E-01  0.43781844222E-01  0.14056791897E+00  0.44044552558E-01 0.  0.
         14    1    1    2    0    0 -0.84255161210E-02  0.10674751595E-01  0.39018915984E-03  0.13604848073E-01  0.00000000000E+00 0.  1.
     999901    1    3    3    0    0  0.87323698994E-01  0.87700266014E-01 -0.44172033382E-01  0.88975723296E+00  0.88000000000E+00 0. -1.
        -11    1    4    4    0    0 -0.25427165911E-01 -0.16845702576E-01  0.28743873471E-01  0.41914076927E-01  0.51100000000E-03 0. -1.
         11    1    4    4    0    0 -0.53471016962E-01 -0.81529315033E-01  0.15037970752E-01  0.98653842044E-01  0.51100000000E-03 0.  1.
</event>
<event>
 8    1  0.2257781E+004  0.1043930E+01  0.7957747E-01            NaN
         13   -1    0    0    0    0  0.00000000000E+00  0.00000000000E+00  0.74505805969E-08  0.10566000000E+00  0.10566000000E+00 0.  1.
     999900   -1    0    0    0    0 -0.00000000000E+00 -0.00000000000E+00 -0.74505805969E-08  0.93827000000E+00  0.93827000000E+00 0.  1.
     999902    2    1    2    0    0  0.76597503426E-02 -0.37874093296E-03  0.13201640349E-01  0.10286624354E+01  0.10285491274E+01 0.  0.
     999903    2    3    3    0    0  0.68332830282E-01 -0.47962375334E-01 -0.10025990161E+00  0.13803403571E+00  0.45073074002E-01 0.  0.
         14    1    1    2    0    0 -0.76597503426E-02  0.37874093296E-03 -0.13201640349E-01  0.15267564570E-01  0.00000000000E+00 0. -1.
     999901    1    3    3    0    0 -0.60673079940E-01  0.47583634401E-01  0.11346154196E+00  0.89062839972E+00  0.88000000000E+00 0. -1.
        -11    1    4    4    0    0  0.35007128818E-01 -0.40633596549E-01 -0.85325508160E-01  0.10078339000E+00  0.51100000000E-03 0. -1.
         11    1    4    4    0    0  0.33325701464E-01 -0.73287787855E-02 -0.14934393451E-01  0.37250645703E-01  0.51100000000E-03 0.  1.
</event>
<event>
 8    1  0.2257781E+004  0.1043930E+01  0.7957747E-01            NaN
         13   -1    0    0    0    0  0.00000000000E+00  0.00000000000E+00  0.74505805969E-08  0.10566000000E+00  0.10566000000E+00 0. -1.
     999900   -1    0    0    0    0 -0.00000000000E+00 -0.00000000000E+00 -0.74505805969E-08  0.93827000000E+00  0.93827000000E+00 0.  1.
     999902    2    1    2    0    0 -0.42508771244E-02 -0.32278417050E-02  0.11706712181E-01  0.10310639195E+01  0.10309836420E+01 0.  0.
     999903    2    3    3    0    0  0.10581337140E+00 -0.80672775112E-01  0.72189548987E-02  0.14082125789E+00  0.45540609932E-01 0.  0.
         14    1    1    2    0    0  0.42508771244E-02  0.32278417050E-02 -0.11706712181E-01  0.12866080541E-01  0.00000000000E+00 0.  1.
     999901    1    3    3    0    0 -0.11006424852E+00  0.77444933407E-01  0.44877572822E-02  0.89024266157E+00  0.88000000000E+00 0. -1.
        -11    1    4    4    0    0  0.27432585163E-01 -0.17986365861E-02  0.10861804778E-01  0.29563858786E-01  0.51100000000E-03 0.  1.
         11    1    4    4    0    0  0.78380786234E-01 -0.78874138526E-01 -0.36428498796E-02  0.11125739910E+00  0.51100000000E-03 0. -1.
</event>
<event>
 8    1  0.2257781E+004  0.1043930E+01  0.7957747E-01            NaN
         13   -1    0    0    0    0  0.00000000000E+00  0.00000000000E+00  0.74505805969E-08  0.10566000000E+00  0.10566000000E+00 0.  1.
     999900   -1    0    0    0    0 -0.00000000000E+00 -0.00000000000E+00 -0.74505805969E-08  0.93827000000E+00  0.93827000000E+00 0.  1.
     999902    2    1    2    0    0  0.69649386590E-02 -0.86836214084E-02 -0.39665775064E-02  0.10321126658E+01  0.10320450113E+01 0.  0.
     999903    2    3    3    0    0  0.11179957322E+00  0.36303509329E-01 -0.67089656103E-01  0.14250676112E+00  0.44610151829E-01 0.  0.
         14    1    1    2    0    0 -0.69649386590E-02  0.86836214084E-02  0.39665775064E-02  0.11817334234E-01  0.00000000000E+00 0.  1.
     999901    1    3    3    0    0 -0.10483463456E+00 -0.44987130737E-01  0.63123078597E-01  0.88960590465E+00  0.88000000000E+00 0. -1.
        -11    1    4    4    0    0  0.48650985594E-01  0.77107544086E-02 -0.51868967597E-01  0.71533384188E-01  0.51100000000E-03 0. -1.
         11    1    4    4    0    0  0.63148587626E-01  0.28592754920E-01 -0.15220688506E-01  0.70973376929E-01  0.51100000000E-03 0.  1.
</event>
<event>
 8    1  0.2257781E+004  0.1043930E+01  0.7957747E-01            NaN
         13   -1    0    0    0    0  0.00000000000E+00  0.00000000000E+00  0.74505805969E-08  0.10566000000E+00  0.10566000000E+00 0.  1.
     999900   -1    0    0    0    0 -0.00000000000E+00 -0.00000000000E+00 -0.74505805969E-08  0.93827000000E+00  0.93827000000E+00 0.  1.
     999902    2    1    2    0    0  0.11071020105E-01  0.54732386709E-02  0.57105371723E-02  0.10303236021E+01  0.10302337556E+01 0.  0.
     999903    2    3    3    0    0 -0.77074999783E-01 -0.89639772697E-01 -0.55840411725E-01  0.13869322746E+00  0.46279750660E-01 0.  0.
         14    1    1    2    0    0 -0.11071020105E-01 -0.54732386709E-02 -0.57105371723E-02  0.13606397852E-01  0.00000000000E+00 0. -1.
     999901    1    3    3    0    0  0.88146019889E-01  0.95113011368E-01  0.61550948897E-01  0.89163037469E+00  0.88000000000E+00 0.  1.
        -11    1    4    4    0    0 -0.33494712551E-01 -0.70632229122E-01 -0.25228528077E-01  0.82143455671E-01  0.51100000000E-03 0.  1.
         11    1    4    4    0    0 -0.43580287232E-01 -0.19007543575E-01 -0.30611883648E-01  0.56549771790E-01  0.51100000000E-03 0. -1.
</event>
<event>
 8    1  0.2257781E+004  0.1043930E+01  0.7957747E-01            NaN
         13   -1    0    0    0    0  0.00000000000E+00  0.00000000000E+00  0.74505805969E-08  0.10566000000E+00  0.10566000000E+00 0. -1.
     999900   -1    0    0    0    0 -0.00000000000E+00 -0.00000000000E+00 -0.74505805969E-08  0.93827000000E+00  0.93827000000E+00 0.  1.
     999902    2    1    2    0    0 -0.62947978068E-02 -0.35056697788E-02  0.12214053500E-01  0.10297491219E+01  0.10296514735E+01 0.  0.
     999903    2    3    3    0    0  0.10544519457E-01 -0.13212862273E+00 -0.24605967688E-02  0.14011842777E+00  0.45364737718E-01 0.  0.
         14    1    1    2    0    0  0.62947978068E-02  0.35056697788E-02 -0.12214053500E-01  0.14180878073E-01  0.00000000000E+00 0.  1.
     999901    1    3    3    0    0 -0.16839317263E-01  0.12862295295E+00  0.14674650269E-01  0.88963069416E+00  0.88000000000E+00 0. -1.
        -11    1    4    4    0    0  0.98615986464E-02 -0.68693707264E-01 -0.23514747984E-01  0.73275378125E-01  0.51100000000E-03 0.  1.
         11    1    4    4    0    0  0.68292081019E-03 -0.63434915466E-01  0.21054151216E-01  0.66843049642E-01  0.51100000000E-03 0. -1.
</event>
<event>
 8    1  0.2257781E+004  0.1043930E+01  0.7957747E-01            NaN
         13   -1    0    0    0    0  0.00000000000E+00  0.00000000000E+00  0.74505805969E-08  0.10566000000E+00  0.10566000000E+00 0. -1.
     999900   -1    0    0    0    0 -0.00000000000E+00 -0.00000000000E+00 -0.74505805969E-08  0.93827000000E+00  0.93827000000E+00 0. -1.
     999902    2    1    2    0    0 -0.21543827891E-02 -0.37842969820E-02  0.12782715232E-01  0.10304259237E+01  0.10303374322E+01 0.  0.
     999903    2    3    3    0    0  0.12010784278E+00  0.54840292549E-01  0.12893654014E-01  0.14004122782E+00  0.44854738762E-01 0.  0.
         14    1    1    2    0    0  0.21543827891E-02  0.37842969820E-02 -0.12782715232E-01  0.13504076331E-01  0.00000000000E+00 0.  1.
     999901    1    3    3    0    0 -0.12226222557E+00 -0.58624589531E-01 -0.11093878149E-03  0.89038469585E+00  0.88000000000E+00 0. -1.
        -11    1    4    4    0    0  0.30319078398E-01 -0.45363864518E-02  0.10362099250E-01  0.32364479585E-01  0.51100000000E-03 0. -1.
         11    1    4    4    0    0  0.89788764387E-01  0.59376679000E-01  0.25315547636E-02  0.10767674823E+00  0.51100000000E-03 0.  1.
</event>
<event>
 8    1  0.2257781E+004  0.1043930E+01  0.7957747E-01            NaN
         13   -1    0    0    0    0  0.00000000000E+00  0.00000000000E+00  0.74505805969E-08  0.10566000000E+00  0.10566000000E+00 0.  1.
     999900   -1    0    0    0    0 -0.00000000000E+00 -0.00000000000E+00 -0.74505805969E-08  0.93827000000E+00  0.93827000000E+00 0.  1.
     999902    2    1    2    0    0  0.55307567389E-03  0.13640675716E-01  0.16058706413E-02  0.10301839916E+01  0.10300922793E+01 0.  0.
     999903    2    3    3    0    0  0.10083645412E+00  0.44966918391E-01  0.74807918271E-01  0.14091652381E+00  0.45510743992E-01 0.  0.
         14    1    1    2    0    0 -0.55307567389E-03 -0.13640675716E-01 -0.16058706413E-02  0.13746008410E-01  0.00000000000E+00 0.  1.
     999901    1    3    3    0    0 -0.10028337844E+00 -0.31326242674E-01 -0.73202047629E-01  0.88926746778E+00  0.88000000000E+00 0.  1.
        -11    1    4    4    0    0  0.82090811549E-01  0.39530446909E-01  0.36952358034E-01  0.98322405681E-01  0.51100000000E-03 0. -1.
         11    1    4    4    0    0  0.18745642567E-01  0.54364714811E-02  0.37855560237E-01  0.42594118130E-01  0.51100000000E-03 0.  1.
</event>
<event>
 8    1  0.2257781E+004  0.1043930E+01  0.7957747E-01            NaN
         13   -1    0    0    0    0  0.00000000000E+00  0.00000000000E+00  0.74505805969E-08  0.10566000000E+00  0.10566000000E+00 0.  1.
     999900   -1    0    0    0    0 -0.00000000000E+00 -0.00000000000E+00 -0.74505805969E-08  0.93827000000E+00  0.93827000000E+00 0. -1.
     999902    2    1    2    0    0 -0.89440069097E-02  0.99908769902E-02 -0.10487832843E-02  0.10304796160E+01  0.10303918314E+01 0.  0.
     999903    2    3    3    0    0  0.75110267415E-01  0.31454505482E-01 -0.10529499765E+00  0.14009032949E+00  0.43672940133E-01 0.  0.
         14    1    1    2    0    0  0.89440069097E-02 -0.99908769902E-02  0.10487832843E-02  0.13450383973E-01  0.00000000000E+00 0.  1.
     999901    1    3    3    0    0 -0.84054274325E-01 -0.21463628492E-01  0.10424621436E+00  0.89038928654E+00  0.88000000000E+00 0.  1.
        -11    1    4    4    0    0  0.26510839377E-01 -0.90517885029E-02 -0.42837575342E-01  0.51186702001E-01  0.51100000000E-03 0.  1.
         11    1    4    4    0    0  0.48599428039E-01  0.40506293985E-01 -0.62457422303E-01  0.88903627485E-01  0.51100000000E-03 0. -1.
</event>
<event>
 8    1  0.2257781E+004  0.1043930E+01  0.7957747E-01            NaN
         13   -1    0    0    0    0  0.00000000000E+00  0.00000000000E+00  0.74505805969E-08  0.10566000000E+00  0.10566000000E+00 0. -1.
     999900   -1    0    0    0    0 -0.00000000000E+00 -0.00000000000E+00 -0.74505805969E-08  0.93827000000E+00  0.93827000000E+00 0. -1.
     999902    2    1    2    0    0 -0.86976824629E-02  0.90898644727E-02 -0.67840375236E-02  0.10296366980E+01  0.10295374842E+01 0.  0.
     999903    2    3    3    0    0  0.16572047516E-01  0.11988472244E+00  0.54955456774E-01  0.14018415574E+00  0.44547905209E-01 0.  0.
         14    1    1    2    0    0  0.86976824629E-02 -0.90898644727E-02  0.67840375236E-02  0.14293301980E-01  0.00000000000E+00 0. -1.
     999901    1    3    3    0    0 -0.25269729979E-01 -0.11079485797E+00 -0.61739494297E-01  0.88945254228E+00  0.88000000000E+00 0. -1.
        -11    1    4    4    0    0 -0.39572378678E-02  0.60668874988E-01  0.68682852508E-02  0.61186653668E-01  0.51100000000E-03 0. -1.
         11    1    4    4    0    0  0.20529285383E-01  0.59215847455E-01  0.48087171523E-01  0.78997502076E-01  0.51100000000E-03 0.  1.
</event>
<event>
 8    1  0.2257781E+004  0.1043930E+01  0.7957747E-01            NaN
         13   -1    0    0    0    0  0.00000000000E+00  0.00000000000E+00  0.74505805969E-08  0.10566000000E+00  0.10566000000E+00 0.  1.
     999900   -1    0    0    0    0 -0.00000000000E+00 -0.00000000000E+00 -0.74505805969E-08  0.93827000000E+00  0.93827000000E+00 0.  1.
     999902    2    1    2    0    0 -0.88867132774E-02  0.64509651009E-02 -0.78458279300E-02  0.10304338658E+01  0.10303454790E+01 0.  0.
     999903    2    3    3    0    0 -0.33108904004E-01  0.12062724388E+00 -0.49525708645E-01  0.14174936065E+00  0.44642512670E-01 0.  0.
         14    1    1    2    0    0  0.88867132774E-02 -0.64509651009E-02  0.78458279300E-02  0.13496134243E-01  0.00000000000E+00 0.  1.
     999901    1    3    3    0    0  0.24222190727E-01 -0.11417627878E+00  0.41679880715E-01  0.88868450511E+00  0.88000000000E+00 0.  1.
        -11    1    4    4    0    0  0.78458850520E-02  0.40840681446E-02 -0.63106428095E-02  0.10877631108E-01  0.51100000000E-03 0. -1.
         11    1    4    4    0    0 -0.40954789056E-01  0.11654317574E+00 -0.43215065835E-01  0.13087172954E+00  0.51100000000E-03 0.  1.
</event>
<event>
 8    1  0.2257781E+004  0.1043930E+01  0.7957747E-01            NaN
         13   -1    0    0    0    0  0.00000000000E+00  0.00000000000E+00  0.74505805969E-08  0.10566000000E+00  0.10566000000E+00 0. -1.
     999900   -1    0    0    0    0 -0.00000000000E+00 -0.00000000000E+00 -0.74505805969E-08  0.93827000000E+00  0.93827000000E+00 0. -1.
     999902    2    1    2    0    0 -0.10719504883E-01  0.84459415928E-02  0.27669419773E-02  0.10300052852E+01  0.10299111563E+01 0.  0.
     999903    2    3    3    0    0 -0.88414080538E-01  0.25773028742E-01 -0.96735741898E-01  0.14082731700E+00  0.44645613502E-01 0.  0.
         14    1    1    2    0    0  0.10719504883E-01 -0.84459415928E-02 -0.27669419773E-02  0.13924714799E-01  0.00000000000E+00 0.  1.
     999901    1    3    3    0    0  0.77694575655E-01 -0.17327087149E-01  0.99502683875E-01  0.88917796820E+00  0.88000000000E+00 0.  1.
        -11    1    4    4    0    0 -0.59858813639E-01  0.13657293753E-01 -0.32449010692E-01  0.69446372539E-01  0.51100000000E-03 0.  1.
         11    1    4    4    0    0 -0.28555266899E-01  0.12115734989E-01 -0.64286731206E-01  0.71380944461E-01  0.51100000000E-03 0. -1.
</event>
<event>
 7    1  0.2257781E+004  0.1043930E+01  0.7957747E-01            NaN
         13   -1    0    0    0    0  0.00000000000E+00  0.00000000000E+00  0.74505805969E-08  0.10566000000E+00  0.10566000000E+00 0. -1.
     999900   -1    0    0    0    0 -0.00000000000E+00 -0.00000000000E+00 -0.74505805969E-08  0.93827000000E+00  0.93827000000E+00 0.  1.
     999903    2    1    2    0    0  0.31488952150E-01 -0.87546940836E-01  0.55682303631E-01  0.11733030411E+00  0.44831466276E-01 0.  0.
         14    1    1    2    0    0  0.26137442398E-01 -0.10133837768E-02 -0.30145295466E-01  0.39911548210E-01  0.00000000000E+00 0.  1.
     999901    1    1    2    0    0 -0.57626394547E-01  0.88560324613E-01 -0.25537008165E-01  0.88668814768E+00  0.88000000000E+00 0.  1.
        -11    1    3    3    0    0  0.19722654342E-01 -0.54607493909E-01  0.86316947365E-02  0.58700330155E-01  0.51100000000E-03 0. -1.
         11    1    3    3    0    0  0.11766297807E-01 -0.32939446927E-01  0.47050608895E-01  0.58629973958E-01  0.51100000000E-03 0.  1.
</event>
<event>
 8    1  0.2257781E+004  0.1043930E+01  0.7957747E-01            NaN
         13   -1    0    0    0    0  0.00000000000E+00  0.00000000000E+00  0.74505805969E-08  0.10566000000E+00  0.10566000000E+00 0.  1.
     999900   -1    0    0    0    0 -0.00000000000E+00 -0.00000000000E+00 -0.74505805969E-08  0.93827000000E+00  0.93827000000E+00 0. -1.
     999902    2    1    2    0    0 -0.65240086505E-02 -0.13479140655E-01  0.19856466500E-02  0.10288239511E+01  0.10287130453E+01 0.  0.
     999903    2    3    3    0    0 -0.73182784782E-01  0.10006614840E+00 -0.39074287125E-01  0.13808165205E+00  0.46591723245E-01 0.  0.
         14    1    1    2    0    0  0.65240086505E-02  0.13479140655E-01 -0.19856466500E-02  0.15106048930E-01  0.00000000000E+00 0.  1.
     999901    1    3    3    0    0  0.66658776131E-01 -0.11354528905E+00  0.41059933775E-01  0.89074229902E+00  0.88000000000E+00 0.  1.
        -11    1    4    4    0    0 -0.97116824582E-02  0.48641772636E-01 -0.23625875460E-01  0.54943443044E-01  0.51100000000E-03 0.  1.
         11    1    4    4    0    0 -0.63471102323E-01  0.51424375763E-01 -0.15448411664E-01  0.83138209006E-01  0.51100000000E-03 0. -1.
</event>
<event>
 8    1  0.2257781E+004  0.1043930E+01  0.7957747E-01            NaN
         13   -1    0    0    0    0  0.00000000000E+00  0.00000000000E+00  0.74505805969E-08  0.10566000000E+00  0.10566000000E+00 0. -1.
     999900   -1    0    0    0    0 -0.00000000000E+00 -0.00000000000E+00 -0.74505805969E-08  0.93827000000E+00  0.93827000000E+00 0.  1.
     999902    2    1    2    0    0  0.55413530072E-02 -0.12201103346E-01 -0.67164304588E-02  0.10289405386E+01  0.10288313506E+01 0.  0.
     999903    2    3    3    0    0  0.11964215454E+00  0.44460289348E-01 -0.34323228634E-01  0.13933858171E+00  0.44115687193E-01 0.  0.
         14    1    1    2    0    0 -0.55413530072E-02  0.12201103346E-01  0.67164304588E-02  0.14989461435E-01  0.00000000000E+00 0. -1.
     999901    1    3    3    0    0 -0.11410080154E+00 -0.56661392694E-01  0.27606798175E-01  0.88960195685E+00  0.88000000000E+00 0. -1.
        -11    1    4    4    0    0  0.65218519178E-01  0.29146809592E-01  0.31531698097E-02  0.71506610562E-01  0.51100000000E-03 0. -1.
         11    1    4    4    0    0  0.54423635366E-01  0.15313479756E-01 -0.37476398444E-01  0.67831971149E-01  0.51100000000E-03 0.  1.
</event>
<event>
 8    1  0.2257781E+004  0.1043930E+01  0.7957747E-01            NaN
         13   -1    0    0    0    0  0.00000000000E+00  0.00000000000E+00  0.74505805969E-08  0.10566000000E+00  0.10566000000E+00 0. -1.
     999900   -1    0    0    0    0 -0.00000000000E+00 -0.00000000000E+00 -0.74505805969E-08  0.93827000000E+00  0.93827000000E+00 0.  1.
     999902    2    1    2    0    0 -0.12231253884E-01 -0.10092479067E-03 -0.76901688321E-02  0.10294817318E+01  0.10293803396E+01 0.  0.
     999903    2    3    3    0    0  0.10914801247E+00 -0.24096694637E-01 -0.59110040671E-01  0.13933976195E+00  0.58545990745E-01 0.  0.
         14    1    1    2    0    0  0.12231253884E-01  0.10092479067E-03  0.76901688321E-02  0.14448268203E-01  0.00000000000E+00 0.  1.
     999901    1    3    3    0    0 -0.12137926635E+00  0.23995769846E-01  0.51419871838E-01  0.89014196985E+00  0.88000000000E+00 0. -1.
        -11    1    4    4    0    0  0.10673415623E+00 -0.95094782168E-02 -0.62648899933E-01  0.12412798260E+00  0.51100000000E-03 0. -1.
         11    1    4    4    0    0  0.24138562424E-02 -0.14587216420E-01  0.35388592623E-02  0.15211779341E-01  0.51100000000E-03 0.  1.
</event>
<event>
 8    1  0.2257781E+004  0.1043930E+01  0.7957747E-01            NaN
         13   -1    0    0    0    0  0.00000000000E+00  0.00000000000E+00  0.74505805969E-08  0.10566000000E+00  0.10566000000E+00 0.  1.
     999900   -1    0    0    0    0 -0.00000000000E+00 -0.00000000000E+00 -0.74505805969E-08  0.93827000000E+00  0.93827000000E+00 0. -1.
     999902    2    1    2    0    0 -0.41637204102E-02  0.38441615246E-02  0.13000342436E-01  0.10297482142E+01  0.10296505531E+01 0.  0.
     999903    2    3    3    0    0  0.83336093850E-01 -0.52276827441E-01 -0.86186018575E-01  0.13809597418E+00  0.44324903392E-01 0.  0.
         14    1    1    2    0    0  0.41637204102E-02 -0.38441615246E-02 -0.13000342436E-01  0.14181785816E-01  0.00000000000E+00 0. -1.
     999901    1    3    3    0    0 -0.87499814260E-01  0.56120988966E-01  0.99186361011E-01  0.89165224001E+00  0.88000000000E+00 0.  1.
        -11    1    4    4    0    0  0.43230064931E-01 -0.11610503587E-01 -0.15848568607E-01  0.47487688461E-01  0.51100000000E-03 0.  1.
         11    1    4    4    0    0  0.40106028919E-01 -0.40666323854E-01 -0.70337449968E-01  0.90608285716E-01  0.51100000000E-03 0. -1.
</event>
<event>
 8    1  0.2257781E+004  0.1043930E+01  0.7957747E-01            NaN
         13   -1    0    0    0    0  0.00000000000E+00  0.00000000000E+00  0.74505805969E-08  0.10566000000E+00  0.10566000000E+00 0. -1.
     999900   -1    0    0    0    0 -0.00000000000E+00 -0.00000000000E+00 -0.74505805969E-08  0.93827000000E+00  0.93827000000E+00 0.  1.
     999902    2    1    2    0    0  0.39018907402E-02 -0.12371923224E-01  0.51396483050E-02  0.10299763188E+01  0.10298817951E+01 0.  0.
     999903    2    3    3    0    0 -0.11901440509E+00  0.40256992721E-01 -0.38379141182E-01  0.13881297592E+00  0.44844506072E-01 0.  0.
         14    1    1    2    0    0 -0.39018907402E-02  0.12371923224E-01 -0.51396483050E-02  0.13953681246E-01  0.00000000000E+00 0. -1.
     999901    1    3    3    0    0  0.12291629583E+00 -0.52628915945E-01  0.43518789487E-01  0.89116334283E+00  0.88000000000E+00 0. -1.
        -11    1    4    4    0    0 -0.91475619835E-01  0.32130513180E-01 -0.84318682207E-02  0.97321716097E-01  0.51100000000E-03 0.  1.
         11    1    4    4    0    0 -0.27538785251E-01  0.81264795413E-02 -0.29947272961E-01  0.41491259823E-01  0.51100000000E-03 0. -1.
</event>
<event>
 8    1  0.2257781E+004  0.1043930E+01  0.7957747E-01            NaN
         13   -1    0    0    0    0  0.00000000000E+00  0.00000000000E+00  0.74505805969E-08  0.10566000000E+00  0.10566000000E+00 0. -1.
     999900   -1    0    0    0    0 -0.00000000000E+00 -0.00000000000E+00 -0.74505805969E-08  0.93827000000E+00  0.93827000000E+00 0. -1.
     999902    2    1    2    0    0  0.79348155211E-02 -0.49967779713E-03  0.21676136512E-02  0.10356892765E+01  0.10356564913E+01 0.  0.
     999903    2    3    3    0    0 -0.11053056512E+00  0.47575481367E-01  0.71310331670E-01  0.14376664374E+00  0.33215240409E-01 0.  0.
         14    1    1    2    0    0 -0.79348155211E-02  0.49967779713E-03 -0.21676136512E-02  0.82407235238E-02  0.00000000000E+00 0. -1.
     999901    1    3    3    0    0  0.11846538064E+00 -0.48075159164E-01 -0.69142718019E-01  0.89192263274E+00  0.88000000000E+00 0. -1.
        -11    1    4    4    0    0 -0.57117124448E-01  0.42445684552E-01  0.41524885426E-01  0.82392835082E-01  0.51100000000E-03 0. -1.
         11    1    4    4    0    0 -0.53413440671E-01  0.51297968147E-02  0.29785446245E-01  0.61373808654E-01  0.51100000000E-03 0.  1.
</event>
<event>
 8    1  0.2257781E+004  0.1043930E+01  0.7957747E-01            NaN
         13   -1    0    0    0    0  0.00000000000E+00  0.00000000000E+00  0.74505805969E-08  0.10566000000E+00  0.10566000000E+00 0. -1.
     999900   -1    0    0    0    0 -0.00000000000E+00 -0.00000000000E+00 -0.74505805969E-08  0.93827000000E+00  0.93827000000E+00 0.  1.
     999902    2    1    2    0    0  0.12008673181E-01  0.68912506275E-03  0.59958715725E-02  0.10304900000E+01  0.10304023517E+01 0.  0.
     999903    2    3    3    0    0 -0.82143010343E-01  0.50551987729E-01 -0.90428272879E-01  0.13883510024E+00  0.42366672162E-01 0.  0.
         14    1    1    2    0    0 -0.12008673181E-01 -0.68912506275E-03 -0.59958715725E-02  0.13440000031E-01  0.00000000000E+00 0.  1.
     999901    1    3    3    0    0  0.94151683525E-01 -0.49862862666E-01  0.96424144452E-01  0.89165489973E+00  0.88000000000E+00 0. -1.
        -11    1    4    4    0    0 -0.17334988227E-01  0.90810018580E-02  0.67458598043E-03  0.19587817613E-01  0.51100000000E-03 0.  1.
         11    1    4    4    0    0 -0.64808022116E-01  0.41470985871E-01 -0.91102858860E-01  0.11924728262E+00  0.51100000000E-03 0. -1.
</event>
<event>
 8    1  0.2257781E+004  0.1043930E+01  0.7957747E-01            NaN
         13   -1    0    0    0    0  0.00000000000E+00  0.00000000000E+00  0.74505805969E-08  0.10566000000E+00  0.10566000000E+00 0.  1.
     999900   -1    0    0    0    0 -0.00000000000E+00 -0.00000000000E+00 -0.74505805969E-08  0.93827000000E+00  0.93827000000E+00 0.  1.
     999902    2    1    2    0    0  0.11025291593E-01 -0.67367029663E-02 -0.46352714723E-02  0.10302031663E+01  0.10301117114E+01 0.  0.
     999903    2    3    3    0    0  0.11105809027E+00 -0.74347592341E-01 -0.14829490105E-01  0.14190045030E+00  0.45325049554E-01 0.  0.
         14    1    1    2    0    0 -0.11025291593E-01  0.67367029663E-02  0.46352714723E-02  0.13726833692E-01  0.00000000000E+00 0.  1.
     999901    1    3    3    0    0 -0.10003279868E+00  0.67610889375E-01  0.10194218633E-01  0.88830271601E+00  0.88000000000E+00 0.  1.
        -11    1    4    4    0    0  0.32075445392E-01 -0.29718230101E-01  0.15266366083E-01  0.46317712075E-01  0.51100000000E-03 0. -1.
         11    1    4    4    0    0  0.78982644879E-01 -0.44629362240E-01 -0.30095856188E-01  0.95582738226E-01  0.51100000000E-03 0.  1.
</event>
<event>
 8    1  0.2257781E+004  0.1043930E+01  0.7957747E-01            NaN
         13   -1    0    0    0    0  0.00000000000E+00  0.00000000000E+00  0.74505805969E-08  0.10566000000E+00  0.10566000000E+00 0. -1.
     999900   -1    0    0    0    0 -0.00000000000E+00 -0.00000000000E+00 -0.74505805969E-08  0.93827000000E+00  0.93827000000E+00 0.  1.
     999902    2    1    2    0    0  0.91013412568E-02 -0.67503010530E-02 -0.22118644137E-02  0.10323847273E+01  0.10323201693E+01 0.  0.
     999903    2    3    3    0    0 -0.28659349247E-01 -0.98815996181E-01 -0.87422244754E-01  0.14268659263E+00  0.46161189725E-01 0.  0.
         14    1    1    2    0    0 -0.91013412568E-02  0.67503010530E-02  0.22118644137E-02  0.11545272676E-01  0.00000000000E+00 0.  1.
     999901    1    3    3    0    0  0.37760690504E-01  0.92065695128E-01  0.85210380340E-01  0.88969813470E+00  0.88000000000E+00 0. -1.
        -11    1    4    4    0    0 -0.27534654623E-01 -0.33072229664E-01 -0.53608915483E-01  0.68746683705E-01  0.51100000000E-03 0.  1.
         11    1    4    4    0    0 -0.11246946243E-02 -0.65743766518E-01 -0.33813329271E-01  0.73939908921E-01  0.51100000000E-03 0. -1.
</event>
<event>
 8    1  0.2257781E+004  0.1043930E+01  0.7957747E-01            NaN
         13   -1    0    0    0    0  0.00000000000E+00  0.00000000000E+00  0.74505805969E-08  0.10566000000E+00  0.10566000000E+00 0. -1.
     999900   -1    0    0    0    0 -0.00000000000E+00 -0.00000000000E+00 -0.74505805969E-08  0.93827000000E+00  0.93827000000E+00 0.  1.
     999902    2    1    2    0    0  0.64572190783E-03  0.33379838309E-03 -0.15270554348E-01  0.10286421549E+01  0.10285285434E+01 0.  0.
     999903    2    3    3    0    0 -0.32093696004E-01 -0.93480388491E-01  0.84316614813E-01  0.13746844825E+00  0.44941009938E-01 0.  0.
         14    1    1    2    0    0 -0.64572190783E-03 -0.33379838309E-03  0.15270554348E-01  0.15287845114E-01  0.00000000000E+00 0. -1.
     999901    1    3    3    0    0  0.32739417912E-01  0.93814186874E-01 -0.99587169160E-01  0.89117370664E+00  0.88000000000E+00 0.  1.
        -11    1    4    4    0    0 -0.20862585877E-01 -0.73409138837E-01  0.85280319670E-01  0.11444275075E+00  0.51100000000E-03 0.  1.
         11    1    4    4    0    0 -0.11231110127E-01 -0.20071249654E-01 -0.96370485706E-03  0.23025697501E-01  0.51100000000E-03 0. -1.
</event>
<event>
 8    1  0.2257781E+004  0.1043930E+01  0.7957747E-01            NaN
         13   -1    0    0    0    0  0.00000000000E+00  0.00000000000E+00  0.74505805969E-08  0.10566000000E+00  0.10566000000E+00 0. -1.
     999900   -1    0    0    0    0 -0.00000000000E+00 -0.00000000000E+00 -0.74505805969E-08  0.93827000000E+00  0.93827000000E+00 0. -1.
     999902    2    1    2    0    0  0.44892051324E-02  0.12851714687E-01 -0.49962938094E-03  0.10303076227E+01  0.10302175636E+01 0.  0.
     999903    2    3    3    0    0 -0.12771910976E+00 -0.14857072054E-01  0.30556643726E-01  0.13945897818E+00  0.44521843316E-01 0.  0.
         14    1    1    2    0    0 -0.44892051324E-02 -0.12851714687E-01  0.49962938094E-03  0.13622377276E-01  0.00000000000E+00 0.  1.
     999901    1    3    3    0    0  0.13220831489E+00  0.27708786741E-01 -0.31056273107E-01  0.89084864454E+00  0.88000000000E+00 0. -1.
        -11    1    4    4    0    0 -0.93817704470E-01 -0.23434046238E-01  0.37652223257E-01  0.10377315275E+00  0.51100000000E-03 0.  1.
         11    1    4    4    0    0 -0.33901405285E-01  0.85769741842E-02 -0.70955795305E-02  0.35685825426E-01  0.51100000000E-03 0. -1.
</event>
<event>
 8    1  0.2257781E+004  0.1043930E+01  0.7957747E-01            NaN
         13   -1    0    0    0    0  0.00000000000E+00  0.00000000000E+00  0.74505805969E-08  0.10566000000E+00  0.10566000000E+00 0. -1.
     999900   -1    0    0    0    0 -0.00000000000E+00 -0.00000000000E+00 -0.74505805969E-08  0.93827000000E+00  0.93827000000E+00 0. -1.
     999902    2    1    2    0    0  0.80756761145E-02 -0.13563812929E-01 -0.88747719697E-02  0.10258204682E+01  0.10256606055E+01 0.  0.
     999903    2    3    3    0    0 -0.48887476557E-01  0.11301241465E+00  0.27708502338E-01  0.13419011981E+00  0.45578897785E-01 0.  0.
         14    1    1    2    0    0 -0.80756761145E-02  0.13563812929E-01  0.88747719697E-02  0.18109531838E-01  0.00000000000E+00 0. -1.
     999901    1    3    3    0    0  0.56963152671E-01 -0.12657622758E+00 -0.36583274308E-01  0.89163034836E+00  0.88000000000E+00 0.  1.
        -11    1    4    4    0    0 -0.27380876525E-01  0.25553017845E-01  0.23099661881E-01  0.44005961190E-01  0.51100000000E-03 0.  1.
         11    1    4    4    0    0 -0.21506600032E-01  0.87459396802E-01  0.46088404571E-02  0.90184158616E-01  0.51100000000E-03 0. -1.
</event>
<event>
 8    1  0.2257781E+004  0.1043930E+01  0.7957747E-01            NaN
         13   -1    0    0    0    0  0.00000000000E+00  0.00000000000E+00  0.74505805969E-08  0.10566000000E+00  0.10566000000E+00 0. -1.
     999900   -1    0    0    0    0 -0.00000000000E+00 -0.00000000000E+00 -0.74505805969E-08  0.93827000000E+00  0.93827000000E+00 0. -1.
     999902    2    1    2    0    0 -0.58589913284E-02 -0.12218555424E-01  0.19093164663E-02  0.10302454699E+01  0.10301545815E+01 0.  0.
     999903    2    3    3    0    0  0.10759954190E+00 -0.19304007846E-02  0.76889732704E-01  0.13973957559E+00  0.45096897087E-01 0.  0.
         14    1    1    2    0    0  0.58589913284E-02  0.12218555424E-01 -0.19093164663E-02  0.13684530149E-01  0.00000000000E+00 0. -1.
     999901    1    3    3    0    0 -0.11345853323E+00 -0.10288154639E-01 -0.74980416238E-01  0.89050589426E+00  0.88000000000E+00 0. -1.
        -11    1    4    4    0    0  0.57095902924E-02  0.60467908172E-03  0.24444979737E-01  0.25115397935E-01  0.51100000000E-03 0.  1.
         11    1    4    4    0    0  0.10188995161E+00 -0.25350798663E-02  0.52444752967E-01  0.11462417766E+00  0.51100000000E-03 0. -1.
</event>
<event>
 8    1  0.2257781E+004  0.1043930E+01  0.7957747E-01            NaN
         13   -1    0    0    0    0  0.00000000000E+00  0.00000000000E+00  0.74505805969E-08  0.10566000000E+00  0.10566000000E+00 0. -1.
     999900   -1    0    0    0    0 -0.00000000000E+00 -0.00000000000E+00 -0.74505805969E-08  0.93827000000E+00  0.93827000000E+00 0. -1.
     999902    2    1    2    0    0  0.93749423876E-02  0.83428513240E-03 -0.99951776612E-02  0.10302008648E+01  0.10301093790E+01 0.  0.
     999903    2    3    3    0    0 -0.55155208976E-01 -0.10368566658E+00  0.58151878444E-01  0.13905969643E+00  0.46509608391E-01 0.  0.
         14    1    1    2    0    0 -0.93749423876E-02 -0.83428513240E-03  0.99951776612E-02  0.13729135185E-01  0.00000000000E+00 0. -1.
     999901    1    3    3    0    0  0.64530151364E-01  0.10451995171E+00 -0.68147056105E-01  0.89114116839E+00  0.88000000000E+00 0. -1.
        -11    1    4    4    0    0 -0.52078144537E-01 -0.54322102069E-01  0.24138401631E-01  0.79031306872E-01  0.51100000000E-03 0.  1.
         11    1    4    4    0    0 -0.30770644398E-02 -0.49363564510E-01  0.34013476813E-01  0.60028389555E-01  0.51100000000E-03 0. -1.
</event>
<event>
 8    1  0.2257781E+004  0.1043930E+01  0.7957747E-01            NaN
         13   -1    0    0    0    0  0.00000000000E+00  0.00000000000E+00  0.74505805969E-08  0.10566000000E+00  0.10566000000E+00 0.  1.
     999900   -1    0    0    0    0 -0.00000000000E+00 -0.00000000000E+00 -0.74505805969E-08  0.93827000000E+00  0.93827000000E+00 0. -1.
     999902    2    1    2    0    0  0.11924701087E-01  0.75488568118E-02  0.42233626637E-02  0.10291983834E+01  0.10290929462E+01 0.  0.
     999903    2    3    3    0    0  0.36376443151E-01 -0.12987728725E-01  0.12584982287E+00  0.14025933327E+00  0.48400164666E-01 0.  0.
         14    1    1    2    0    0 -0.11924701087E-01 -0.75488568118E-02 -0.42233626637E-02  0.14731616591E-01  0.00000000000E+00 0. -1.
     999901    1    3    3    0    0 -0.24451742064E-01  0.20536585537E-01 -0.12162646021E+00  0.88893905014E+00  0.88000000000E+00 0. -1.
        -11    1    4    4    0    0  0.38197967390E-01  0.80637092857E-02  0.64788864588E-01  0.75643679285E-01  0.51100000000E-03 0.  1.
         11    1    4    4    0    0 -0.18215242385E-02 -0.21051438011E-01  0.61060958282E-01  0.64615653987E-01  0.51100000000E-03 0. -1.
</event>
<event>
 8    1  0.2257781E+004  0.1043930E+01  0.7957747E-01            NaN
         13   -1    0    0    0    0  0.00000000000E+00  0.00000000000E+00  0.74505805969E-08  0.10566000000E+00  0.10566000000E+00 0. -1.
     999900   -1    0    0    0    0 -0.00000000000E+00 -0.00000000000E+00 -0.74505805969E-08  0.93827000000E+00  0.93827000000E+00 0.  1.
     999902    2    1    2    0    0 -0.93865351063E-02  0.37184620550E-02  0.76703580283E-02  0.10312505523E+01  0.10311726011E+01 0.  0.
     999903    2    3    3    0    0 -0.74137135645E-02  0.13274173828E+00  0.20827757458E-01  0.14174281486E+00  0.44518511349E-01 0.  0.
         14    1    1    2    0    0  0.93865351063E-02 -0.37184620550E-02 -0.76703580283E-02  0.12679447687E-01  0.00000000000E+00 0.  1.
     999901    1    3    3    0    0 -0.19728215418E-02 -0.12902327623E+00 -0.13157399429E-01  0.88950773746E+00  0.88000000000E+00 0.  1.
        -11    1    4    4    0    0 -0.94110677902E-03  0.12370331429E+00  0.30031813748E-01  0.12730108643E+00  0.51100000000E-03 0. -1.
         11    1    4    4    0    0 -0.64726067854E-02  0.90384239946E-02 -0.92040562906E-02  0.14441728432E-01  0.51100000000E-03 0.  1.
</event>
<event>
 8    1  0.2257781E+004  0.1043930E+01  0.7957747E-01            NaN
         13   -1    0    0    0    0  0.00000000000E+00  0.00000000000E+00  0.74505805969E-08  0.10566000000E+00  0.10566000000E+00 0.  1.
     999900   -1    0    0    0    0 -0.00000000000E+00 -0.00000000000E+00 -0.74505805969E-08  0.93827000000E+00  0.93827000000E+00 0. -1.
     999902    2    1    2    0    0  0.11506747039E-01  0.68198288598E-02 -0.90595837149E-04  0.10305537711E+01  0.10304669580E+01 0.  0.
     999903    2    3    3    0    0 -0.30456453713E-02 -0.91483446354E-01 -0.95391087524E-01  0.13984759630E+00  0.45600369497E-01 0.  0.
         14    1    1    2    0    0 -0.11506747039E-01 -0.68198288598E-02  0.90595837149E-04  0.13376228942E-01  0.00000000000E+00 0.  1.
     999901    1    3    3    0    0  0.14552392410E-01  0.98303275214E-01  0.95300491687E-01  0.89070617476E+00  0.88000000000E+00 0.  1.
        -11    1    4    4    0    0 -0.22755329110E-01 -0.66559679874E-01 -0.69052357202E-01  0.98572233129E-01  0.51100000000E-03 0. -1.
         11    1    4    4    0    0  0.19709683739E-01 -0.24923766480E-01 -0.26338730323E-01  0.41275363168E-01  0.51100000000E-03 0.  1.
</event>
<event>
 8    1  0.2257781E+004  0.1043930E+01  0.7957747E-01            NaN
         13   -1    0    0    0    0  0.00000000000E+00  0.00000000000E+00  0.74505805969E-08  0.10566000000E+00  0.10566000000E+00 0. -1.
     999900   -1    0    0    0    0 -0.00000000000E+00 -0.00000000000E+00 -0.74505805969E-08  0.93827000000E+00  0.93827000000E+00 0. -1.
     999902    2    1    2    0    0 -0.13289527457E-01 -0.15201399043E-02  0.45909799323E-02  0.10297878834E+01  0.10296907717E+01 0.  0.
     999903    2    3    3    0    0  0.12546494728E+00  0.35776742792E-01  0.11970287179E-01  0.13810502728E+00  0.43683892487E-01 0.  0.
         14    1    1    2    0    0  0.13289527457E-01  0.15201399043E-02 -0.45909799323E-02  0.14142116606E-01  0.00000000000E+00 0. -1.
     999901    1    3    3    0    0 -0.13875447474E+00 -0.37296882696E-01 -0.73793072470E-02  0.89168285612E+00  0.88000000000E+00 0. -1.
        -11    1    4    4    0    0  0.85070964118E-01  0.49229794236E-02  0.17435036683E-01  0.86980148813E-01  0.51100000000E-03 0.  1.
         11    1    4    4    0    0  0.40393983163E-01  0.30853763368E-01 -0.54647495038E-02  0.51124878464E-01  0.51100000000E-03 0. -1.
</event>
<event>
 8    1  0.2257781E+004  0.1043930E+01  0.7957747E-01            NaN
         13   -1    0    0    0    0  0.00000000000E+00  0.00000000000E+00  0.74505805969E-08  0.10566000000E+00  0.10566000000E+00 0.  1.
     999900   -1    0    0    0    0 -0.00000000000E+00 -0.00000000000E+00 -0.74505805969E-08  0.93827000000E+00  0.93827000000E+00 0.  1.
     999902    2    1    2    0    0 -0.20809322535E-02  0.12019201870E-01 -0.74269443458E-03  0.10317093990E+01  0.10316370200E+01 0.  0.
     999903    2    3    3    0    0 -0.11506073635E+00 -0.67758720433E-01  0.10738376241E-01  0.14083299460E+00  0.43455752202E-01 0.  0.
         14    1    1    2    0    0  0.20809322535E-02 -0.12019201870E-01  0.74269443458E-03  0.12220600954E-01  0.00000000000E+00 0. -1.
     999901    1    3    3    0    0  0.11297980409E+00  0.79777922303E-01 -0.11481070676E-01  0.89087640445E+00  0.88000000000E+00 0.  1.
        -11    1    4    4    0    0 -0.10676371798E+00 -0.44858714354E-01  0.12076986690E-01  0.11643414644E+00  0.51100000000E-03 0. -1.
         11    1    4    4    0    0 -0.82970183704E-02 -0.22900006079E-01 -0.13386104493E-02  0.24398848153E-01  0.51100000000E-03 0.  1.
</event>
<event>
 8    1  0.2257781E+004  0.1043930E+01  0.7957747E-01            NaN
         13   -1    0    0    0    0  0.00000000000E+00  0.00000000000E+00  0.74505805969E-08  0.10566000000E+00  0.10566000000E+00 0. -1.
     999900   -1    0    0    0    0 -0.00000000000E+00 -0.00000000000E+00 -0.74505805969E-08  0.93827000000E+00  0.93827000000E+00 0. -1.
     999902    2    1    2    0    0 -0.10223868717E-01 -0.10642717532E-02 -0.10750873687E-01  0.10290558126E+01  0.10289483097E+01 0.  0.
     999903    2    3    3    0    0  0.60772359709E-01 -0.10987808460E+00  0.34583678004E-01  0.13836162720E+00  0.46705844578E-01 0.  0.
         14    1    1    2    0    0  0.10223868717E-01  0.10642717532E-02  0.10750873687E-01  0.14874187404E-01  0.00000000000E+00 0. -1.
     999901    1    3    3    0    0 -0.70996228426E-01  0.10881381285E+00 -0.45334551691E-01  0.89069418539E+00  0.88000000000E+00 0.  1.
        -11    1    4    4    0    0  0.43903742114E-02 -0.31035576717E-01 -0.82097813414E-02  0.32405925979E-01  0.51100000000E-03 0.  1.
         11    1    4    4    0    0  0.56381985497E-01 -0.78842507883E-01  0.42793459345E-01  0.10595570122E+00  0.51100000000E-03 0. -1.
</event>
<event>
 8    1  0.2257781E+004  0.1043930E+01  0.7957747E-01            NaN
         13   -1    0    0    0    0  0.00000000000E+00  0.00000000000E+00  0.74505805969E-08  0.10566000000E+00  0.10566000000E+00 0. -1.
     999900   -1    0    0    0    0 -0.00000000000E+00 -0.00000000000E+00 -0.74505805969E-08  0.93827000000E+00  0.93827000000E+00 0. -1.
     999902    2    1    2    0    0  0.87906844779E-02 -0.53871955689E-02  0.97202314934E-02  0.10297602819E+01  0.10296627882E+01 0.  0.
     999903    2    3    3    0    0  0.31650804257E-01  0.12572756195E+00 -0.22722330321E-01  0.13916150329E+00  0.45171079879E-01 0.  0.
         14    1    1    2    0    0 -0.87906844779E-02  0.53871955689E-02 -0.97202314934E-02  0.14169718063E-01  0.00000000000E+00 0. -1.
     999901    1    3    3    0    0 -0.22860119779E-01 -0.13111475752E+00  0.32442561815E-01  0.89059877865E+00  0.88000000000E+00 0. -1.
        -11    1    4    4    0    0  0.36057387262E-03  0.75276911186E-01  0.85069055011E-03  0.75284315542E-01  0.51100000000E-03 0.  1.
         11    1    4    4    0    0  0.31290230385E-01  0.50450650766E-01 -0.23573020871E-01  0.63877187746E-01  0.51100000000E-03 0. -1.
</event>
<event>
 8    1  0.2257781E+004  0.1043930E+01  0.7957747E-01            NaN
         13   -1    0    0    0    0  0.00000000000E+00  0.00000000000E+00  0.74505805969E-08  0.10566000000E+00  0.10566000000E+00 0.  1.
     999900   -1    0    0    0    0 -0.00000000000E+00 -0.00000000000E+00 -0.74505805969E-08  0.93827000000E+00  0.93827000000E+00 0. -1.
     999902    2    1    2    0    0  0.10306898228E-02 -0.13128304902E-01  0.50708618893E-03  0.10307515385E+01  0.10306672898E+01 0.  0.
     999903    2    3    3    0    0 -0.11537630747E+00 -0.58871066150E-02  0.66316568629E-01  0.14062013699E+00  0.45053138655E-01 0.  0.
         14    1    1    2    0    0 -0.10306898228E-02  0.13128304902E-01 -0.50708618893E-03  0.13178461500E-01  0.00000000000E+00 0. -1.
     999901    1    3    3    0    0  0.11640699730E+00 -0.72411982866E-02 -0.65809482440E-01  0.89013140151E+00  0.88000000000E+00 0. -1.
        -11    1    4    4    0    0 -0.27944992919E-01 -0.94192341382E-02  0.39108800591E-01  0.48983711636E-01  0.51100000000E-03 0.  1.
         11    1    4    4    0    0 -0.87431314554E-01  0.35321275232E-02  0.27207768038E-01  0.91636425356E-01  0.51100000000E-03 0. -1.
</event>
<event>
 8    1  0.2257781E+004  0.1043930E+01  0.7957747E-01            NaN
         13   -1    0    0    0    0  0.00000000000E+00  0.00000000000E+00  0.74505805969E-08  0.10566000000E+00  0.10566000000E+00 0.  1.
     999900   -1    0    0    0    0 -0.00000000000E+00 -0.00000000000E+00 -0.74505805969E-08  0.93827000000E+00  0.93827000000E+00 0. -1.
     999902    2    1    2    0    0 -0.11432109024E-01 -0.84194955703E-02 -0.91046570311E-03  0.10297029142E+01  0.10296046239E+01 0.  0.
     999903    2    3    3    0    0  0.30111148504E-01  0.11585398022E-01  0.12678535642E+00  0.13929162665E+00  0.47819744264E-01 0.  0.
         14    1    1    2    0    0  0.11432109024E-01  0.84194955703E-02  0.91046570311E-03  0.14227085794E-01  0.00000000000E+00 0.  1.
     999901    1    3    3    0    0 -0.41543257528E-01 -0.20004893593E-01 -0.12769582212E+00  0.89041128755E+00  0.88000000000E+00 0. -1.
        -11    1    4    4    0    0  0.28996510861E-02 -0.17387600376E-01  0.45758035347E-01  0.49038714737E-01  0.51100000000E-03 0.  1.
         11    1    4    4    0    0  0.27211497418E-01  0.28972998399E-01  0.81027321073E-01  0.90252911916E-01  0.51100000000E-03 0. -1.
</event>
<event>
 7    1  0.2257781E+004  0.1043930E+01  0.7957747E-01            NaN
         13   -1    0    0    0    0  0.00000000000E+00  0.00000000000E+00  0.74505805969E-08  0.10566000000E+00  0.10566000000E+00 0. -1.
     999900   -1    0    0    0    0 -0.00000000000E+00 -0.00000000000E+00 -0.74505805969E-08  0.93827000000E+00  0.93827000000E+00 0. -1.
     999902    2    1    2    0    0  0.13690142262E-01 -0.83807774577E-03  0.53027704239E-02  0.10292248396E+01  0.10291197834E+01 0.  0.
         14    1    1    2    0    0 -0.13690142262E-01  0.83807774577E-03 -0.53027704239E-02  0.14705160442E-01  0.00000000000E+00 0. -1.
     999901    1    3    3    0    0 -0.43572481723E-01  0.69031111786E-01 -0.10047597260E+00  0.88947134672E+00  0.88000000000E+00 0. -1.
        -11    1    3    3    0    0  0.16667506062E-01 -0.12324432439E-01  0.27787134846E-01  0.34671074071E-01  0.51100000000E-03 0. -1.
         11    1    3    3    0    0  0.40595117923E-01 -0.57544757093E-01  0.77991608176E-01  0.10508241877E+00  0.51100000000E-03 0.  1.
</event>
<event>
 8    1  0.2257781E+004  0.1043930E+01  0.7957747E-01            NaN
         13   -1    0    0    0    0  0.00000000000E+00  0.00000000000E+00  0.74505805969E-08  0.10566000000E+00  0.10566000000E+00 0. -1.
     999900   -1    0    0    0    0 -0.00000000000E+00 -0.00000000000E+00 -0.74505805969E-08  0.93827000000E+00  0.93827000000E+00 0.  1.
     999902    2    1    2    0    0 -0.24973751059E-02 -0.51483689931E-02  0.12310226379E-01  0.10303548661E+01  0.10302654347E+01 0.  0.
     999903    2    3    3    0    0 -0.61975799593E-01 -0.84313037936E-01  0.88210586560E-01  0.14155478037E+00  0.36151904024E-01 0.  0.
         14    1    1    2    0    0  0.24973751059E-02  0.51483689931E-02 -0.12310226379E-01  0.13575133856E-01  0.00000000000E+00 0.  1.
     999901    1    3    3    0    0  0.59478424487E-01  0.79164668943E-01 -0.75900360181E-01  0.88880008577E+00  0.88000000000E+00 0. -1.
        -11    1    4    4    0    0 -0.52418433857E-01 -0.85461306166E-01  0.75024324246E-01  0.12522075471E+00  0.51100000000E-03 0.  1.
         11    1    4    4    0    0 -0.95573657359E-02  0.11482682300E-02  0.13186262314E-01  0.16334025669E-01  0.51100000000E-03 0. -1.
</event>
<event>
 8    1  0.2257781E+004  0.1043930E+01  0.7957747E-01            NaN
         13   -1    0    0    0    0  0.00000000000E+00  0.00000000000E+00  0.74505805969E-08  0.10566000000E+00  0.10566000000E+00 0. -1.
     999900   -1    0    0    0    0 -0.00000000000E+00 -0.00000000000E+00 -0.74505805969E-08  0.93827000000E+00  0.93827000000E+00 0. -1.
     999902    2    1    2    0    0 -0.31082751287E-02  0.49070327836E-03  0.13221279038E-01  0.10303394009E+01  0.10302497642E+01 0.  0.
     999903    2    3    3    0    0 -0.80166827968E-01  0.67687411665E-02 -0.10442351210E+00  0.13915045843E+00  0.44565054014E-01 0.  0.
         14    1    1    2    0    0  0.31082751287E-02 -0.49070327836E-03 -0.13221279038E-01  0.13590599081E-01  0.00000000000E+00 0.  1.
     999901    1    3    3    0    0  0.77058552839E-01 -0.62780378882E-02  0.11764479114E+00  0.89118894249E+00  0.88000000000E+00 0.  1.
        -11    1    4    4    0    0 -0.55955098490E-01  0.25285212657E-01 -0.67006576196E-01  0.90887058488E-01  0.51100000000E-03 0. -1.
         11    1    4    4    0    0 -0.24211729478E-01 -0.18516471490E-01 -0.37416935906E-01  0.48263399946E-01  0.51100000000E-03 0.  1.
</event>
<event>
 8    1  0.2257781E+004  0.1043930E+01  0.7957747E-01            NaN
         13   -1    0    0    0    0  0.00000000000E+00  0.00000000000E+00  0.74505805969E-08  0.10566000000E+00  0.10566000000E+00 0.  1.
     999900   -1    0    0    0    0 -0.00000000000E+00 -0.00000000000E+00 -0.74505805969E-08  0.93827000000E+00  0.93827000000E+00 0. -1.
     999902    2    1    2    0    0  0.37816749201E-02  0.93525973609E-02  0.85119029386E-02  0.10307305820E+01  0.10306460635E+01 0.  0.
     999903    2    3    3    0    0  0.17868836797E-01  0.13249993039E+00  0.52602916192E-02  0.14203812302E+00  0.47661628596E-01 0.  0.
         14    1    1    2    0    0 -0.37816749201E-02 -0.93525973609E-02 -0.85119029386E-02  0.13199417951E-01  0.00000000000E+00 0.  1.
     999901    1    3    3    0    0 -0.14087161877E-01 -0.12314733303E+00  0.32516113195E-02  0.88869245903E+00  0.88000000000E+00 0.  1.
        -11    1    4    4    0    0  0.53523340445E-02  0.32866310797E-01  0.22444427063E-01  0.40160369674E-01  0.51100000000E-03 0.  1.
         11    1    4    4    0    0  0.12516502753E-01  0.99633619594E-01 -0.17184135444E-01  0.10187775334E+00  0.51100000000E-03 0. -1.
</event>
<event>
 8    1  0.2257781E+004  0.1043930E+01  0.7957747E-01            NaN
         13   -1    0    0    0    0  0.00000000000E+00  0.00000000000E+00  0.74505805969E-08  0.10566000000E+00  0.10566000000E+00 0. -1.
     999900   -1    0    0    0    0 -0.00000000000E+00 -0.00000000000E+00 -0.74505805969E-08  0.93827000000E+00  0.93827000000E+00 0. -1.
     999902    2    1    2    0    0 -0.23368403875E-02 -0.11379595325E-01 -0.69734299160E-02  0.10303806555E+01  0.10302915657E+01 0.  0.
     999903    2    3    3    0    0 -0.16588997911E-01  0.36715723470E-02  0.13041071333E+00  0.13947995142E+00  0.46465335482E-01 0.  0.
         14    1    1    2    0    0  0.23368403875E-02  0.11379595325E-01  0.69734299160E-02  0.13549344543E-01  0.00000000000E+00 0. -1.
     999901    1    3    3    0    0  0.14252157523E-01 -0.15051167672E-01 -0.13738414324E+00  0.89090070404E+00  0.88000000000E+00 0. -1.
        -11    1    4    4    0    0 -0.29278402784E-01 -0.95086618056E-02  0.73149374399E-01  0.79364548854E-01  0.51100000000E-03 0.  1.
         11    1    4    4    0    0  0.12689404873E-01  0.13180234153E-01  0.57261338930E-01  0.60115402563E-01  0.51100000000E-03 0. -1.
</event>
<event>
 8    1  0.2257781E+004  0.1043930E+01  0.7957747E-01            NaN
         13   -1    0    0    0    0  0.00000000000E+00  0.00000000000E+00  0.74505805969E-08  0.10566000000E+00  0.10566000000E+00 0. -1.
     999900   -1    0    0    0    0 -0.00000000000E+00 -0.00000000000E+00 -0.74505805969E-08  0.93827000000E+00  0.93827000000E+00 0. -1.
     999902    2    1    2    0    0 -0.47922817250E-02  0.13095450269E-01 -0.27249444023E-03  0.10299825617E+01  0.10298881232E+01 0.  0.
     999903    2    3    3    0    0 -0.70676358115E-01  0.92073643078E-01  0.67092752847E-01  0.14143523994E+00  0.45053149361E-01 0.  0.
         14    1    1    2    0    0  0.47922817250E-02 -0.13095450269E-01  0.27249444023E-03  0.13947438298E-01  0.00000000000E+00 0. -1.
     999901    1    3    3    0    0  0.65884076390E-01 -0.78978192809E-01 -0.67365247287E-01  0.88854732176E+00  0.88000000000E+00 0. -1.
        -11    1    4    4    0    0 -0.42878675398E-01  0.74901234825E-01  0.66152221810E-01  0.10874352097E+00  0.51100000000E-03 0. -1.
         11    1    4    4    0    0 -0.27797682717E-01  0.17172408253E-01  0.94053103668E-03  0.32691718971E-01  0.51100000000E-03 0.  1.
</event>
<event>
 8    1  0.2257781E+004  0.1043930E+01  0.7957747E-01            NaN
         13   -1    0    0    0    0  0.00000000000E+00  0.00000000000E+00  0.74505805969E-08  0.10566000000E+00  0.10566000000E+00 0. -1.
     999900   -1    0    0    0    0 -0.00000000000E+00 -0.00000000000E+00 -0.74505805969E-08  0.93827000000E+00  0.93827000000E+00 0. -1.
     999902    2    1    2    0    0  0.20065641761E-01  0.70653408998E-02 -0.25660284553E-02  0.10225025988E+01  0.10222780595E+01 0.  0.
     999903    2    3    3    0    0 -0.20831442720E-01  0.11550182108E+00  0.45689874485E-01  0.13359333798E+00  0.44553289934E-01 0.  0.
         14    1    1    2    0    0 -0.20065641761E-01 -0.70653408998E-02  0.25660284553E-02  0.21427401227E-01  0.00000000000E+00 0.  1.
     999901    1    3    3    0    0  0.40897084481E-01 -0.10843648018E+00 -0.48255902941E-01  0.88890926079E+00  0.88000000000E+00 0. -1.
        -11    1    4    4    0    0 -0.21299284906E-01  0.56690963744E-01  0.24820045594E-02  0.60613087493E-01  0.51100000000E-03 0. -1.
         11    1    4    4    0    0  0.46784218582E-03  0.58810857335E-01  0.43207869926E-01  0.72980250488E-01  0.51100000000E-03 0.  1.
</event>
<event>
 8    1  0.2257781E+004  0.1043930E+01  0.7957747E-01            NaN
         13   -1    0    0    0    0  0.00000000000E+00  0.00000000000E+00  0.74505805969E-08  0.10566000000E+00  0.10566000000E+00 0.  1.
     999900   -1    0    0    0    0 -0.00000000000E+00 -0.00000000000E+00 -0.74505805969E-08  0.93827000000E+00  0.93827000000E+00 0.  1.
     999902    2    1    2    0    0  0.69934327442E-02  0.10439859588E-01 -0.73147099198E-02  0.10293902699E+01  0.10292875808E+01 0.  0.
     999903    2    3    3    0    0  0.59730303278E-01 -0.11525489891E+00 -0.20394667843E-01  0.13879977191E+00  0.44699366384E-01 0.  0.
         14    1    1    2    0    0 -0.69934327442E-02 -0.10439859588E-01  0.73147099198E-02  0.14539730086E-01  0.00000000000E+00 0.  1.
     999901    1    3    3    0    0 -0.52736870534E-01  0.12569475850E+00  0.13079957923E-01  0.89059049800E+00  0.88000000000E+00 0. -1.
        -11    1    4    4    0    0 -0.41417931763E-03 -0.20550711462E-01 -0.16801155294E-01  0.26552650081E-01  0.51100000000E-03 0. -1.
         11    1    4    4    0    0  0.60144482596E-01 -0.94704187446E-01 -0.35935125487E-02  0.11224712183E+00  0.51100000000E-03 0.  1.
</event>
<event>
 8    1  0.2257781E+004  0.1043930E+01  0.7957747E-01            NaN
         13   -1    0    0    0    0  0.00000000000E+00  0.00000000000E+00  0.74505805969E-08  0.10566000000E+00  0.10566000000E+00 0. -1.
     999900   -1    0    0    0    0 -0.00000000000E+00 -0.00000000000E+00 -0.74505805969E-08  0.93827000000E+00  0.93827000000E+00 0. -1.
     999902    2    1    2    0    0 -0.95964780046E-02 -0.93801486363E-02 -0.29653201443E-02  0.10301869035E+01  0.10300952303E+01 0.  0.
     999903    2    3    3    0    0  0.11445471424E+00 -0.15057990928E-01  0.70185947741E-01  0.13846270610E+00  0.30318789831E-01 0.  0.
         14    1    1    2    0    0  0.95964780046E-02  0.93801486363E-02  0.29653201443E-02  0.13743096525E-01  0.00000000000E+00 0. -1.
     999901    1    3    3    0    0 -0.12405119225E+00  0.56778422921E-02 -0.73151267885E-01  0.89172419738E+00  0.88000000000E+00 0. -1.
        -11    1    4    4    0    0  0.64876099735E-01 -0.16086515419E-02  0.23429054826E-01  0.68997665233E-01  0.51100000000E-03 0. -1.
         11    1    4    4    0    0  0.49578614509E-01 -0.13449339387E-01  0.46756892915E-01  0.69465040867E-01  0.51100000000E-03 0.  1.
</event>
<event>
 8    1  0.2257781E+004  0.1043930E+01  0.7957747E-01            NaN
         13   -1    0    0    0    0  0.00000000000E+00  0.00000000000E+00  0.74505805969E-08  0.10566000000E+00  0.10566000000E+00 0. -1.
     999900   -1    0    0    0    0 -0.00000000000E+00 -0.00000000000E+00 -0.74505805969E-08  0.93827000000E+00  0.93827000000E+00 0.  1.
     999902    2    1    2    0    0 -0.20173150464E-01 -0.47496539230E-02  0.11838935518E-01  0.10200621219E+01  0.10197828479E+01 0.  0.
     999903    2    3    3    0    0 -0.56228287665E-01  0.12438942492E-01  0.11174724638E+00  0.13350863147E+00  0.44952863989E-01 0.  0.
         14    1    1    2    0    0  0.20173150464E-01  0.47496539230E-02 -0.11838935518E-01  0.23867878125E-01  0.00000000000E+00 0. -1.
     999901    1    3    3    0    0  0.36055137201E-01 -0.17188596415E-01 -0.99908310859E-01  0.88655349040E+00  0.88000000000E+00 0.  1.
        -11    1    4    4    0    0 -0.30094458651E-01  0.28480650460E-01  0.74610382706E-01  0.85345147611E-01  0.51100000000E-03 0. -1.
         11    1    4    4    0    0 -0.26133829014E-01 -0.16041707967E-01  0.37136863671E-01  0.48163483862E-01  0.51100000000E-03 0.  1.
</event>
<event>
 8    1  0.2257781E+004  0.1043930E+01  0.7957747E-01            NaN
         13   -1    0    0    0    0  0.00000000000E+00  0.00000000000E+00  0.74505805969E-08  0.10566000000E+00  0.10566000000E+00 0.  1.
     999900   -1    0    0    0    0 -0.00000000000E+00 -0.00000000000E+00 -0.74505805969E-08  0.93827000000E+00  0.93827000000E+00 0.  1.
     999902    2    1    2    0    0 -0.74299310150E-02 -0.88257463662E-02 -0.68516942795E-02  0.10305119752E+01  0.10304246153E+01 0.  0.
     999903    2    3    3    0    0 -0.24498392999E-02  0.34994017724E-01 -0.12859738734E+00  0.14103629440E+00  0.46079988267E-01 0.  0.
         14    1    1    2    0    0  0.74299310150E-02  0.88257463662E-02  0.68516942795E-02  0.13418024754E-01  0.00000000000E+00 0.  1.
     999901    1    3    3    0    0 -0.49800917151E-02 -0.43819764090E-01  0.12174569306E+00  0.88947568085E+00  0.88000000000E+00 0. -1.
        -11    1    4    4    0    0 -0.84667814256E-02 -0.29002404418E-02 -0.26124469743E-02  0.93372256331E-02  0.51100000000E-03 0.  1.
         11    1    4    4    0    0  0.60169421257E-02  0.37894258166E-01 -0.12598494036E+00  0.13169906877E+00  0.51100000000E-03 0. -1.
</event>
<event>
 8    1  0.2257781E+004  0.1043930E+01  0.7957747E-01            NaN
         13   -1    0    0    0    0  0.00000000000E+00  0.00000000000E+00  0.74505805969E-08  0.10566000000E+00  0.10566000000E+00 0.  1.
     999900   -1    0    0    0    0 -0.00000000000E+00 -0.00000000000E+00 -0.74505805969E-08  0.93827000000E+00  0.93827000000E+00 0. -1.
     999902    2    1    2    0    0  0.83874076878E-02 -0.11161986232E-01 -0.21808160597E-03  0.10299662575E+01  0.10298715966E+01 0.  0.
     999903    2    3    3    0    0 -0.99275606216E-02 -0.65775766129E-01 -0.11533122714E+00  0.14060179944E+00  0.45194758367E-01 0.  0.
         14    1    1    2    0    0 -0.83874076878E-02  0.11161986232E-01  0.21808160597E-03  0.13963742477E-01  0.00000000000E+00 0.  1.
     999901    1    3    3    0    0  0.18314968309E-01  0.54613779897E-01  0.11511314553E+00  0.88936445808E+00  0.88000000000E+00 0.  1.
        -11    1    4    4    0    0 -0.24406635985E-01 -0.50208204678E-01 -0.63355040826E-01  0.84443294679E-01  0.51100000000E-03 0. -1.
         11    1    4    4    0    0  0.14479075363E-01 -0.15567561450E-01 -0.51976186313E-01  0.56158504766E-01  0.51100000000E-03 0.  1.
</event>
<event>
 8    1  0.2257781E+004  0.1043930E+01  0.7957747E-01            NaN
         13   -1    0    0    0    0  0.00000000000E+00  0.00000000000E+00  0.74505805969E-08  0.10566000000E+00  0.10566000000E+00 0.  1.
     999900   -1    0    0    0    0 -0.00000000000E+00 -0.00000000000E+00 -0.74505805969E-08  0.93827000000E+00  0.93827000000E+00 0. -1.
     999902    2    1    2    0    0 -0.93906098224E-02 -0.38804283369E-02 -0.97399718407E-02  0.10298549040E+01  0.10297587168E+01 0.  0.
     999903    2    3    3    0    0 -0.65049679262E-01  0.45411484143E-01 -0.10794790376E+00  0.14127602590E+00  0.44860917328E-01 0.  0.
         14    1    1    2    0    0  0.93906098224E-02  0.38804283369E-02  0.97399718407E-02  0.14075096034E-01  0.00000000000E+00 0. -1.
     999901    1    3    3    0    0  0.55659069440E-01 -0.49291912480E-01  0.98207931924E-01  0.88857887806E+00  0.88000000000E+00 0.  1.
        -11    1    4    4    0    0 -0.25121270859E-01  0.27321371905E-01 -0.18084205923E-01  0.41289650485E-01  0.51100000000E-03 0. -1.
         11    1    4    4    0    0 -0.39928408403E-01  0.18090112238E-01 -0.89863697841E-01  0.99986375418E-01  0.51100000000E-03 0.  1.
</event>
<event>
 8    1  0.2257781E+004  0.1043930E+01  0.7957747E-01            NaN
         13   -1    0    0    0    0  0.00000000000E+00  0.00000000000E+00  0.74505805969E-08  0.10566000000E+00  0.10566000000E+00 0. -1.
     999900   -1    0    0    0    0 -0.00000000000E+00 -0.00000000000E+00 -0.74505805969E-08  0.93827000000E+00  0.93827000000E+00 0.  1.
     999902    2    1    2    0    0  0.86495835093E-03  0.13874347796E-01  0.33035739372E-02  0.10296415683E+01  0.10295424226E+01 0.  0.
     999903    2    3    3    0    0 -0.73498136575E-02 -0.68439635799E-01 -0.11134250310E+00  0.13835777660E+00  0.44807564530E-01 0.  0.
         14    1    1    2    0    0 -0.86495835093E-03 -0.13874347796E-01 -0.33035739372E-02  0.14288431700E-01  0.00000000000E+00 0. -1.
     999901    1    3    3    0    0  0.82147720085E-02  0.82313983595E-01  0.11464607704E+00  0.89128379170E+00  0.88000000000E+00 0. -1.
        -11    1    4    4    0    0 -0.15439877413E-01 -0.31735648507E-01 -0.22413472652E-01  0.41811076020E-01  0.51100000000E-03 0. -1.
         11    1    4    4    0    0  0.80900637555E-02 -0.36703987293E-01 -0.88929030447E-01  0.96546700575E-01  0.51100000000E-03 0.  1.
</event>
<event>
 8    1  0.2257781E+004  0.1043930E+01  0.7957747E-01            NaN
         13   -1    0    0    0    0  0.00000000000E+00  0.00000000000E+00  0.74505805969E-08  0.10566000000E+00  0.10566000000E+00 0.  1.
     999900   -1    0    0    0    0 -0.00000000000E+00 -0.00000000000E+00 -0.74505805969E-08  0.93827000000E+00  0.93827000000E+00 0. -1.
     999902    2    1    2    0    0  0.44527484520E-02  0.11070752375E-01  0.67702025858E-02  0.10302105186E+01  0.10301191623E+01 0.  0.
     999903    2    3    3    0    0  0.96409563077E-01  0.21663502610E-01  0.90778122493E-01  0.14137667995E+00  0.44526249704E-01 0.  0.
         14    1    1    2    0    0 -0.44527484520E-02 -0.11070752375E-01 -0.67702025858E-02  0.13719481403E-01  0.00000000000E+00 0.  1.
     999901    1    3    3    0    0 -0.91956814625E-01 -0.10592750235E-01 -0.84007919908E-01  0.88883383865E+00  0.88000000000E+00 0. -1.
        -11    1    4    4    0    0  0.72195560212E-02  0.38869837483E-02  0.32122761668E-01  0.33156651971E-01  0.51100000000E-03 0.  1.
         11    1    4    4    0    0  0.89190007056E-01  0.17776518861E-01  0.58655360826E-01  0.10822002798E+00  0.51100000000E-03 0. -1.
</event>
<event>
 8    1  0.2257781E+004  0.1043930E+01  0.7957747E-01            NaN
         13   -1    0    0    0    0  0.00000000000E+00  0.00000000000E+00  0.74505805969E-08  0.10566000000E+00  0.10566000000E+00 0.  1.
     999900   -1    0    0    0    0 -0.00000000000E+00 -0.00000000000E+00 -0.74505805969E-08  0.93827000000E+00  0.93827000000E+00 0.  1.
     999902    2    1    2    0    0  0.26035139071E-02 -0.10062534941E-01 -0.85055797467E-02  0.10304995205E+01  0.10304119971E+01 0.  0.
     999903    2    3    3    0    0  0.13478822738E-01 -0.58426265695E-01 -0.12067298655E+00  0.14199580637E+00  0.44783168240E-01 0.  0.
         14    1    1    2    0    0 -0.26035139071E-02  0.10062534941E-01  0.85055797467E-02  0.13430479549E-01  0.00000000000E+00 0. -1.
     999901    1    3    3    0    0 -0.10875308831E-01  0.48363730755E-01  0.11216740680E+00  0.88850371409E+00  0.88000000000E+00 0. -1.
        -11    1    4    4    0    0 -0.11368070482E-01 -0.74141648563E-02 -0.77999044106E-02  0.15662135768E-01  0.51100000000E-03 0. -1.
         11    1    4    4    0    0  0.24846893220E-01 -0.51012100839E-01 -0.11287308214E+00  0.12633367060E+00  0.51100000000E-03 0.  1.
</event>
<event>
 8    1  0.2257781E+004  0.1043930E+01  0.7957747E-01            NaN
         13   -1    0    0    0    0  0.00000000000E+00  0.00000000000E+00  0.74505805969E-08  0.10566000000E+00  0.10566000000E+00 0.  1.
     999900   -1    0    0    0    0 -0.00000000000E+00 -0.00000000000E+00 -0.74505805969E-08  0.93827000000E+00  0.93827000000E+00 0.  1.
     999902    2    1    2    0    0 -0.68963073414E-02  0.17481714575E-02  0.12284215474E-01  0.10297343278E+01  0.10296364741E+01 0.  0.
     999903    2    3    3    0    0 -0.10208397580E+00 -0.12492046978E-01  0.86304476123E-01  0.14139741256E+00  0.44357370627E-01 0.  0.
         14    1    1    2    0    0  0.68963073414E-02 -0.17481714575E-02 -0.12284215474E-01  0.14195672165E-01  0.00000000000E+00 0. -1.
     999901    1    3    3    0    0  0.95187668454E-01  0.14240218435E-01 -0.74020260649E-01  0.88833691527E+00  0.88000000000E+00 0.  1.
        -11    1    4    4    0    0 -0.21742618259E-01 -0.17886473426E-01  0.84706412856E-02  0.29405446182E-01  0.51100000000E-03 0.  1.
         11    1    4    4    0    0 -0.80341357537E-01  0.53944264483E-02  0.77833834838E-01  0.11199196638E+00  0.51100000000E-03 0. -1.
</event>
<event>
 8    1  0.2257781E+004  0.1043930E+01  0.7957747E-01            NaN
         13   -1    0    0    0    0  0.00000000000E+00  0.00000000000E+00  0.74505805969E-08  0.10566000000E+00  0.10566000000E+00 0. -1.
     999900   -1    0    0    0    0 -0.00000000000E+00 -0.00000000000E+00 -0.74505805969E-08  0.93827000000E+00  0.93827000000E+00 0.  1.
     999902    2    1    2    0    0 -0.97677981369E-02  0.79455683741E-02 -0.39927639589E-02  0.10307207570E+01  0.10306361117E+01 0.  0.
     999903    2    3    3    0    0  0.11254818748E+00  0.38068675605E-01  0.57378057571E-01  0.13963435283E+00  0.45707684589E-01 0.  0.
         14    1    1    2    0    0  0.97677981369E-02 -0.79455683741E-02  0.39927639589E-02  0.13209243024E-01  0.00000000000E+00 0. -1.
     999901    1    3    3    0    0 -0.12231598562E+00 -0.30123107231E-01 -0.61370821530E-01  0.89108640415E+00  0.88000000000E+00 0.  1.
        -11    1    4    4    0    0  0.59221442725E-01  0.26005780957E-01  0.55003124534E-01  0.84906329276E-01  0.51100000000E-03 0. -1.
         11    1    4    4    0    0  0.53326744757E-01  0.12062894649E-01  0.23749330370E-02  0.54728023549E-01  0.51100000000E-03 0.  1.
</event>
<event>
 8    1  0.2257781E+004  0.1043930E+01  0.7957747E-01            NaN
         13   -1    0    0    0    0  0.00000000000E+00  0.00000000000E+00  0.74505805969E-08  0.10566000000E+00  0.10566000000E+00 0.  1.
     999900   -1    0    0    0    0 -0.00000000000E+00 -0.00000000000E+00 -0.74505805969E-08  0.93827000000E+00  0.93827000000E+00 0.  1.
     999902    2    1    2    0    0 -0.12190627098E-01 -0.57909314308E-02 -0.17960758477E-02  0.10303148553E+01  0.10302248924E+01 0.  0.
     999903    2    3    3    0    0  0.10405960227E+00  0.19869467948E-01 -0.78100241001E-01  0.13902651953E+00  0.44783131938E-01 0.  0.
         14    1    1    2    0    0  0.12190627098E-01  0.57909314308E-02  0.17960758477E-02  0.13615144668E-01  0.00000000000E+00 0. -1.
     999901    1    3    3    0    0 -0.11625022937E+00 -0.25660399379E-01  0.76304165154E-01  0.89128833581E+00  0.88000000000E+00 0.  1.
        -11    1    4    4    0    0  0.46251071612E-01  0.20851843767E-01 -0.59706044835E-01  0.78351987369E-01  0.51100000000E-03 0. -1.
         11    1    4    4    0    0  0.57808530657E-01 -0.98237581930E-03 -0.18394196166E-01  0.60674532157E-01  0.51100000000E-03 0.  1.
</event>
<event>
 8    1  0.2257781E+004  0.1043930E+01  0.7957747E-01            NaN
         13   -1    0    0    0    0  0.00000000000E+00  0.00000000000E+00  0.74505805969E-08  0.10566000000E+00  0.10566000000E+00 0.  1.
     999900   -1    0    0    0    0 -0.00000000000E+00 -0.00000000000E+00 -0.74505805969E-08  0.93827000000E+00  0.93827000000E+00 0. -1.
     999902    2    1    2    0    0  0.23299758041E-02  0.66338110431E-02 -0.11953876306E-01  0.10300616405E+01  0.10299682771E+01 0.  0.
     999903    2    3    3    0    0  0.13106425903E+00  0.22288382326E-01 -0.11018434379E-01  0.14055702763E+00  0.44274825123E-01 0.  0.
         14    1    1    2    0    0 -0.23299758041E-02 -0.66338110431E-02  0.11953876306E-01  0.13868359490E-01  0.00000000000E+00 0.  1.
     999901    1    3    3    0    0 -0.12873428322E+00 -0.15654571283E-01 -0.93544192679E-03  0.88950461288E+00  0.88000000000E+00 0. -1.
        -11    1    4    4    0    0  0.30436380650E-01 -0.82240842276E-02 -0.15852285955E-01  0.35292561815E-01  0.51100000000E-03 0.  1.
         11    1    4    4    0    0  0.10062787838E+00  0.30512466553E-01  0.48338515758E-02  0.10526446582E+00  0.51100000000E-03 0. -1.
</event>
<event>
 8    1  0.2257781E+004  0.1043930E+01  0.7957747E-01            NaN
         13   -1    0    0    0    0  0.00000000000E+00  0.00000000000E+00  0.74505805969E-08  0.10566000000E+00  0.10566000000E+00 0. -1.
     999900   -1    0    0    0    0 -0.00000000000E+00 -0.00000000000E+00 -0.74505805969E-08  0.93827000000E+00  0.93827000000E+00 0.  1.
     999902    2    1    2    0    0 -0.74882366093E-02  0.28788469226E-02  0.84442246667E-02  0.10322824089E+01  0.10322166950E+01 0.  0.
     999903    2    3    3    0    0  0.94982117602E-01  0.56104278408E-01  0.77466705814E-01  0.14205927796E+00  0.44838100133E-01 0.  0.
         14    1    1    2    0    0  0.74882366093E-02 -0.28788469226E-02 -0.84442246667E-02  0.11647591053E-01  0.00000000000E+00 0.  1.
     999901    1    3    3    0    0 -0.10247035421E+00 -0.53225431485E-01 -0.69022481148E-01  0.89022313099E+00  0.88000000000E+00 0.  1.
        -11    1    4    4    0    0  0.45526066250E-01  0.48799510975E-01  0.30190860773E-01  0.73251376607E-01  0.51100000000E-03 0.  1.
         11    1    4    4    0    0  0.49456051352E-01  0.73047674332E-02  0.47275845041E-01  0.68807901348E-01  0.51100000000E-03 0. -1.
</event>
<event>
 8    1  0.2257781E+004  0.1043930E+01  0.7957747E-01            NaN
         13   -1    0    0    0    0  0.00000000000E+00  0.00000000000E+00  0.74505805969E-08  0.10566000000E+00  0.10566000000E+00 0. -1.
     999900   -1    0    0    0    0 -0.00000000000E+00 -0.00000000000E+00 -0.74505805969E-08  0.93827000000E+00  0.93827000000E+00 0. -1.
     999902    2    1    2    0    0  0.84958891011E-02  0.14245244174E-02 -0.12536479991E-01  0.10287190588E+01  0.10286065959E+01 0.  0.
     999903    2    3    3    0    0 -0.83071158403E-01  0.71183230329E-01  0.68690354434E-01  0.13751279768E+00  0.47154375143E-01 0.  0.
         14    1    1    2    0    0 -0.84958891011E-02 -0.14245244174E-02  0.12536479991E-01  0.15210941194E-01  0.00000000000E+00 0. -1.
     999901    1    3    3    0    0  0.91567047504E-01 -0.69758705912E-01 -0.81226834425E-01  0.89120626113E+00  0.88000000000E+00 0. -1.
        -11    1    4    4    0    0 -0.69176473385E-01  0.29632287502E-01  0.41401371059E-01  0.85894071851E-01  0.51100000000E-03 0.  1.
         11    1    4    4    0    0 -0.13894685018E-01  0.41550942828E-01  0.27288983376E-01  0.51618725830E-01  0.51100000000E-03 0. -1.
</event>
<event>
 8    1  0.2257781E+004  0.1043930E+01  0.7957747E-01            NaN
         13   -1    0    0    0    0  0.00000000000E+00  0.00000000000E+00  0.74505805969E-08  0.10566000000E+00  0.10566000000E+00 0.  1.
     999900   -1    0    0    0    0 -0.00000000000E+00 -0.00000000000E+00 -0.74505805969E-08  0.93827000000E+00  0.93827000000E+00 0.  1.
     999902    2    1    2    0    0 -0.12894268467E-01 -0.70030850147E-02  0.33865746685E-04  0.10292566737E+01  0.10291520751E+01 0.  0.
     999903    2    3    3    0    0 -0.13251160050E+00  0.82251107773E-02  0.14109007446E-01  0.14092210060E+00  0.45088775026E-01 0.  0.
         14    1    1    2    0    0  0.12894268467E-01  0.70030850147E-02 -0.33865746685E-04  0.14673326341E-01  0.00000000000E+00 0. -1.
     999901    1    3    3    0    0  0.11961733203E+00 -0.15228195792E-01 -0.14075141700E-01  0.88833457305E+00  0.88000000000E+00 0. -1.
        -11    1    4    4    0    0 -0.45682397215E-01  0.11755538491E-01 -0.14631425757E-01  0.49390422566E-01  0.51100000000E-03 0. -1.
         11    1    4    4    0    0 -0.86829203284E-01 -0.35304277136E-02  0.28740433203E-01  0.91531678039E-01  0.51100000000E-03 0.  1.
</event>
<event>
 8    1  0.2257781E+004  0.1043930E+01  0.7957747E-01            NaN
         13   -1    0    0    0    0  0.00000000000E+00  0.00000000000E+00  0.74505805969E-08  0.10566000000E+00  0.10566000000E+00 0. -1.
     999900   -1    0    0    0    0 -0.00000000000E+00 -0.00000000000E+00 -0.74505805969E-08  0.93827000000E+00  0.93827000000E+00 0. -1.
     999902    2    1    2    0    0 -0.11963104756E-01  0.49696880874E-02  0.40942808746E-02  0.10303440951E+01  0.10302545208E+01 0.  0.
     999903    2    3    3    0    0  0.45695348739E-01 -0.77792097351E-01  0.96921656456E-01  0.13973142284E+00  0.44624967600E-01 0.  0.
         14    1    1    2    0    0  0.11963104756E-01 -0.49696880874E-02 -0.40942808746E-02  0.13585904864E-01  0.00000000000E+00 0. -1.
     999901    1    3    3    0    0 -0.57658453495E-01  0.82761785439E-01 -0.92827375582E-01  0.89061267229E+00  0.88000000000E+00 0. -1.
        -11    1    4    4    0    0  0.56747245971E-02 -0.29493888695E-01  0.59598224993E-01  0.66740553736E-01  0.51100000000E-03 0.  1.
         11    1    4    4    0    0  0.40020624142E-01 -0.48298208656E-01  0.37323431463E-01  0.72990869109E-01  0.51100000000E-03 0. -1.
</event>
<event>
 8    1  0.2257781E+004  0.1043930E+01  0.7957747E-01            NaN
         13   -1    0    0    0    0  0.00000000000E+00  0.00000000000E+00  0.74505805969E-08  0.10566000000E+00  0.10566000000E+00 0. -1.
     999900   -1    0    0    0    0 -0.00000000000E+00 -0.00000000000E+00 -0.74505805969E-08  0.93827000000E+00  0.93827000000E+00 0.  1.
     999902    2    1    2    0    0  0.11051670439E-01 -0.66464348055E-02 -0.44433149949E-02  0.10302897081E+01  0.10301994103E+01 0.  0.
     999903    2    3    3    0    0 -0.14680362034E-01 -0.70350601875E-01 -0.11269958125E+00  0.14099798004E+00  0.44883343778E-01 0.  0.
         14    1    1    2    0    0 -0.11051670439E-01  0.66464348055E-02  0.44433149949E-02  0.13640291906E-01  0.00000000000E+00 0.  1.
     999901    1    3    3    0    0  0.25732032473E-01  0.63704167070E-01  0.10825626625E+00  0.88929172805E+00  0.88000000000E+00 0. -1.
        -11    1    4    4    0    0 -0.13800012869E-01 -0.22164828989E-01 -0.10770714548E-01  0.28248706380E-01  0.51100000000E-03 0. -1.
         11    1    4    4    0    0 -0.88034916451E-03 -0.48185772886E-01 -0.10192886670E+00  0.11274927366E+00  0.51100000000E-03 0.  1.
</event>
<event>
 8    1  0.2257781E+004  0.1043930E+01  0.7957747E-01            NaN
         13   -1    0    0    0    0  0.00000000000E+00  0.00000000000E+00  0.74505805969E-08  0.10566000000E+00  0.10566000000E+00 0.  1.
     999900   -1    0    0    0    0 -0.00000000000E+00 -0.00000000000E+00 -0.74505805969E-08  0.93827000000E+00  0.93827000000E+00 0. -1.
     999902    2    1    2    0    0  0.29374651680E-02 -0.98535989374E-02 -0.97857124443E-02  0.10297355545E+01  0.10296377179E+01 0.  0.
     999903    2    3    3    0    0  0.10749794781E-01  0.12982117499E+00 -0.15189879382E-01  0.13866918217E+00  0.45047908773E-01 0.  0.
         14    1    1    2    0    0 -0.29374651680E-02  0.98535989374E-02  0.97857124443E-02  0.14194445451E-01  0.00000000000E+00 0.  1.
     999901    1    3    3    0    0 -0.78123296132E-02 -0.13967477393E+00  0.54041669381E-02  0.89106637238E+00  0.88000000000E+00 0.  1.
        -11    1    4    4    0    0  0.25998390548E-01  0.68620474093E-01  0.15974390363E-02  0.73399582480E-01  0.51100000000E-03 0. -1.
         11    1    4    4    0    0 -0.15248595767E-01  0.61200700895E-01 -0.16787318419E-01  0.65269599689E-01  0.51100000000E-03 0.  1.
</event>
<event>
 8    1  0.2257781E+004  0.1043930E+01  0.7957747E-01            NaN
         13   -1    0    0    0    0  0.00000000000E+00  0.00000000000E+00  0.74505805969E-08  0.10566000000E+00  0.10566000000E+00 0. -1.
     999900   -1    0    0    0    0 -0.00000000000E+00 -0.00000000000E+00 -0.74505805969E-08  0.93827000000E+00  0.93827000000E+00 0. -1.
     999902    2    1    2    0    0 -0.35308307237E-02 -0.54663404421E-02 -0.12692772761E-01  0.10296662654E+01  0.10295674645E+01 0.  0.
     999903    2    3    3    0    0 -0.10878789008E+00 -0.76051407924E-01  0.58596061989E-02  0.14039381502E+00  0.45359305936E-01 0.  0.
         14    1    1    2    0    0  0.35308307237E-02  0.54663404421E-02  0.12692772761E-01  0.14263734567E-01  0.00000000000E+00 0. -1.
     999901    1    3    3    0    0  0.10525705936E+00  0.70585067482E-01 -0.18552378960E-01  0.88927245041E+00  0.88000000000E+00 0.  1.
        -11    1    4    4    0    0 -0.32752278170E-01 -0.47543190702E-01 -0.70657187944E-02  0.58165730551E-01  0.51100000000E-03 0. -1.
         11    1    4    4    0    0 -0.76035611915E-01 -0.28508217223E-01  0.12925324993E-01  0.82228084470E-01  0.51100000000E-03 0.  1.
</event>
<event>
 8    1  0.2257781E+004  0.1043930E+01  0.7957747E-01            NaN
         13   -1    0    0    0    0  0.00000000000E+00  0.00000000000E+00  0.74505805969E-08  0.10566000000E+00  0.10566000000E+00 0. -1.
     999900   -1    0    0    0    0 -0.00000000000E+00 -0.00000000000E+00 -0.74505805969E-08  0.93827000000E+00  0.93827000000E+00 0.  1.
     999902    2    1    2    0    0 -0.10623126493E-01  0.12508061377E-01 -0.15894012138E-02  0.10274427743E+01  0.10273104817E+01 0.  0.
     999903    2    3    3    0    0 -0.11729676957E+00 -0.10644736369E-01 -0.58433148144E-01  0.13887846612E+00  0.44732012979E-01 0.  0.
         14    1    1    2    0    0  0.10623126493E-01 -0.12508061377E-01  0.15894012138E-02  0.16487225725E-01  0.00000000000E+00 0.  1.
     999901    1    3    3    0    0  0.10667364307E+00  0.23152797746E-01  0.56843746930E-01  0.88856430816E+00  0.88000000000E+00 0. -1.
        -11    1    4    4    0    0 -0.60817495449E-01 -0.26941602925E-01 -0.38201300729E-01  0.76708658046E-01  0.51100000000E-03 0. -1.
         11    1    4    4    0    0 -0.56479274119E-01  0.16296866556E-01 -0.20231847415E-01  0.62169808069E-01  0.51100000000E-03 0.  1.
</event>
<event>
 8    1  0.2257781E+004  0.1043930E+01  0.7957747E-01            NaN
         13   -1    0    0    0    0  0.00000000000E+00  0.00000000000E+00  0.74505805969E-08  0.10566000000E+00  0.10566000000E+00 0.  1.
     999900   -1    0    0    0    0 -0.00000000000E+00 -0.00000000000E+00 -0.74505805969E-08  0.93827000000E+00  0.93827000000E+00 0. -1.
     999902    2    1    2    0    0 -0.15684419470E-02 -0.94512470649E-02 -0.15114442223E-01  0.10260349603E+01  0.10258788951E+01 0.  0.
     999903    2    3    3    0    0 -0.61016687207E-01 -0.79748471696E-01 -0.84304580499E-01  0.13853111871E+00  0.44729785394E-01 0.  0.
         14    1    1    2    0    0  0.15684419470E-02  0.94512470649E-02  0.15114442223E-01  0.17895039674E-01  0.00000000000E+00 0.  1.
     999901    1    3    3    0    0  0.59448245260E-01  0.70297224631E-01  0.69190138276E-01  0.88750384162E+00  0.88000000000E+00 0.  1.
        -11    1    4    4    0    0 -0.90786366227E-02 -0.26952088842E-01 -0.48598043328E-01  0.56310457929E-01  0.51100000000E-03 0.  1.
         11    1    4    4    0    0 -0.51938050584E-01 -0.52796382853E-01 -0.35706537171E-01  0.82220660777E-01  0.51100000000E-03 0. -1.
</event>
<event>
 8    1  0.2257781E+004  0.1043930E+01  0.7957747E-01            NaN
         13   -1    0    0    0    0  0.00000000000E+00  0.00000000000E+00  0.74505805969E-08  0.10566000000E+00  0.10566000000E+00 0.  1.
     999900   -1    0    0    0    0 -0.00000000000E+00 -0.00000000000E+00 -0.74505805969E-08  0.93827000000E+00  0.93827000000E+00 0.  1.
     999902    2    1    2    0    0  0.25610948286E-02  0.13219619560E-01 -0.61117270009E-02  0.10291424798E+01  0.10290362350E+01 0.  0.
     999903    2    3    3    0    0 -0.87551872700E-01 -0.88811989391E-01  0.37697496018E-01  0.13759884977E+00  0.44265589116E-01 0.  0.
         14    1    1    2    0    0 -0.25610948286E-02 -0.13219619560E-01  0.61117270009E-02  0.14787520244E-01  0.00000000000E+00 0.  1.
     999901    1    3    3    0    0  0.90112967529E-01  0.10203160895E+00 -0.43809223018E-01  0.89154362998E+00  0.88000000000E+00 0. -1.
        -11    1    4    4    0    0 -0.53121349540E-01 -0.56786179289E-01  0.70035241366E-03  0.77764384841E-01  0.51100000000E-03 0. -1.
         11    1    4    4    0    0 -0.34430523160E-01 -0.32025810102E-01  0.36997143604E-01  0.59834464931E-01  0.51100000000E-03 0.  1.
</event>
<event>
 8    1  0.2257781E+004  0.1043930E+01  0.7957747E-01            NaN
         13   -1    0    0    0    0  0.00000000000E+00  0.00000000000E+00  0.74505805969E-08  0.10566000000E+00  0.10566000000E+00 0.  1.
     999900   -1    0    0    0    0 -0.00000000000E+00 -0.00000000000E+00 -0.74505805969E-08  0.93827000000E+00  0.93827000000E+00 0.  1.
     999902    2    1    2    0    0  0.83540399360E-02  0.11724693880E-01  0.18730230926E-02  0.10294121956E+01  0.10293098182E+01 0.  0.
     999903    2    3    3    0    0  0.95089534509E-01 -0.21766337905E-01  0.90120129139E-01  0.14012470159E+00  0.44693414293E-01 0.  0.
         14    1    1    2    0    0 -0.83540399360E-02 -0.11724693880E-01 -0.18730230926E-02  0.14517804426E-01  0.00000000000E+00 0. -1.
     999901    1    3    3    0    0 -0.86735494572E-01  0.33491031786E-01 -0.88247106046E-01  0.88928749398E+00  0.88000000000E+00 0.  1.
        -11    1    4    4    0    0  0.86197855721E-01 -0.28780967839E-01  0.62573558283E-01  0.11033642081E+00  0.51100000000E-03 0. -1.
         11    1    4    4    0    0  0.88916787870E-02  0.70146299340E-02  0.27546570856E-01  0.29788280778E-01  0.51100000000E-03 0.  1.
</event>
<event>
 8    1  0.2257781E+004  0.1043930E+01  0.7957747E-01            NaN
         13   -1    0    0    0    0  0.00000000000E+00  0.00000000000E+00  0.74505805969E-08  0.10566000000E+00  0.10566000000E+00 0.  1.
     999900   -1    0    0    0    0 -0.00000000000E+00 -0.00000000000E+00 -0.74505805969E-08  0.93827000000E+00  0.93827000000E+00 0.  1.
     999902    2    1    2    0    0  0.12330621411E-03  0.12137176293E-01 -0.28622419100E-02  0.10314592870E+01  0.10313838966E+01 0.  0.
     999903    2    3    3    0    0  0.70462174078E-01 -0.65778730853E-01 -0.92146823255E-01  0.14073476095E+00  0.44983068995E-01 0.  0.
         14    1    1    2    0    0 -0.12330621411E-03 -0.12137176293E-01  0.28622419100E-02  0.12470712953E-01  0.00000000000E+00 0.  1.
     999901    1    3    3    0    0 -0.70338867864E-01  0.77915907146E-01  0.89284581345E-01  0.89072452609E+00  0.88000000000E+00 0.  1.
        -11    1    4    4    0    0  0.12977278587E-01 -0.17087903104E-01 -0.49995841645E-01  0.54408193269E-01  0.51100000000E-03 0. -1.
         11    1    4    4    0    0  0.57484895491E-01 -0.48690827749E-01 -0.42150981611E-01  0.86326567685E-01  0.51100000000E-03 0.  1.
</event>
<event>
 8    1  0.2257781E+004  0.1043930E+01  0.7957747E-01            NaN
         13   -1    0    0    0    0  0.00000000000E+00  0.00000000000E+00  0.74505805969E-08  0.10566000000E+00  0.10566000000E+00 0.  1.
     999900   -1    0    0    0    0 -0.00000000000E+00 -0.00000000000E+00 -0.74505805969E-08  0.93827000000E+00  0.93827000000E+00 0. -1.
     999902    2    1    2    0    0  0.13177114041E-01  0.51334986919E-02 -0.32582556778E-02  0.10294177509E+01  0.10293154524E+01 0.  0.
     999903    2    3    3    0    0 -0.84129727394E-01  0.28174551104E-01 -0.96955123799E-01  0.13881199382E+00  0.44686208566E-01 0.  0.
         14    1    1    2    0    0 -0.13177114041E-01 -0.51334986919E-02  0.32582556778E-02  0.14512249079E-01  0.00000000000E+00 0.  1.
     999901    1    3    3    0    0  0.97306841435E-01 -0.23041052412E-01  0.93696868121E-01  0.89060575710E+00  0.88000000000E+00 0.  1.
        -11    1    4    4    0    0 -0.57286260125E-01  0.41402846378E-02 -0.81254049273E-01  0.99505473217E-01  0.51100000000E-03 0.  1.
         11    1    4    4    0    0 -0.26843467269E-01  0.24034266466E-01 -0.15701074526E-01  0.39306520603E-01  0.51100000000E-03 0. -1.
</event>
<event>
 8    1  0.2257781E+004  0.1043930E+01  0.7957747E-01            NaN
         13   -1    0    0    0    0  0.00000000000E+00  0.00000000000E+00  0.74505805969E-08  0.10566000000E+00  0.10566000000E+00 0. -1.
     999900   -1    0    0    0    0 -0.00000000000E+00 -0.00000000000E+00 -0.74505805969E-08  0.93827000000E+00  0.93827000000E+00 0.  1.
     999902    2    1    2    0    0  0.14184967874E-01  0.51834662338E-02  0.11283683067E-01  0.10250778611E+01  0.10249044923E+01 0.  0.
     999903    2    3    3    0    0  0.21271154910E-02 -0.11282089247E+00  0.59664548303E-01  0.13580224099E+00  0.46360672298E-01 0.  0.
         14    1    1    2    0    0 -0.14184967874E-01 -0.51834662338E-02 -0.11283683067E-01  0.18852138853E-01  0.00000000000E+00 0.  1.
     999901    1    3    3    0    0  0.12057852383E-01  0.11800435871E+00 -0.48380865236E-01  0.88927562015E+00  0.88000000000E+00 0.  1.
        -11    1    4    4    0    0 -0.15356713291E-01 -0.89982812454E-01  0.55238095604E-01  0.10669697047E+00  0.51100000000E-03 0. -1.
         11    1    4    4    0    0  0.17483828782E-01 -0.22838080019E-01  0.44264526986E-02  0.29105270525E-01  0.51100000000E-03 0.  1.
</event>
<event>
 8    1  0.2257781E+004  0.1043930E+01  0.7957747E-01            NaN
         13   -1    0    0    0    0  0.00000000000E+00  0.00000000000E+00  0.74505805969E-08  0.10566000000E+00  0.10566000000E+00 0.  1.
     999900   -1    0    0    0    0 -0.00000000000E+00 -0.00000000000E+00 -0.74505805969E-08  0.93827000000E+00  0.93827000000E+00 0. -1.
     999902    2    1    2    0    0  0.57117452052E-02 -0.12899842324E-02  0.12566069568E-01  0.10300665878E+01  0.10299732915E+01 0.  0.
     999903    2    3    3    0    0 -0.70378597529E-01 -0.47628487426E-01  0.10306898366E+00  0.14095029926E+00  0.44968340689E-01 0.  0.
         14    1    1    2    0    0 -0.57117452052E-02  0.12899842324E-02 -0.12566069568E-01  0.13863412170E-01  0.00000000000E+00 0. -1.
     999901    1    3    3    0    0  0.76090342734E-01  0.46338503193E-01 -0.90502914095E-01  0.88911628857E+00  0.88000000000E+00 0. -1.
        -11    1    4    4    0    0 -0.36585159961E-01 -0.33128627599E-01  0.88617881607E-01  0.10143653167E+00  0.51100000000E-03 0.  1.
         11    1    4    4    0    0 -0.33793437568E-01 -0.14499859827E-01  0.14451102056E-01  0.39513767592E-01  0.51100000000E-03 0. -1.
</event>
<event>
 7    1  0.2257781E+004  0.1043930E+01  0.7957747E-01            NaN
         13   -1    0    0    0    0  0.00000000000E+00  0.00000000000E+00  0.74505805969E-08  0.10566000000E+00  0.10566000000E+00 0.  1.
     999900   -1    0    0    0    0 -0.00000000000E+00 -0.00000000000E+00 -0.74505805969E-08  0.93827000000E+00  0.93827000000E+00 0. -1.
     999903    2    1    2    0    0 -0.22510251530E-01 -0.60620470219E-01 -0.26875106684E-01  0.83430706193E-01  0.45352602385E-01 0.  0.
         14    1    1    2    0    0  0.21196103400E-01  0.14578198271E-01  0.73690627438E-01  0.78051952163E-01  0.00000000000E+00 0.  1.
     999901    1    1    2    0    0  0.13141481295E-02  0.46042271948E-01 -0.46815520754E-01  0.88244734164E+00  0.88000000000E+00 0. -1.
        -11    1    3    3    0    0 -0.30878455448E-01 -0.19193558833E-01 -0.16381005440E-01  0.39880699238E-01  0.51100000000E-03 0.  1.
         11    1    3    3    0    0  0.83682039183E-02 -0.41426911386E-01 -0.10494101244E-01  0.43550006955E-01  0.51100000000E-03 0. -1.
</event>
<event>
 8    1  0.2257781E+004  0.1043930E+01  0.7957747E-01            NaN
         13   -1    0    0    0    0  0.00000000000E+00  0.00000000000E+00  0.74505805969E-08  0.10566000000E+00  0.10566000000E+00 0. -1.
     999900   -1    0    0    0    0 -0.00000000000E+00 -0.00000000000E+00 -0.74505805969E-08  0.93827000000E+00  0.93827000000E+00 0.  1.
     999902    2    1    2    0    0  0.98761087049E-02  0.21950377205E-02  0.93610803619E-02  0.10301464758E+01  0.10300542588E+01 0.  0.
     999903    2    3    3    0    0  0.87842297720E-01  0.96539805211E-01  0.26999041191E-01  0.14150101250E+00  0.47511946447E-01 0.  0.
         14    1    1    2    0    0 -0.98761087049E-02 -0.21950377205E-02 -0.93610803619E-02  0.13783524197E-01  0.00000000000E+00 0.  1.
     999901    1    3    3    0    0 -0.77966189015E-01 -0.94344767490E-01 -0.17637960829E-01  0.88864546330E+00  0.88000000000E+00 0.  1.
        -11    1    4    4    0    0  0.36455645644E-01  0.35827332387E-01 -0.12601825910E-01  0.52646737625E-01  0.51100000000E-03 0. -1.
         11    1    4    4    0    0  0.51386652075E-01  0.60712472824E-01  0.39600867100E-01  0.88854274878E-01  0.51100000000E-03 0.  1.
</event>
<event>
 8    1  0.2257781E+004  0.1043930E+01  0.7957747E-01            NaN
         13   -1    0    0    0    0  0.00000000000E+00  0.00000000000E+00  0.74505805969E-08  0.10566000000E+00  0.10566000000E+00 0.  1.
     999900   -1    0    0    0    0 -0.00000000000E+00 -0.00000000000E+00 -0.74505805969E-08  0.93827000000E+00  0.93827000000E+00 0.  1.
     999902    2    1    2    0    0  0.62777643270E-03  0.11377125208E-01  0.79351966460E-02  0.10300447407E+01  0.10299511480E+01 0.  0.
     999903    2    3    3    0    0  0.62030478861E-01 -0.92921969692E-01 -0.68287063907E-01  0.13849640990E+00  0.45120501992E-01 0.  0.
         14    1    1    2    0    0 -0.62777643270E-03 -0.11377125208E-01 -0.79351966460E-02  0.13885259344E-01  0.00000000000E+00 0.  1.
     999901    1    3    3    0    0 -0.61402702428E-01  0.10429909490E+00  0.76222260553E-01  0.89154833075E+00  0.88000000000E+00 0. -1.
        -11    1    4    4    0    0  0.19321596113E-01 -0.12638757360E-02 -0.11089174164E-01  0.22319327115E-01  0.51100000000E-03 0.  1.
         11    1    4    4    0    0  0.42708882748E-01 -0.91658093956E-01 -0.57197889743E-01  0.11617708279E+00  0.51100000000E-03 0. -1.
</event>
<event>
 8    1  0.2257781E+004  0.1043930E+01  0.7957747E-01            NaN
         13   -1    0    0    0    0  0.00000000000E+00  0.00000000000E+00  0.74505805969E-08  0.10566000000E+00  0.10566000000E+00 0. -1.
     999900   -1    0    0    0    0 -0.00000000000E+00 -0.00000000000E+00 -0.74505805969E-08  0.93827000000E+00  0.93827000000E+00 0.  1.
     999902    2    1    2    0    0 -0.95087829766E-02 -0.84569419242E-02  0.47914880488E-02  0.10303323834E+01  0.10302426535E+01 0.  0.
     999903    2    3    3    0    0  0.20478759995E-01 -0.55181584439E-01  0.12021445800E+00  0.14106026138E+00  0.44520720512E-01 0.  0.
         14    1    1    2    0    0  0.95087829766E-02  0.84569419242E-02 -0.47914880488E-02  0.13597616634E-01  0.00000000000E+00 0. -1.
     999901    1    3    3    0    0 -0.29987542972E-01  0.46724642515E-01 -0.11542296995E+00  0.88927212199E+00  0.88000000000E+00 0.  1.
        -11    1    4    4    0    0  0.33677289485E-01 -0.32957821433E-01  0.87302316806E-01  0.99208535225E-01  0.51100000000E-03 0. -1.
         11    1    4    4    0    0 -0.13198529490E-01 -0.22223763007E-01  0.32912141197E-01  0.41851726153E-01  0.51100000000E-03 0.  1.
</event>
<event>
 8    1  0.2257781E+004  0.1043930E+01  0.7957747E-01            NaN
         13   -1    0    0    0    0  0.00000000000E+00  0.00000000000E+00  0.74505805969E-08  0.10566000000E+00  0.10566000000E+00 0.  1.
     999900   -1    0    0    0    0 -0.00000000000E+00 -0.00000000000E+00 -0.74505805969E-08  0.93827000000E+00  0.93827000000E+00 0.  1.
     999902    2    1    2    0    0  0.20898850626E-02  0.85329792391E-02  0.10945194786E-01  0.10298951632E+01  0.10297995293E+01 0.  0.
     999903    2    3    3    0    0  0.47773169648E-01  0.46670693096E-01  0.11641914505E+00  0.14160117930E+00  0.45133660515E-01 0.  0.
         14    1    1    2    0    0 -0.20898850626E-02 -0.85329792391E-02 -0.10945194786E-01  0.14034836770E-01  0.00000000000E+00 0. -1.
     999901    1    3    3    0    0 -0.45683284585E-01 -0.38137713857E-01 -0.10547395026E+00  0.88829398393E+00  0.88000000000E+00 0.  1.
        -11    1    4    4    0    0  0.38455240861E-01  0.61513986832E-02  0.59450902499E-01  0.71072612056E-01  0.51100000000E-03 0. -1.
         11    1    4    4    0    0  0.93179287866E-02  0.40519294413E-01  0.56968242551E-01  0.70528567240E-01  0.51100000000E-03 0.  1.
</event>
<event>
 8    1  0.2257781E+004  0.1043930E+01  0.7957747E-01            NaN
         13   -1    0    0    0    0  0.00000000000E+00  0.00000000000E+00  0.74505805969E-08  0.10566000000E+00  0.10566000000E+00 0. -1.
     999900   -1    0    0    0    0 -0.00000000000E+00 -0.00000000000E+00 -0.74505805969E-08  0.93827000000E+00  0.93827000000E+00 0. -1.
     999902    2    1    2    0    0  0.99425915704E-02 -0.75104490110E-02 -0.62921608079E-02  0.10299710151E+01  0.10298764191E+01 0.  0.
     999903    2    3    3    0    0 -0.56491482730E-01 -0.11676969657E+00 -0.29915862072E-01  0.14041542457E+00  0.44666351943E-01 0.  0.
         14    1    1    2    0    0 -0.99425915704E-02  0.75104490110E-02  0.62921608079E-02  0.13958984888E-01  0.00000000000E+00 0. -1.
     999901    1    3    3    0    0  0.66434074300E-01  0.10925924756E+00  0.23623701264E-01  0.88955559054E+00  0.88000000000E+00 0.  1.
        -11    1    4    4    0    0 -0.14734750097E-02 -0.47093898563E-01 -0.19615310513E-01  0.51039474311E-01  0.51100000000E-03 0. -1.
         11    1    4    4    0    0 -0.55018007720E-01 -0.69675798004E-01 -0.10300551559E-01  0.89375950258E-01  0.51100000000E-03 0.  1.
</event>
<event>
 8    1  0.2257781E+004  0.1043930E+01  0.7957747E-01            NaN
         13   -1    0    0    0    0  0.00000000000E+00  0.00000000000E+00  0.74505805969E-08  0.10566000000E+00  0.10566000000E+00 0.  1.
     999900   -1    0    0    0    0 -0.00000000000E+00 -0.00000000000E+00 -0.74505805969E-08  0.93827000000E+00  0.93827000000E+00 0. -1.
     999902    2    1    2    0    0  0.94633662034E-02  0.79011188621E-02  0.57311482179E-02  0.10303348156E+01  0.10302451180E+01 0.  0.
     999903    2    3    3    0    0  0.81175255509E-01 -0.82885636817E-01 -0.65691039856E-01  0.13989337506E+00  0.42372075355E-01 0.  0.
         14    1    1    2    0    0 -0.94633662034E-02 -0.79011188621E-02 -0.57311482179E-02  0.13595184407E-01  0.00000000000E+00 0. -1.
     999901    1    3    3    0    0 -0.71711889305E-01  0.90786755679E-01  0.71422188074E-01  0.89044144054E+00  0.88000000000E+00 0.  1.
        -11    1    4    4    0    0  0.27939647066E-01 -0.89870251328E-02 -0.33984195015E-02  0.29549972505E-01  0.51100000000E-03 0. -1.
         11    1    4    4    0    0  0.53235608442E-01 -0.73898611684E-01 -0.62292620355E-01  0.11034340255E+00  0.51100000000E-03 0.  1.
</event>
<event>
 8    1  0.2257781E+004  0.1043930E+01  0.7957747E-01            NaN
         13   -1    0    0    0    0  0.00000000000E+00  0.00000000000E+00  0.74505805969E-08  0.10566000000E+00  0.10566000000E+00 0. -1.
     999900   -1    0    0    0    0 -0.00000000000E+00 -0.00000000000E+00 -0.74505805969E-08  0.93827000000E+00  0.93827000000E+00 0. -1.
     999902    2    1    2    0    0  0.47709708438E-02  0.12302023578E-01  0.37155866329E-02  0.10302220632E+01  0.10301308616E+01 0.  0.
     999903    2    3    3    0    0 -0.12869516509E+00 -0.24857906798E-01 -0.10942004292E-01  0.13926251596E+00  0.45759806006E-01 0.  0.
         14    1    1    2    0    0 -0.47709708438E-02 -0.12302023578E-01 -0.37155866329E-02  0.13707936786E-01  0.00000000000E+00 0.  1.
     999901    1    3    3    0    0  0.13346613594E+00  0.37159930376E-01  0.14657590925E-01  0.89095954725E+00  0.88000000000E+00 0. -1.
        -11    1    4    4    0    0 -0.65978789024E-01  0.92451460904E-02  0.22497606532E-02  0.66663302284E-01  0.51100000000E-03 0. -1.
         11    1    4    4    0    0 -0.62716376067E-01 -0.34103052888E-01 -0.13191764946E-01  0.72599213678E-01  0.51100000000E-03 0.  1.
</event>
<event>
 8    1  0.2257781E+004  0.1043930E+01  0.7957747E-01            NaN
         13   -1    0    0    0    0  0.00000000000E+00  0.00000000000E+00  0.74505805969E-08  0.10566000000E+00  0.10566000000E+00 0. -1.
     999900   -1    0    0    0    0 -0.00000000000E+00 -0.00000000000E+00 -0.74505805969E-08  0.93827000000E+00  0.93827000000E+00 0. -1.
     999902    2    1    2    0    0 -0.52670347121E-02  0.67024429574E-03 -0.12688897153E-01  0.10301750375E+01  0.10300832049E+01 0.  0.
     999903    2    3    3    0    0  0.10865119549E+00 -0.31498638973E-01  0.66571481902E-01  0.13871869651E+00  0.44876140893E-01 0.  0.
         14    1    1    2    0    0  0.52670347121E-02 -0.67024429574E-03  0.12688897153E-01  0.13754962488E-01  0.00000000000E+00 0. -1.
     999901    1    3    3    0    0 -0.11391823020E+00  0.32168883269E-01 -0.79260379055E-01  0.89145634100E+00  0.88000000000E+00 0. -1.
        -11    1    4    4    0    0  0.82294075882E-01 -0.28233702010E-01  0.27073277474E-01  0.91119044819E-01  0.51100000000E-03 0. -1.
         11    1    4    4    0    0  0.26357119604E-01 -0.32649369632E-02  0.39498204429E-01  0.47599651693E-01  0.51100000000E-03 0.  1.
</event>
<event>
 8    1  0.2257781E+004  0.1043930E+01  0.7957747E-01            NaN
         13   -1    0    0    0    0  0.00000000000E+00  0.00000000000E+00  0.74505805969E-08  0.10566000000E+00  0.10566000000E+00 0.  1.
     999900   -1    0    0    0    0 -0.00000000000E+00 -0.00000000000E+00 -0.74505805969E-08  0.93827000000E+00  0.93827000000E+00 0.  1.
     999902    2    1    2    0    0  0.28193304779E-02 -0.12925941356E-01 -0.12299766009E-02  0.10306431107E+01  0.10305574609E+01 0.  0.
     999903    2    3    3    0    0 -0.12764804584E-01 -0.48249321925E-01 -0.12425170575E+00  0.14124727515E+00  0.44959638069E-01 0.  0.
         14    1    1    2    0    0 -0.28193304779E-02  0.12925941356E-01  0.12299766009E-02  0.13286889279E-01  0.00000000000E+00 0. -1.
     999901    1    3    3    0    0  0.15584135062E-01  0.35323380569E-01  0.12302172915E+00  0.88939583557E+00  0.88000000000E+00 0. -1.
        -11    1    4    4    0    0 -0.21275966211E-01 -0.39212423811E-02 -0.47662086220E-01  0.52344803600E-01  0.51100000000E-03 0.  1.
         11    1    4    4    0    0  0.85111616273E-02 -0.44328079544E-01 -0.76589619527E-01  0.88902471555E-01  0.51100000000E-03 0. -1.
</event>
<event>
 8    1  0.2257781E+004  0.1043930E+01  0.7957747E-01            NaN
         13   -1    0    0    0    0  0.00000000000E+00  0.00000000000E+00  0.74505805969E-08  0.10566000000E+00  0.10566000000E+00 0. -1.
     999900   -1    0    0    0    0 -0.00000000000E+00 -0.00000000000E+00 -0.74505805969E-08  0.93827000000E+00  0.93827000000E+00 0.  1.
     999902    2    1    2    0    0  0.22373839629E-02 -0.83781803939E-04 -0.14722423883E-01  0.10290383019E+01  0.10289305439E+01 0.  0.
     999903    2    3    3    0    0  0.10161270548E+00  0.76244773647E-01  0.33901726859E-01  0.13883281389E+00  0.44573710906E-01 0.  0.
         14    1    1    2    0    0 -0.22373839629E-02  0.83781803939E-04  0.14722423883E-01  0.14891698069E-01  0.00000000000E+00 0. -1.
     999901    1    3    3    0    0 -0.99375321521E-01 -0.76328555451E-01 -0.48624150742E-01  0.89020548804E+00  0.88000000000E+00 0.  1.
        -11    1    4    4    0    0  0.55009590918E-01  0.34071308436E-01  0.39364412627E-01  0.75741185982E-01  0.51100000000E-03 0.  1.
         11    1    4    4    0    0  0.46603114566E-01  0.42173465211E-01 -0.54626857673E-02  0.63091627907E-01  0.51100000000E-03 0. -1.
</event>
<event>
 8    1  0.2257781E+004  0.1043930E+01  0.7957747E-01            NaN
         13   -1    0    0    0    0  0.00000000000E+00  0.00000000000E+00  0.74505805969E-08  0.10566000000E+00  0.10566000000E+00 0. -1.
     999900   -1    0    0    0    0 -0.00000000000E+00 -0.00000000000E+00 -0.74505805969E-08  0.93827000000E+00  0.93827000000E+00 0. -1.
     999902    2    1    2    0    0 -0.82193516724E-02 -0.11154218354E-01 -0.15447215385E-02  0.10299886768E+01  0.10298943216E+01 0.  0.
     999903    2    3    3    0    0  0.19530851975E-01  0.81559892543E-01  0.10147548592E+00  0.13870917890E+00  0.43697732410E-01 0.  0.
         14    1    1    2    0    0  0.82193516724E-02  0.11154218354E-01  0.15447215385E-02  0.13941323238E-01  0.00000000000E+00 0. -1.
     999901    1    3    3    0    0 -0.27750203648E-01 -0.92714110896E-01 -0.10302020746E+00  0.89127949786E+00  0.88000000000E+00 0. -1.
        -11    1    4    4    0    0 -0.11757464367E-01  0.42804735182E-01  0.53900274415E-01  0.69828246616E-01  0.51100000000E-03 0.  1.
         11    1    4    4    0    0  0.31288316342E-01  0.38755157360E-01  0.47575211507E-01  0.68880932285E-01  0.51100000000E-03 0. -1.
</event>
<event>
 8    1  0.2257781E+004  0.1043930E+01  0.7957747E-01            NaN
         13   -1    0    0    0    0  0.00000000000E+00  0.00000000000E+00  0.74505805969E-08  0.10566000000E+00  0.10566000000E+00 0. -1.
     999900   -1    0    0    0    0 -0.00000000000E+00 -0.00000000000E+00 -0.74505805969E-08  0.93827000000E+00  0.93827000000E+00 0. -1.
     999902    2    1    2    0    0  0.50854567531E-02  0.79117669269E-02  0.99651301820E-02  0.10302273818E+01  0.10301362514E+01 0.  0.
     999903    2    3    3    0    0 -0.34620061327E-01 -0.96265948718E-01 -0.81615607072E-01  0.13847822646E+00  0.45270634583E-01 0.  0.
         14    1    1    2    0    0 -0.50854567531E-02 -0.79117669269E-02 -0.99651301820E-02  0.13702618211E-01  0.00000000000E+00 0.  1.
     999901    1    3    3    0    0  0.39705518080E-01  0.10417771564E+00  0.91580737254E-01  0.89174915533E+00  0.88000000000E+00 0.  1.
        -11    1    4    4    0    0 -0.12960971628E-01 -0.49414112260E-01 -0.68075630252E-01  0.85113417457E-01  0.51100000000E-03 0.  1.
         11    1    4    4    0    0 -0.21659089700E-01 -0.46851836458E-01 -0.13539976819E-01  0.53364808998E-01  0.51100000000E-03 0. -1.
</event>
<event>
 8    1  0.2257781E+004  0.1043930E+01  0.7957747E-01            NaN
         13   -1    0    0    0    0  0.00000000000E+00  0.00000000000E+00  0.74505805969E-08  0.10566000000E+00  0.10566000000E+00 0.  1.
     999900   -1    0    0    0    0 -0.00000000000E+00 -0.00000000000E+00 -0.74505805969E-08  0.93827000000E+00  0.93827000000E+00 0. -1.
     999902    2    1    2    0    0 -0.11169335647E-01  0.32474873973E-02 -0.75407882033E-02  0.10300676871E+01  0.10299744056E+01 0.  0.
     999903    2    3    3    0    0 -0.76200950848E-01  0.10337186460E+00  0.36904880420E-01  0.14089423979E+00  0.44686567399E-01 0.  0.
         14    1    1    2    0    0  0.11169335647E-01 -0.32474873973E-02  0.75407882033E-02  0.13862312935E-01  0.00000000000E+00 0.  1.
     999901    1    3    3    0    0  0.65031615201E-01 -0.10012437720E+00 -0.44445668624E-01  0.88917344728E+00  0.88000000000E+00 0. -1.
        -11    1    4    4    0    0 -0.65320754662E-01  0.67737092704E-01  0.42426803435E-01  0.10322504293E+00  0.51100000000E-03 0.  1.
         11    1    4    4    0    0 -0.10880196186E-01  0.35634771893E-01 -0.55219230147E-02  0.37669196855E-01  0.51100000000E-03 0. -1.
</event>
<event>
 8    1  0.2257781E+004  0.1043930E+01  0.7957747E-01            NaN
         13   -1    0    0    0    0  0.00000000000E+00  0.00000000000E+00  0.74505805969E-08  0.10566000000E+00  0.10566000000E+00 0. -1.
     999900   -1    0    0    0    0 -0.00000000000E+00 -0.00000000000E+00 -0.74505805969E-08  0.93827000000E+00  0.93827000000E+00 0.  1.
     999902    2    1    2    0    0  0.84644459350E-02 -0.62483502409E-02 -0.91490220500E-02  0.10299874991E+01  0.10298931280E+01 0.  0.
     999903    2    3    3    0    0  0.71587069902E-01 -0.71452073992E-01  0.85578344159E-01  0.14026323559E+00  0.46043618596E-01 0.  0.
         14    1    1    2    0    0 -0.84644459350E-02  0.62483502409E-02  0.91490220500E-02  0.13942500859E-01  0.00000000000E+00 0. -1.
     999901    1    3    3    0    0 -0.63122623967E-01  0.65203723751E-01 -0.94727366209E-01  0.88972426355E+00  0.88000000000E+00 0.  1.
        -11    1    4    4    0    0  0.42093621515E-01 -0.58489509210E-01  0.34559554223E-01  0.79921959241E-01  0.51100000000E-03 0.  1.
         11    1    4    4    0    0  0.29493448387E-01 -0.12962564782E-01  0.51018789937E-01  0.60341276346E-01  0.51100000000E-03 0. -1.
</event>
<event>
 8    1  0.2257781E+004  0.1043930E+01  0.7957747E-01            NaN
         13   -1    0    0    0    0  0.00000000000E+00  0.00000000000E+00  0.74505805969E-08  0.10566000000E+00  0.10566000000E+00 0.  1.
     999900   -1    0    0    0    0 -0.00000000000E+00 -0.00000000000E+00 -0.74505805969E-08  0.93827000000E+00  0.93827000000E+00 0. -1.
     999902    2    1    2    0    0  0.33490590946E-02 -0.13656435858E-01 -0.44363499920E-02  0.10291856574E+01  0.10290800366E+01 0.  0.
     999903    2    3    3    0    0  0.46414392940E-01  0.96754342355E-02  0.12229372307E+00  0.13875906832E+00  0.45281502166E-01 0.  0.
         14    1    1    2    0    0 -0.33490590946E-02  0.13656435858E-01  0.44363499920E-02  0.14744342590E-01  0.00000000000E+00 0.  1.
     999901    1    3    3    0    0 -0.43065333846E-01 -0.23331870093E-01 -0.12673007306E+00  0.89042658909E+00  0.88000000000E+00 0. -1.
        -11    1    4    4    0    0  0.12174600885E-01 -0.17209943414E-01  0.29522451705E-01  0.36280012882E-01  0.51100000000E-03 0.  1.
         11    1    4    4    0    0  0.34239792055E-01  0.26885377650E-01  0.92771271367E-01  0.10247905544E+00  0.51100000000E-03 0. -1.
</event>
<event>
 8    1  0.2257781E+004  0.1043930E+01  0.7957747E-01            NaN
         13   -1    0    0    0    0  0.00000000000E+00  0.00000000000E+00  0.74505805969E-08  0.10566000000E+00  0.10566000000E+00 0. -1.
     999900   -1    0    0    0    0 -0.00000000000E+00 -0.00000000000E+00 -0.74505805969E-08  0.93827000000E+00  0.93827000000E+00 0. -1.
     999902    2    1    2    0    0 -0.11453042457E-01  0.58639260605E-02 -0.49689975686E-02  0.10301369312E+01  0.10300445856E+01 0.  0.
     999903    2    3    3    0    0  0.10410108264E+00 -0.19218789080E-01 -0.78331553853E-01  0.13920261089E+00  0.45112495935E-01 0.  0.
         14    1    1    2    0    0  0.11453042457E-01 -0.58639260605E-02  0.49689975686E-02  0.13793068810E-01  0.00000000000E+00 0. -1.
     999901    1    3    3    0    0 -0.11555412509E+00  0.25082715140E-01  0.73362556285E-01  0.89093432030E+00  0.88000000000E+00 0. -1.
        -11    1    4    4    0    0  0.24255148320E-02 -0.12961470474E-01 -0.85228563297E-02  0.15709329714E-01  0.51100000000E-03 0. -1.
         11    1    4    4    0    0  0.10167556780E+00 -0.62573186061E-02 -0.69808697524E-01  0.12349328118E+00  0.51100000000E-03 0.  1.
</event>
<event>
 8    1  0.2257781E+004  0.1043930E+01  0.7957747E-01            NaN
         13   -1    0    0    0    0  0.00000000000E+00  0.00000000000E+00  0.74505805969E-08  0.10566000000E+00  0.10566000000E+00 0.  1.
     999900   -1    0    0    0    0 -0.00000000000E+00 -0.00000000000E+00 -0.74505805969E-08  0.93827000000E+00  0.93827000000E+00 0. -1.
     999902    2    1    2    0    0 -0.61127667876E-03 -0.10169436474E-02 -0.15761297607E-01  0.10281241044E+01  0.10280026010E+01 0.  0.
     999903    2    3    3    0    0 -0.99898080425E-01 -0.15080638587E-01  0.80687590042E-01  0.13719310547E+00  0.45873836444E-01 0.  0.
         14    1    1    2    0    0  0.61127667876E-03  0.10169436474E-02  0.15761297607E-01  0.15805895603E-01  0.00000000000E+00 0.  1.
     999901    1    3    3    0    0  0.99286803746E-01  0.14063694940E-01 -0.96448887649E-01  0.89093099892E+00  0.88000000000E+00 0. -1.
        -11    1    4    4    0    0 -0.30255506279E-01  0.14293977873E-01  0.13582340060E-01  0.36117233368E-01  0.51100000000E-03 0.  1.
         11    1    4    4    0    0 -0.69642574146E-01 -0.29374616461E-01  0.67105249983E-01  0.10107587211E+00  0.51100000000E-03 0. -1.
</event>
<event>
 8    1  0.2257781E+004  0.1043930E+01  0.7957747E-01            NaN
         13   -1    0    0    0    0  0.00000000000E+00  0.00000000000E+00  0.74505805969E-08  0.10566000000E+00  0.10566000000E+00 0. -1.
     999900   -1    0    0    0    0 -0.00000000000E+00 -0.00000000000E+00 -0.74505805969E-08  0.93827000000E+00  0.93827000000E+00 0.  1.
     999902    2    1    2    0    0  0.12436195841E-02 -0.18225143669E-02  0.14315851831E-01  0.10294451195E+01  0.10293432092E+01 0.  0.
     999903    2    3    3    0    0  0.91349231144E-01  0.92369310428E-01 -0.21007684591E-01  0.13914243319E+00  0.45194273568E-01 0.  0.
         14    1    1    2    0    0 -0.12436195841E-02  0.18225143669E-02 -0.14315851831E-01  0.14484880459E-01  0.00000000000E+00 0.  1.
     999901    1    3    3    0    0 -0.90105611559E-01 -0.94191824795E-01  0.35323536422E-01  0.89030268635E+00  0.88000000000E+00 0. -1.
        -11    1    4    4    0    0  0.31208848960E-01  0.43666249667E-01 -0.29569468813E-01  0.61280896046E-01  0.51100000000E-03 0.  1.
         11    1    4    4    0    0  0.60140382183E-01  0.48703060762E-01  0.85617842217E-02  0.77861537146E-01  0.51100000000E-03 0. -1.
</event>
<event>
 8    1  0.2257781E+004  0.1043930E+01  0.7957747E-01            NaN
         13   -1    0    0    0    0  0.00000000000E+00  0.00000000000E+00  0.74505805969E-08  0.10566000000E+00  0.10566000000E+00 0.  1.
     999900   -1    0    0    0    0 -0.00000000000E+00 -0.00000000000E+00 -0.74505805969E-08  0.93827000000E+00  0.93827000000E+00 0.  1.
     999902    2    1    2    0    0 -0.43729781384E-02  0.75485996436E-02 -0.12396168947E-01  0.10287718570E+01  0.10286601793E+01 0.  0.
     999903    2    3    3    0    0 -0.91149379561E-02  0.12453436827E+00  0.42497544953E-01  0.13932175944E+00  0.44862237488E-01 0.  0.
         14    1    1    2    0    0  0.43729781384E-02 -0.75485996436E-02  0.12396168947E-01  0.15158142991E-01  0.00000000000E+00 0.  1.
     999901    1    3    3    0    0  0.47419598177E-02 -0.11698576862E+00 -0.54893713899E-01  0.88945009757E+00  0.88000000000E+00 0. -1.
        -11    1    4    4    0    0 -0.38369072962E-02  0.27709242124E-01  0.30861427081E-01  0.41655885049E-01  0.51100000000E-03 0.  1.
         11    1    4    4    0    0 -0.52780306599E-02  0.96825126143E-01  0.11636117871E-01  0.97665874390E-01  0.51100000000E-03 0. -1.
</event>
<event>
 8    1  0.2257781E+004  0.1043930E+01  0.7957747E-01            NaN
         13   -1    0    0    0    0  0.00000000000E+00  0.00000000000E+00  0.74505805969E-08  0.10566000000E+00  0.10566000000E+00 0. -1.
     999900   -1    0    0    0    0 -0.00000000000E+00 -0.00000000000E+00 -0.74505805969E-08  0.93827000000E+00  0.93827000000E+00 0. -1.
     999902    2    1    2    0    0  0.75286985229E-02  0.44353987973E-02  0.10321922067E-01  0.10304060901E+01  0.10303173367E+01 0.  0.
     999903    2    3    3    0    0 -0.10472420932E+00 -0.58740983216E-01  0.56776398355E-01  0.13981640403E+00  0.43673839988E-01 0.  0.
         14    1    1    2    0    0 -0.75286985229E-02 -0.44353987973E-02 -0.10321922067E-01  0.13523909904E-01  0.00000000000E+00 0.  1.
     999901    1    3    3    0    0  0.11225290784E+00  0.63176382014E-01 -0.46454476288E-01  0.89058968607E+00  0.88000000000E+00 0. -1.
        -11    1    4    4    0    0 -0.27838840242E-01  0.43251768271E-02  0.97724753564E-02  0.29823993297E-01  0.51100000000E-03 0. -1.
         11    1    4    4    0    0 -0.76885369073E-01 -0.63066160043E-01  0.47003922999E-01  0.10999241073E+00  0.51100000000E-03 0.  1.
</event>
<event>
 8    1  0.2257781E+004  0.1043930E+01  0.7957747E-01            NaN
         13   -1    0    0    0    0  0.00000000000E+00  0.00000000000E+00  0.74505805969E-08  0.10566000000E+00  0.10566000000E+00 0.  1.
     999900   -1    0    0    0    0 -0.00000000000E+00 -0.00000000000E+00 -0.74505805969E-08  0.93827000000E+00  0.93827000000E+00 0. -1.
     999902    2    1    2    0    0 -0.23310120124E-02  0.16374257134E-02 -0.13369074327E-01  0.10302608037E+01  0.10301701202E+01 0.  0.
     999903    2    3    3    0    0 -0.27608510290E-01 -0.73291838218E-01 -0.10964951850E+00  0.14148452673E+00  0.43138509572E-01 0.  0.
         14    1    1    2    0    0  0.23310120124E-02 -0.16374257134E-02  0.13369074327E-01  0.13669196331E-01  0.00000000000E+00 0.  1.
     999901    1    3    3    0    0  0.25277498278E-01  0.74929263931E-01  0.96280444172E-01  0.88877627694E+00  0.88000000000E+00 0.  1.
        -11    1    4    4    0    0 -0.17158878969E-01 -0.27175392136E-02 -0.28974676393E-01  0.33787647742E-01  0.51100000000E-03 0.  1.
         11    1    4    4    0    0 -0.10449631321E-01 -0.70574299005E-01 -0.80674842106E-01  0.10769687899E+00  0.51100000000E-03 0. -1.
</event>
<event>
 8    1  0.2257781E+004  0.1043930E+01  0.7957747E-01            NaN
         13   -1    0    0    0    0  0.00000000000E+00  0.00000000000E+00  0.74505805969E-08  0.10566000000E+00  0.10566000000E+00 0. -1.
     999900   -1    0    0    0    0 -0.00000000000E+00 -0.00000000000E+00 -0.74505805969E-08  0.93827000000E+00  0.93827000000E+00 0.  1.
     999902    2    1    2    0    0 -0.46368576752E-02 -0.12437002554E-01 -0.16344694108E-02  0.10305564824E+01  0.10304697048E+01 0.  0.
     999903    2    3    3    0    0  0.69889048681E-01 -0.22020783880E-01  0.11111928321E+00  0.14018612786E+00  0.43991604827E-01 0.  0.
         14    1    1    2    0    0  0.46368576752E-02  0.12437002554E-01  0.16344694108E-02  0.13373517558E-01  0.00000000000E+00 0. -1.
     999901    1    3    3    0    0 -0.74525906356E-01  0.95837813269E-02 -0.11275375262E+00  0.89037035458E+00  0.88000000000E+00 0. -1.
        -11    1    4    4    0    0  0.23339426837E-01  0.69339714312E-03  0.70778072197E-01  0.74531914437E-01  0.51100000000E-03 0.  1.
         11    1    4    4    0    0  0.46549621844E-01 -0.22714181024E-01  0.40341211015E-01  0.65654213426E-01  0.51100000000E-03 0. -1.
</event>
<event>
 8    1  0.2257781E+004  0.1043930E+01  0.7957747E-01            NaN
         13   -1    0    0    0    0  0.00000000000E+00  0.00000000000E+00  0.74505805969E-08  0.10566000000E+00  0.10566000000E+00 0.  1.
     999900   -1    0    0    0    0 -0.00000000000E+00 -0.00000000000E+00 -0.74505805969E-08  0.93827000000E+00  0.93827000000E+00 0.  1.
     999902    2    1    2    0    0  0.85222634456E-02  0.51477916271E-02  0.11828163747E-01  0.10284692694E+01  0.10283530541E+01 0.  0.
     999903    2    3    3    0    0 -0.65400543670E-01 -0.10858893103E+00  0.30651877736E-01  0.13787679487E+00  0.44740204503E-01 0.  0.
         14    1    1    2    0    0 -0.85222634456E-02 -0.51477916271E-02 -0.11828163747E-01  0.15460730594E-01  0.00000000000E+00 0. -1.
     999901    1    3    3    0    0  0.73922807116E-01  0.11373672266E+00 -0.18823713989E-01  0.89059247454E+00  0.88000000000E+00 0.  1.
        -11    1    4    4    0    0 -0.24197880277E-01 -0.81653660500E-01  0.20891173686E-01  0.87690135945E-01  0.51100000000E-03 0.  1.
         11    1    4    4    0    0 -0.41202663393E-01 -0.26935270535E-01  0.97607040502E-02  0.50186658924E-01  0.51100000000E-03 0. -1.
</event>
<event>
 8    1  0.2257781E+004  0.1043930E+01  0.7957747E-01            NaN
         13   -1    0    0    0    0  0.00000000000E+00  0.00000000000E+00  0.74505805969E-08  0.10566000000E+00  0.10566000000E+00 0. -1.
     999900   -1    0    0    0    0 -0.00000000000E+00 -0.00000000000E+00 -0.74505805969E-08  0.93827000000E+00  0.93827000000E+00 0. -1.
     999902    2    1    2    0    0  0.51909661003E-02  0.12340674994E-01  0.37931328754E-02  0.10300150352E+01  0.10299210390E+01 0.  0.
     999903    2    3    3    0    0  0.46458357607E-01  0.11101269106E+00 -0.59019477405E-01  0.14131678024E+00  0.44776523943E-01 0.  0.
         14    1    1    2    0    0 -0.51909661003E-02 -0.12340674994E-01 -0.37931328754E-02  0.13914964800E-01  0.00000000000E+00 0.  1.
     999901    1    3    3    0    0 -0.41267391507E-01 -0.98672016067E-01  0.62812610281E-01  0.88869825496E+00  0.88000000000E+00 0.  1.
        -11    1    4    4    0    0  0.19711377163E-01  0.83418928275E-01 -0.23251858422E-01  0.88815347915E-01  0.51100000000E-03 0.  1.
         11    1    4    4    0    0  0.26746980445E-01  0.27593762786E-01 -0.35767618983E-01  0.52501432327E-01  0.51100000000E-03 0. -1.
</event>
<event>
 8    1  0.2257781E+004  0.1043930E+01  0.7957747E-01            NaN
         13   -1    0    0    0    0  0.00000000000E+00  0.00000000000E+00  0.74505805969E-08  0.10566000000E+00  0.10566000000E+00 0.  1.
     999900   -1    0    0    0    0 -0.00000000000E+00 -0.00000000000E+00 -0.74505805969E-08  0.93827000000E+00  0.93827000000E+00 0. -1.
     999902    2    1    2    0    0  0.75165025649E-02  0.11639914597E-01  0.45603027287E-02  0.10293429584E+01  0.10292395951E+01 0.  0.
     999903    2    3    3    0    0 -0.11976128926E+00 -0.22727765776E-01  0.50622902176E-01  0.13833087269E+00  0.41393651359E-01 0.  0.
         14    1    1    2    0    0 -0.75165025649E-02 -0.11639914597E-01 -0.45603027287E-02  0.14587041633E-01  0.00000000000E+00 0. -1.
     999901    1    3    3    0    0  0.12727779183E+00  0.34367680373E-01 -0.46062599447E-01  0.89101208567E+00  0.88000000000E+00 0. -1.
        -11    1    4    4    0    0 -0.40068380449E-01 -0.27275207181E-01  0.13641898777E-01  0.50356474875E-01  0.51100000000E-03 0.  1.
         11    1    4    4    0    0 -0.79692908813E-01  0.45474414044E-02  0.36981003398E-01  0.87974397820E-01  0.51100000000E-03 0. -1.
</event>
<event>
 7    1  0.3517104E+004  0.1043930E+01  0.7957747E-01            NaN
         13   -1    0    0    0    0  0.00000000000E+00  0.00000000000E+00  0.74505805969E-08  0.10566000000E+00  0.10566000000E+00 0. -1.
     999900   -1    0    0    0    0 -0.00000000000E+00 -0.00000000000E+00 -0.74505805969E-08  0.93827000000E+00  0.93827000000E+00 0. -1.
     999903    2    1    2    0    0 -0.94347783280E-01 -0.14568929975E-01 -0.51565077352E-01  0.11763353360E+00  0.45441534916E-01 0.  0.
         14    1    1    2    0    0 -0.25265178542E-01 -0.24335585012E-01 -0.55696710192E-02  0.35518603293E-01  0.00000000000E+00 0. -1.
     999901    1    1    2    0    0  0.11961296182E+00  0.38904514987E-01  0.57134748371E-01  0.89077786310E+00  0.88000000000E+00 0.  1.
        -11    1    3    3    0    0 -0.35422122514E-01  0.15654755007E-01 -0.25977522812E-01  0.46635725899E-01  0.51100000000E-03 0.  1.
         11    1    3    3    0    0 -0.58925660766E-01 -0.30223684982E-01 -0.25587554540E-01  0.70997807705E-01  0.51100000000E-03 0. -1.
</event>
<event>
 8    1  0.2257781E+004  0.1043930E+01  0.7957747E-01            NaN
         13   -1    0    0    0    0  0.00000000000E+00  0.00000000000E+00  0.74505805969E-08  0.10566000000E+00  0.10566000000E+00 0. -1.
     999900   -1    0    0    0    0 -0.00000000000E+00 -0.00000000000E+00 -0.74505805969E-08  0.93827000000E+00  0.93827000000E+00 0. -1.
     999902    2    1    2    0    0 -0.85882313191E-02 -0.23453961821E-02 -0.11352330260E-01  0.10295031499E+01  0.10294020603E+01 0.  0.
     999903    2    3    3    0    0 -0.52071921003E-01 -0.11923485894E+00 -0.27796488897E-01  0.14055748898E+00  0.45335707460E-01 0.  0.
         14    1    1    2    0    0  0.85882313191E-02  0.23453961821E-02  0.11352330260E-01  0.14426850064E-01  0.00000000000E+00 0. -1.
     999901    1    3    3    0    0  0.43483689684E-01  0.11688946276E+00  0.16444158638E-01  0.88894566095E+00  0.88000000000E+00 0. -1.
        -11    1    4    4    0    0 -0.38557825673E-02 -0.57191313444E-01 -0.35066995841E-03  0.57324492873E-01  0.51100000000E-03 0. -1.
         11    1    4    4    0    0 -0.48216138436E-01 -0.62043545497E-01 -0.27445818939E-01  0.83232996111E-01  0.51100000000E-03 0.  1.
</event>
<event>
 8    1  0.2257781E+004  0.1043930E+01  0.7957747E-01            NaN
         13   -1    0    0    0    0  0.00000000000E+00  0.00000000000E+00  0.74505805969E-08  0.10566000000E+00  0.10566000000E+00 0. -1.
     999900   -1    0    0    0    0 -0.00000000000E+00 -0.00000000000E+00 -0.74505805969E-08  0.93827000000E+00  0.93827000000E+00 0. -1.
     999902    2    1    2    0    0  0.10044879032E-01  0.66498946536E-02  0.29828097407E-02  0.10315196073E+01  0.10314449488E+01 0.  0.
     999903    2    3    3    0    0  0.11727904714E+00  0.67258194940E-01  0.14218263158E-01  0.14286963778E+00  0.43949228735E-01 0.  0.
         14    1    1    2    0    0 -0.10044879032E-01 -0.66498946536E-02 -0.29828097407E-02  0.12410392727E-01  0.00000000000E+00 0. -1.
     999901    1    3    3    0    0 -0.10723416811E+00 -0.60608300287E-01 -0.11235453417E-01  0.88864996950E+00  0.88000000000E+00 0. -1.
        -11    1    4    4    0    0  0.26292211078E-01 -0.22961203961E-02  0.10112826608E-01  0.28268054678E-01  0.51100000000E-03 0. -1.
         11    1    4    4    0    0  0.90986836062E-01  0.69554315337E-01  0.41054365497E-02  0.11460158310E+00  0.51100000000E-03 0.  1.
</event>
<event>
 8    1  0.2257781E+004  0.1043930E+01  0.7957747E-01            NaN
         13   -1    0    0    0    0  0.00000000000E+00  0.00000000000E+00  0.74505805969E-08  0.10566000000E+00  0.10566000000E+00 0.  1.
     999900   -1    0    0    0    0 -0.00000000000E+00 -0.00000000000E+00 -0.74505805969E-08  0.93827000000E+00  0.93827000000E+00 0. -1.
     999902    2    1    2    0    0  0.25206421461E-02  0.17772454514E-02 -0.13862143009E-01  0.10297288998E+01  0.10296309707E+01 0.  0.
     999903    2    3    3    0    0  0.10977305932E+00  0.20823379214E-01 -0.72960566854E-01  0.14104534537E+00  0.45681587774E-01 0.  0.
         14    1    1    2    0    0 -0.25206421461E-02 -0.17772454514E-02  0.13862143009E-01  0.14201100205E-01  0.00000000000E+00 0.  1.
     999901    1    3    3    0    0 -0.10725241717E+00 -0.19046133762E-01  0.59098423845E-01  0.88868355442E+00  0.88000000000E+00 0. -1.
        -11    1    4    4    0    0  0.38796111349E-01 -0.14169965274E-01 -0.20625796791E-01  0.46169370647E-01  0.51100000000E-03 0.  1.
         11    1    4    4    0    0  0.70976947969E-01  0.34993344488E-01 -0.52334770064E-01  0.94875974725E-01  0.51100000000E-03 0. -1.
</event>
<event>
 8    1  0.2257781E+004  0.1043930E+01  0.7957747E-01            NaN
         13   -1    0    0    0    0  0.00000000000E+00  0.00000000000E+00  0.74505805969E-08  0.10566000000E+00  0.10566000000E+00 0.  1.
     999900   -1    0    0    0    0 -0.00000000000E+00 -0.00000000000E+00 -0.74505805969E-08  0.93827000000E+00  0.93827000000E+00 0. -1.
     999902    2    1    2    0    0 -0.23487510672E-02 -0.14726743648E-02 -0.11500543375E-01  0.10321000423E+01  0.10320322424E+01 0.  0.
     999903    2    3    3    0    0  0.44070145136E-01  0.11411402483E+00  0.53650011808E-01  0.14094371830E+00  0.44973543402E-01 0.  0.
         14    1    1    2    0    0  0.23487510672E-02  0.14726743648E-02  0.11500543375E-01  0.11829957704E-01  0.00000000000E+00 0.  1.
     999901    1    3    3    0    0 -0.46418896203E-01 -0.11558669920E+00 -0.65150555182E-01  0.89115632400E+00  0.88000000000E+00 0. -1.
        -11    1    4    4    0    0  0.47517984316E-01  0.78740032031E-01  0.25044445376E-01  0.95317557894E-01  0.51100000000E-03 0.  1.
         11    1    4    4    0    0 -0.34478391797E-02  0.35373992800E-01  0.28605566431E-01  0.45626160407E-01  0.51100000000E-03 0. -1.
</event>
<event>
 8    1  0.2257781E+004  0.1043930E+01  0.7957747E-01            NaN
         13   -1    0    0    0    0  0.00000000000E+00  0.00000000000E+00  0.74505805969E-08  0.10566000000E+00  0.10566000000E+00 0.  1.
     999900   -1    0    0    0    0 -0.00000000000E+00 -0.00000000000E+00 -0.74505805969E-08  0.93827000000E+00  0.93827000000E+00 0.  1.
     999902    2    1    2    0    0 -0.85305664547E-02 -0.10464571550E-01 -0.50559416161E-02  0.10295133302E+01  0.10294123842E+01 0.  0.
     999903    2    3    3    0    0 -0.93131255602E-01  0.43762594198E-01 -0.83740847976E-01  0.14030628088E+00  0.45658815303E-01 0.  0.
         14    1    1    2    0    0  0.85305664547E-02  0.10464571550E-01  0.50559416161E-02  0.14416669775E-01  0.00000000000E+00 0.  1.
     999901    1    3    3    0    0  0.84600689147E-01 -0.54227165748E-01  0.78684906360E-01  0.88920704934E+00  0.88000000000E+00 0.  1.
        -11    1    4    4    0    0 -0.31429426931E-01 -0.61074736664E-02 -0.33797832121E-01  0.46558186056E-01  0.51100000000E-03 0. -1.
         11    1    4    4    0    0 -0.61701828671E-01  0.49870067864E-01 -0.49943015855E-01  0.93748094828E-01  0.51100000000E-03 0.  1.
</event>
<event>
 8    1  0.2257781E+004  0.1043930E+01  0.7957747E-01            NaN
         13   -1    0    0    0    0  0.00000000000E+00  0.00000000000E+00  0.74505805969E-08  0.10566000000E+00  0.10566000000E+00 0. -1.
     999900   -1    0    0    0    0 -0.00000000000E+00 -0.00000000000E+00 -0.74505805969E-08  0.93827000000E+00  0.93827000000E+00 0. -1.
     999902    2    1    2    0    0 -0.56886520513E-03  0.37896357763E-02 -0.13450342000E-01  0.10299444129E+01  0.10298494536E+01 0.  0.
     999903    2    3    3    0    0 -0.31656256754E-01  0.55553073793E-01 -0.11827674162E+00  0.14166829957E+00  0.44634705080E-01 0.  0.
         14    1    1    2    0    0  0.56886520513E-03 -0.37896357763E-02  0.13450342000E-01  0.13985587112E-01  0.00000000000E+00 0. -1.
     999901    1    3    3    0    0  0.31087391549E-01 -0.51763438017E-01  0.10482639961E+00  0.88827611331E+00  0.88000000000E+00 0.  1.
        -11    1    4    4    0    0 -0.23591660889E-01  0.51193745273E-01 -0.58683404435E-01  0.81371795455E-01  0.51100000000E-03 0. -1.
         11    1    4    4    0    0 -0.80645958654E-02  0.43593285195E-02 -0.59593337180E-01  0.60296504118E-01  0.51100000000E-03 0.  1.
</event>
<event>
 7    1  0.2257781E+004  0.1043930E+01  0.7957747E-01            NaN
         13   -1    0    0    0    0  0.00000000000E+00  0.00000000000E+00  0.74505805969E-08  0.10566000000E+00  0.10566000000E+00 0. -1.
     999900   -1    0    0    0    0 -0.00000000000E+00 -0.00000000000E+00 -0.74505805969E-08  0.93827000000E+00  0.93827000000E+00 0.  1.
     999903    2    1    2    0    0  0.69489257965E-01 -0.80933696651E-01  0.88122268964E-02  0.11597162831E+00  0.44640150129E-01 0.  0.
         14    1    1    2    0    0  0.36944800262E-01  0.56448737021E-02  0.78878945546E-02  0.38196881365E-01  0.00000000000E+00 0. -1.
     999901    1    1    2    0    0 -0.10643405823E+00  0.75288822949E-01 -0.16700121451E-01  0.88976149033E+00  0.88000000000E+00 0. -1.
        -11    1    3    3    0    0  0.34437352433E-01 -0.65277371848E-01 -0.76434503512E-02  0.74200741049E-01  0.51100000000E-03 0.  1.
         11    1    3    3    0    0  0.35051905532E-01 -0.15656324803E-01  0.16455677248E-01  0.41770887259E-01  0.51100000000E-03 0. -1.
</event>
<event>
 8    1  0.2257781E+004  0.1043930E+01  0.7957747E-01            NaN
         13   -1    0    0    0    0  0.00000000000E+00  0.00000000000E+00  0.74505805969E-08  0.10566000000E+00  0.10566000000E+00 0. -1.
     999900   -1    0    0    0    0 -0.00000000000E+00 -0.00000000000E+00 -0.74505805969E-08  0.93827000000E+00  0.93827000000E+00 0. -1.
     999902    2    1    2    0    0 -0.12223148528E-01  0.36623455516E-02 -0.38979856037E-02  0.10305878702E+01  0.10305015021E+01 0.  0.
     999903    2    3    3    0    0 -0.46866502943E-01 -0.27390547825E-01  0.12164026134E+00  0.14046187037E+00  0.44569862454E-01 0.  0.
         14    1    1    2    0    0  0.12223148528E-01 -0.36623455516E-02  0.38979856037E-02  0.13342129764E-01  0.00000000000E+00 0.  1.
     999901    1    3    3    0    0  0.34643354415E-01  0.31052893376E-01 -0.12553824695E+00  0.89012599987E+00  0.88000000000E+00 0. -1.
        -11    1    4    4    0    0 -0.23021834163E-01 -0.96075767752E-02  0.10153353297E+00  0.10455443471E+00  0.51100000000E-03 0. -1.
         11    1    4    4    0    0 -0.23844668780E-01 -0.17782971050E-01  0.20106728379E-01  0.35907435660E-01  0.51100000000E-03 0.  1.
</event>
<event>
 8    1  0.2257781E+004  0.1043930E+01  0.7957747E-01            NaN
         13   -1    0    0    0    0  0.00000000000E+00  0.00000000000E+00  0.74505805969E-08  0.10566000000E+00  0.10566000000E+00 0. -1.
     999900   -1    0    0    0    0 -0.00000000000E+00 -0.00000000000E+00 -0.74505805969E-08  0.93827000000E+00  0.93827000000E+00 0.  1.
     999902    2    1    2    0    0 -0.51014171345E-02 -0.88455248410E-02 -0.10957352514E-01  0.10289523052E+01  0.10288432899E+01 0.  0.
     999903    2    3    3    0    0 -0.35538905248E-01 -0.30102971565E-01 -0.12164270222E+00  0.14124201107E+00  0.54618275376E-01 0.  0.
         14    1    1    2    0    0  0.51014171345E-02  0.88455248410E-02  0.10957352514E-01  0.14977694769E-01  0.00000000000E+00 0. -1.
     999901    1    3    3    0    0  0.30437488113E-01  0.21257446724E-01  0.11068534970E+00  0.88771029416E+00  0.88000000000E+00 0. -1.
        -11    1    4    4    0    0 -0.16584050181E-01 -0.16082848521E-01 -0.11419859267E+00  0.11651295389E+00  0.51100000000E-03 0.  1.
         11    1    4    4    0    0 -0.18954855066E-01 -0.14020123044E-01 -0.74441095484E-02  0.24729057174E-01  0.51100000000E-03 0. -1.
</event>
<event>
 8    1  0.2257781E+004  0.1043930E+01  0.7957747E-01            NaN
         13   -1    0    0    0    0  0.00000000000E+00  0.00000000000E+00  0.74505805969E-08  0.10566000000E+00  0.10566000000E+00 0.  1.
     999900   -1    0    0    0    0 -0.00000000000E+00 -0.00000000000E+00 -0.74505805969E-08  0.93827000000E+00  0.93827000000E+00 0.  1.
     999902    2    1    2    0    0  0.66472913622E-02 -0.61633449024E-03 -0.11716274171E-01  0.10304452890E+01  0.10303570528E+01 0.  0.
     999903    2    3    3    0    0 -0.88611468485E-01 -0.76680369628E-01  0.59937078108E-01  0.13915736039E+00  0.45171298246E-01 0.  0.
         14    1    1    2    0    0 -0.66472913622E-02  0.61633449024E-03  0.11716274171E-01  0.13484711013E-01  0.00000000000E+00 0.  1.
     999901    1    3    3    0    0  0.95258759847E-01  0.76064035138E-01 -0.71653352280E-01  0.89128792860E+00  0.88000000000E+00 0. -1.
        -11    1    4    4    0    0 -0.39545357035E-01 -0.20424034249E-01  0.44476711542E-01  0.62923885994E-01  0.51100000000E-03 0. -1.
         11    1    4    4    0    0 -0.49066111450E-01 -0.56256335379E-01  0.15460366567E-01  0.76233474396E-01  0.51100000000E-03 0.  1.
</event>
<event>
 8    1  0.2257781E+004  0.1043930E+01  0.7957747E-01            NaN
         13   -1    0    0    0    0  0.00000000000E+00  0.00000000000E+00  0.74505805969E-08  0.10566000000E+00  0.10566000000E+00 0. -1.
     999900   -1    0    0    0    0 -0.00000000000E+00 -0.00000000000E+00 -0.74505805969E-08  0.93827000000E+00  0.93827000000E+00 0.  1.
     999902    2    1    2    0    0  0.12266305221E-01  0.99245747231E-02 -0.38242474399E-02  0.10276947206E+01  0.10275664721E+01 0.  0.
     999903    2    3    3    0    0  0.20699077706E-01  0.92084337954E-01 -0.92297799056E-01  0.13941047127E+00  0.44815384369E-01 0.  0.
         14    1    1    2    0    0 -0.12266305221E-01 -0.99245747231E-02  0.38242474399E-02  0.16235279354E-01  0.00000000000E+00 0. -1.
     999901    1    3    3    0    0 -0.84327724848E-02 -0.82159763231E-01  0.88473551617E-01  0.88828424937E+00  0.88000000000E+00 0. -1.
        -11    1    4    4    0    0  0.29785043720E-01  0.72930241623E-01 -0.87364129531E-01  0.11763809426E+00  0.51100000000E-03 0. -1.
         11    1    4    4    0    0 -0.90859660142E-02  0.19154096331E-01 -0.49336695255E-02  0.21772377010E-01  0.51100000000E-03 0.  1.
</event>
<event>
 8    1  0.2257781E+004  0.1043930E+01  0.7957747E-01            NaN
         13   -1    0    0    0    0  0.00000000000E+00  0.00000000000E+00  0.74505805969E-08  0.10566000000E+00  0.10566000000E+00 0.  1.
     999900   -1    0    0    0    0 -0.00000000000E+00 -0.00000000000E+00 -0.74505805969E-08  0.93827000000E+00  0.93827000000E+00 0. -1.
     999902    2    1    2    0    0  0.11295052849E-01 -0.36270098861E-02  0.26888863944E-02  0.10317659740E+01  0.10316942674E+01 0.  0.
     999903    2    3    3    0    0 -0.17284821719E-01  0.48270698792E-01  0.12387485565E+00  0.14148724202E+00  0.45219844857E-01 0.  0.
         14    1    1    2    0    0 -0.11295052849E-01  0.36270098861E-02 -0.26888863944E-02  0.12164026045E-01  0.00000000000E+00 0.  1.
     999901    1    3    3    0    0  0.28579874568E-01 -0.51897708678E-01 -0.12118596925E+00  0.89027873194E+00  0.88000000000E+00 0. -1.
        -11    1    4    4    0    0  0.45390486721E-02  0.12763767805E-01  0.79341467899E-01  0.80491281396E-01  0.51100000000E-03 0.  1.
         11    1    4    4    0    0 -0.21823870391E-01  0.35506930987E-01  0.44533387746E-01  0.60995960621E-01  0.51100000000E-03 0. -1.
</event>
<event>
 7    1  0.2257781E+004  0.1043930E+01  0.7957747E-01            NaN
         13   -1    0    0    0    0  0.00000000000E+00  0.00000000000E+00  0.74505805969E-08  0.10566000000E+00  0.10566000000E+00 0.  1.
     999900   -1    0    0    0    0 -0.00000000000E+00 -0.00000000000E+00 -0.74505805969E-08  0.93827000000E+00  0.93827000000E+00 0. -1.
     999903    2    1    2    0    0  0.85405816746E-01  0.43702401824E-01  0.65258640615E-01  0.12405917506E+00  0.43908259844E-01 0.  0.
         14    1    1    2    0    0  0.20003900438E-01 -0.23092206989E-01  0.31019901671E-02  0.30708767467E-01  0.00000000000E+00 0.  1.
     999901    1    1    2    0    0 -0.10540971718E+00 -0.20610194835E-01 -0.68360630782E-01  0.88916205747E+00  0.88000000000E+00 0. -1.
        -11    1    3    3    0    0  0.45849546658E-01  0.40432142644E-01  0.56855377748E-01  0.83484933895E-01  0.51100000000E-03 0.  1.
         11    1    3    3    0    0  0.39556270088E-01  0.32702591802E-02  0.84032628669E-02  0.40574241166E-01  0.51100000000E-03 0. -1.
</event>
<event>
 8    1  0.2257781E+004  0.1043930E+01  0.7957747E-01            NaN
         13   -1    0    0    0    0  0.00000000000E+00  0.00000000000E+00  0.74505805969E-08  0.10566000000E+00  0.10566000000E+00 0. -1.
     999900   -1    0    0    0    0 -0.00000000000E+00 -0.00000000000E+00 -0.74505805969E-08  0.93827000000E+00  0.93827000000E+00 0.  1.
     999902    2    1    2    0    0  0.11701235826E-01  0.48049371597E-02  0.65277118098E-02  0.10296956274E+01  0.10295972357E+01 0.  0.
     999903    2    3    3    0    0 -0.31362720977E-02 -0.10892503185E+00  0.74912010096E-01  0.13962199579E+00  0.44810642556E-01 0.  0.
         14    1    1    2    0    0 -0.11701235826E-01 -0.48049371597E-02 -0.65277118098E-02  0.14234372569E-01  0.00000000000E+00 0.  1.
     999901    1    3    3    0    0  0.14837507924E-01  0.11372996901E+00 -0.68384298286E-01  0.89007363164E+00  0.88000000000E+00 0.  1.
        -11    1    4    4    0    0  0.70153597776E-02 -0.90055414549E-01  0.76161371016E-01  0.11815247995E+00  0.51100000000E-03 0.  1.
         11    1    4    4    0    0 -0.10151631875E-01 -0.18869617297E-01 -0.12493609196E-02  0.21469515839E-01  0.51100000000E-03 0. -1.
</event>
<event>
 8    1  0.2257781E+004  0.1043930E+01  0.7957747E-01            NaN
         13   -1    0    0    0    0  0.00000000000E+00  0.00000000000E+00  0.74505805969E-08  0.10566000000E+00  0.10566000000E+00 0. -1.
     999900   -1    0    0    0    0 -0.00000000000E+00 -0.00000000000E+00 -0.74505805969E-08  0.93827000000E+00  0.93827000000E+00 0.  1.
     999902    2    1    2    0    0 -0.13189884448E-01 -0.48002992439E-03 -0.32336541263E-02  0.10303410339E+01  0.10302514189E+01 0.  0.
     999903    2    3    3    0    0 -0.77850915108E-01 -0.27571131421E-01 -0.10437117837E+00  0.14177827558E+00  0.48854930998E-01 0.  0.
         14    1    1    2    0    0  0.13189884448E-01  0.48002992439E-03  0.32336541263E-02  0.13588966094E-01  0.00000000000E+00 0. -1.
     999901    1    3    3    0    0  0.64661030659E-01  0.27091101497E-01  0.10113752424E+00  0.88856275832E+00  0.88000000000E+00 0. -1.
        -11    1    4    4    0    0 -0.32935247471E-02 -0.20085126733E-01 -0.29554066493E-01  0.35888209602E-01  0.51100000000E-03 0. -1.
         11    1    4    4    0    0 -0.74557390361E-01 -0.74860046886E-02 -0.74817111875E-01  0.10589006598E+00  0.51100000000E-03 0.  1.
</event>
<event>
 8    1  0.2257781E+004  0.1043930E+01  0.7957747E-01            NaN
         13   -1    0    0    0    0  0.00000000000E+00  0.00000000000E+00  0.74505805969E-08  0.10566000000E+00  0.10566000000E+00 0.  1.
     999900   -1    0    0    0    0 -0.00000000000E+00 -0.00000000000E+00 -0.74505805969E-08  0.93827000000E+00  0.93827000000E+00 0. -1.
     999902    2    1    2    0    0  0.50687167987E-02  0.58561569583E-02 -0.94780799941E-02  0.10316898830E+01  0.10316172712E+01 0.  0.
     999903    2    3    3    0    0 -0.11118354217E+00  0.26777363605E-03  0.73747260516E-01  0.14013378545E+00  0.42859860444E-01 0.  0.
         14    1    1    2    0    0 -0.50687167987E-02 -0.58561569583E-02  0.94780799941E-02  0.12240117021E-01  0.00000000000E+00 0.  1.
     999901    1    3    3    0    0  0.11625225897E+00  0.55883833222E-02 -0.83225340510E-01  0.89155609753E+00  0.88000000000E+00 0. -1.
        -11    1    4    4    0    0 -0.68135269146E-02  0.16611668881E-03 -0.57524387826E-02  0.89332758111E-02  0.51100000000E-03 0. -1.
         11    1    4    4    0    0 -0.10437001526E+00  0.10165694724E-03  0.79499699299E-01  0.13120050964E+00  0.51100000000E-03 0.  1.
</event>
<event>
 8    1  0.2257781E+004  0.1043930E+01  0.7957747E-01            NaN
         13   -1    0    0    0    0  0.00000000000E+00  0.00000000000E+00  0.74505805969E-08  0.10566000000E+00  0.10566000000E+00 0. -1.
     999900   -1    0    0    0    0 -0.00000000000E+00 -0.00000000000E+00 -0.74505805969E-08  0.93827000000E+00  0.93827000000E+00 0. -1.
     999902    2    1    2    0    0  0.70398244984E-02  0.84813949856E-02  0.76090746073E-02  0.10305362998E+01  0.10304492583E+01 0.  0.
     999903    2    3    3    0    0 -0.12480585346E+00  0.43543674241E-01 -0.56115805902E-02  0.13992559246E+00  0.45553583431E-01 0.  0.
         14    1    1    2    0    0 -0.70398244984E-02 -0.84813949856E-02 -0.76090746073E-02  0.13393700245E-01  0.00000000000E+00 0.  1.
     999901    1    3    3    0    0  0.13184567796E+00 -0.35062279255E-01  0.13220655197E-01  0.89061070729E+00  0.88000000000E+00 0.  1.
        -11    1    4    4    0    0 -0.10546086848E+00  0.47417882327E-01  0.80673046991E-02  0.11591286758E+00  0.51100000000E-03 0.  1.
         11    1    4    4    0    0 -0.19344984982E-01 -0.38742080865E-02 -0.13678885289E-01  0.24012724877E-01  0.51100000000E-03 0. -1.
</event>
<event>
 8    1  0.2257781E+004  0.1043930E+01  0.7957747E-01            NaN
         13   -1    0    0    0    0  0.00000000000E+00  0.00000000000E+00  0.74505805969E-08  0.10566000000E+00  0.10566000000E+00 0. -1.
     999900   -1    0    0    0    0 -0.00000000000E+00 -0.00000000000E+00 -0.74505805969E-08  0.93827000000E+00  0.93827000000E+00 0.  1.
     999902    2    1    2    0    0  0.69723106634E-02  0.70869913167E-02 -0.84142996863E-02  0.10309054462E+01  0.10308231662E+01 0.  0.
     999903    2    3    3    0    0  0.11810520392E+00  0.61813303459E-01  0.33217031359E-01  0.14125458384E+00  0.32859741420E-01 0.  0.
         14    1    1    2    0    0 -0.69723106634E-02 -0.70869913167E-02  0.84142996863E-02  0.13024553778E-01  0.00000000000E+00 0. -1.
     999901    1    3    3    0    0 -0.11113289326E+00 -0.54726312142E-01 -0.41631331045E-01  0.88965086238E+00  0.88000000000E+00 0.  1.
        -11    1    4    4    0    0  0.23517103157E-01  0.45412199718E-02 -0.45904693224E-02  0.24392833975E-01  0.51100000000E-03 0.  1.
         11    1    4    4    0    0  0.94588100767E-01  0.57272083487E-01  0.37807500681E-01  0.11686174987E+00  0.51100000000E-03 0. -1.
</event>
<event>
 8    1  0.2257781E+004  0.1043930E+01  0.7957747E-01            NaN
         13   -1    0    0    0    0  0.00000000000E+00  0.00000000000E+00  0.74505805969E-08  0.10566000000E+00  0.10566000000E+00 0.  1.
     999900   -1    0    0    0    0 -0.00000000000E+00 -0.00000000000E+00 -0.74505805969E-08  0.93827000000E+00  0.93827000000E+00 0. -1.
     999902    2    1    2    0    0 -0.82819385772E-02  0.10325039650E-01 -0.36146513252E-02  0.10302091161E+01  0.10301177410E+01 0.  0.
     999903    2    3    3    0    0  0.44786399873E-01 -0.11513724295E+00 -0.44389307852E-01  0.13879473127E+00  0.45068397429E-01 0.  0.
         14    1    1    2    0    0  0.82819385772E-02 -0.10325039650E-01  0.36146513252E-02  0.13720883885E-01  0.00000000000E+00 0.  1.
     999901    1    3    3    0    0 -0.53068338451E-01  0.12546228260E+00  0.40774656527E-01  0.89141438485E+00  0.88000000000E+00 0.  1.
        -11    1    4    4    0    0  0.16413177469E-01 -0.22349644878E-01 -0.29740329673E-01  0.40665063025E-01  0.51100000000E-03 0. -1.
         11    1    4    4    0    0  0.28373222404E-01 -0.92787598076E-01 -0.14648978180E-01  0.98129668240E-01  0.51100000000E-03 0.  1.
</event>
<event>
 7    1  0.2257781E+004  0.1043930E+01  0.7957747E-01            NaN
         13   -1    0    0    0    0  0.00000000000E+00  0.00000000000E+00  0.74505805969E-08  0.10566000000E+00  0.10566000000E+00 0.  1.
     999900   -1    0    0    0    0 -0.00000000000E+00 -0.00000000000E+00 -0.74505805969E-08  0.93827000000E+00  0.93827000000E+00 0. -1.
     999903    2    1    2    0    0  0.14357238738E-01  0.47432779805E-01  0.78106535333E-01  0.10295697873E+00  0.45205195528E-01 0.  0.
         14    1    1    2    0    0  0.37493500290E-01 -0.53008977609E-02 -0.43625526215E-01  0.57767193273E-01  0.00000000000E+00 0. -1.
     999901    1    1    2    0    0 -0.51850739028E-01 -0.42131882044E-01 -0.34481009118E-01  0.88320582800E+00  0.88000000000E+00 0. -1.
        -11    1    3    3    0    0  0.19377713259E-01  0.40870471597E-01  0.30313676875E-01  0.54452468689E-01  0.51100000000E-03 0. -1.
         11    1    3    3    0    0 -0.50204745214E-02  0.65623082087E-02  0.47792858458E-01  0.48504510038E-01  0.51100000000E-03 0.  1.
</event>
<event>
 8    1  0.2257781E+004  0.1043930E+01  0.7957747E-01            NaN
         13   -1    0    0    0    0  0.00000000000E+00  0.00000000000E+00  0.74505805969E-08  0.10566000000E+00  0.10566000000E+00 0.  1.
     999900   -1    0    0    0    0 -0.00000000000E+00 -0.00000000000E+00 -0.74505805969E-08  0.93827000000E+00  0.93827000000E+00 0.  1.
     999902    2    1    2    0    0 -0.92104249538E-03 -0.88912464646E-02  0.12210205250E-01  0.10287975284E+01  0.10286862315E+01 0.  0.
     999903    2    3    3    0    0 -0.32668706740E-01  0.10799826984E-01 -0.12520338586E+00  0.13735030759E+00  0.44781006028E-01 0.  0.
         14    1    1    2    0    0  0.92104249538E-03  0.88912464646E-02 -0.12210205250E-01  0.15132471550E-01  0.00000000000E+00 0. -1.
     999901    1    3    3    0    0  0.31747664245E-01 -0.19691073449E-01  0.13741359111E+00  0.89144722086E+00  0.88000000000E+00 0. -1.
        -11    1    4    4    0    0 -0.40443773085E-01  0.15372409071E-01 -0.11834602230E+00  0.12600814203E+00  0.51100000000E-03 0.  1.
         11    1    4    4    0    0  0.77750663448E-02 -0.45725820867E-02 -0.68573635582E-02  0.11342165559E-01  0.51100000000E-03 0. -1.
</event>
<event>
 8    1  0.2257781E+004  0.1043930E+01  0.7957747E-01            NaN
         13   -1    0    0    0    0  0.00000000000E+00  0.00000000000E+00  0.74505805969E-08  0.10566000000E+00  0.10566000000E+00 0. -1.
     999900   -1    0    0    0    0 -0.00000000000E+00 -0.00000000000E+00 -0.74505805969E-08  0.93827000000E+00  0.93827000000E+00 0.  1.
     999902    2    1    2    0    0 -0.51497228893E-02 -0.13044155321E-01 -0.27103424866E-02  0.10296465974E+01  0.10295475219E+01 0.  0.
     999903    2    3    3    0    0 -0.10770323575E+00 -0.77396066279E-01 -0.17066552350E-01  0.14124100746E+00  0.45471055773E-01 0.  0.
         14    1    1    2    0    0  0.51497228893E-02  0.13044155321E-01  0.27103424866E-02  0.14283402615E-01  0.00000000000E+00 0. -1.
     999901    1    3    3    0    0  0.10255351286E+00  0.64351910958E-01  0.14356209864E-01  0.88840558992E+00  0.88000000000E+00 0.  1.
        -11    1    4    4    0    0 -0.76644465571E-01 -0.69875390745E-01  0.25360133816E-02  0.10374794851E+00  0.51100000000E-03 0.  1.
         11    1    4    4    0    0 -0.31058770180E-01 -0.75206755341E-02 -0.19602565732E-01  0.37493058956E-01  0.51100000000E-03 0. -1.
</event>
<event>
 8    1  0.2257781E+004  0.1043930E+01  0.7957747E-01            NaN
         13   -1    0    0    0    0  0.00000000000E+00  0.00000000000E+00  0.74505805969E-08  0.10566000000E+00  0.10566000000E+00 0.  1.
     999900   -1    0    0    0    0 -0.00000000000E+00 -0.00000000000E+00 -0.74505805969E-08  0.93827000000E+00  0.93827000000E+00 0. -1.
     999902    2    1    2    0    0  0.27483293258E-02  0.95157486075E-02  0.40747525289E-02  0.10332198929E+01  0.10331643822E+01 0.  0.
     999903    2    3    3    0    0  0.49309985377E-01 -0.12405472221E+00  0.18857811989E-01  0.14180102541E+00  0.43941608695E-01 0.  0.
         14    1    1    2    0    0 -0.27483293258E-02 -0.95157486075E-02 -0.40747525289E-02  0.10710107087E-01  0.00000000000E+00 0.  1.
     999901    1    3    3    0    0 -0.46561656051E-01  0.13357047082E+00 -0.14783059460E-01  0.89141886750E+00  0.88000000000E+00 0. -1.
        -11    1    4    4    0    0  0.39589064769E-01 -0.97189501728E-01 -0.42824813989E-02  0.10503187165E+00  0.51100000000E-03 0.  1.
         11    1    4    4    0    0  0.97209206082E-02 -0.26865220482E-01  0.23140293388E-01  0.36769153758E-01  0.51100000000E-03 0. -1.
</event>
<event>
 8    1  0.2257781E+004  0.1043930E+01  0.7957747E-01            NaN
         13   -1    0    0    0    0  0.00000000000E+00  0.00000000000E+00  0.74505805969E-08  0.10566000000E+00  0.10566000000E+00 0. -1.
     999900   -1    0    0    0    0 -0.00000000000E+00 -0.00000000000E+00 -0.74505805969E-08  0.93827000000E+00  0.93827000000E+00 0.  1.
     999902    2    1    2    0    0 -0.17676164595E-02  0.12202132959E-01 -0.56235458456E-02  0.10303785874E+01  0.10302894702E+01 0.  0.
     999903    2    3    3    0    0 -0.45061951298E-01  0.10527751165E+00  0.72154317295E-01  0.14100418839E+00  0.39522167516E-01 0.  0.
         14    1    1    2    0    0  0.17676164595E-02 -0.12202132959E-01  0.56235458456E-02  0.13551412641E-01  0.00000000000E+00 0.  1.
     999901    1    3    3    0    0  0.43294334838E-01 -0.93075378691E-01 -0.77777863140E-01  0.88937439897E+00  0.88000000000E+00 0.  1.
        -11    1    4    4    0    0 -0.50478784517E-01  0.84738502993E-01  0.51077099311E-01  0.11107588744E+00  0.51100000000E-03 0. -1.
         11    1    4    4    0    0  0.54168332191E-02  0.20539008657E-01  0.21077217984E-01  0.29928300949E-01  0.51100000000E-03 0.  1.
</event>
<event>
 8    1  0.2257781E+004  0.1043930E+01  0.7957747E-01            NaN
         13   -1    0    0    0    0  0.00000000000E+00  0.00000000000E+00  0.74505805969E-08  0.10566000000E+00  0.10566000000E+00 0.  1.
     999900   -1    0    0    0    0 -0.00000000000E+00 -0.00000000000E+00 -0.74505805969E-08  0.93827000000E+00  0.93827000000E+00 0. -1.
     999902    2    1    2    0    0  0.79050481648E-02 -0.16898206082E-02 -0.97443884580E-02  0.10312691001E+01  0.10311913782E+01 0.  0.
     999903    2    3    3    0    0 -0.28033062646E-01  0.11051617300E+00 -0.70805957963E-01  0.14131952394E+00  0.44249825626E-01 0.  0.
         14    1    1    2    0    0 -0.79050481648E-02  0.16898206082E-02  0.97443884580E-02  0.12660899913E-01  0.00000000000E+00 0.  1.
     999901    1    3    3    0    0  0.35938110811E-01 -0.11220599361E+00  0.61061569505E-01  0.88994957615E+00  0.88000000000E+00 0.  1.
        -11    1    4    4    0    0 -0.58774934622E-02  0.31070342632E-01 -0.44799600686E-01  0.54837728466E-01  0.51100000000E-03 0. -1.
         11    1    4    4    0    0 -0.22155569184E-01  0.79445830370E-01 -0.26006357277E-01  0.86481795477E-01  0.51100000000E-03 0.  1.
</event>
<event>
 8    1  0.2257781E+004  0.1043930E+01  0.7957747E-01            NaN
         13   -1    0    0    0    0  0.00000000000E+00  0.00000000000E+00  0.74505805969E-08  0.10566000000E+00  0.10566000000E+00 0. -1.
     999900   -1    0    0    0    0 -0.00000000000E+00 -0.00000000000E+00 -0.74505805969E-08  0.93827000000E+00  0.93827000000E+00 0. -1.
     999902    2    1    2    0    0 -0.11407691793E-01  0.38784988529E-02  0.74685333529E-02  0.10297540635E+01  0.10296564835E+01 0.  0.
     999903    2    3    3    0    0 -0.95278487080E-01  0.12118773644E-01 -0.92205112715E-01  0.14012658631E+00  0.43690074462E-01 0.  0.
         14    1    1    2    0    0  0.11407691793E-01 -0.38784988529E-02 -0.74685333529E-02  0.14175936507E-01  0.00000000000E+00 0. -1.
     999901    1    3    3    0    0  0.83870795287E-01 -0.82402747910E-02  0.99673646068E-01  0.88962747718E+00  0.88000000000E+00 0.  1.
        -11    1    4    4    0    0 -0.48305591938E-01  0.24011350506E-01 -0.31562678430E-01  0.62501511632E-01  0.51100000000E-03 0. -1.
         11    1    4    4    0    0 -0.46972895143E-01 -0.11892576862E-01 -0.60642434285E-01  0.77625074683E-01  0.51100000000E-03 0.  1.
</event>
<event>
 8    1  0.2257781E+004  0.1043930E+01  0.7957747E-01            NaN
         13   -1    0    0    0    0  0.00000000000E+00  0.00000000000E+00  0.74505805969E-08  0.10566000000E+00  0.10566000000E+00 0. -1.
     999900   -1    0    0    0    0 -0.00000000000E+00 -0.00000000000E+00 -0.74505805969E-08  0.93827000000E+00  0.93827000000E+00 0.  1.
     999902    2    1    2    0    0 -0.19887348660E-03 -0.97661812954E-02 -0.12066473406E-01  0.10284052575E+01  0.10282880706E+01 0.  0.
     999903    2    3    3    0    0  0.20960029858E-01  0.10869642578E+00 -0.69458998036E-01  0.13836312913E+00  0.45448512254E-01 0.  0.
         14    1    1    2    0    0  0.19887348660E-03  0.97661812954E-02  0.12066473406E-01  0.15524742452E-01  0.00000000000E+00 0. -1.
     999901    1    3    3    0    0 -0.21158903344E-01 -0.11846260708E+00  0.57392524630E-01  0.89004212841E+00  0.88000000000E+00 0.  1.
        -11    1    4    4    0    0  0.26607699701E-01  0.29989314516E-01 -0.16665283156E-01  0.43420288486E-01  0.51100000000E-03 0.  1.
         11    1    4    4    0    0 -0.56476698432E-02  0.78707111267E-01 -0.52793714879E-01  0.94942840649E-01  0.51100000000E-03 0. -1.
</event>
<event>
 8    1  0.2257781E+004  0.1043930E+01  0.7957747E-01            NaN
         13   -1    0    0    0    0  0.00000000000E+00  0.00000000000E+00  0.74505805969E-08  0.10566000000E+00  0.10566000000E+00 0.  1.
     999900   -1    0    0    0    0 -0.00000000000E+00 -0.00000000000E+00 -0.74505805969E-08  0.93827000000E+00  0.93827000000E+00 0. -1.
     999902    2    1    2    0    0 -0.13130997516E-01 -0.57619563549E-02 -0.16704321529E-02  0.10294934637E+01  0.10293922373E+01 0.  0.
     999903    2    3    3    0    0 -0.34667334757E-01  0.91831850803E-01 -0.88456576275E-01  0.13959448076E+00  0.45023774301E-01 0.  0.
         14    1    1    2    0    0  0.13130997516E-01  0.57619563549E-02  0.16704321529E-02  0.14436536301E-01  0.00000000000E+00 0. -1.
     999901    1    3    3    0    0  0.21536337241E-01 -0.97593807158E-01  0.86786144122E-01  0.88989898294E+00  0.88000000000E+00 0.  1.
        -11    1    4    4    0    0 -0.38900706866E-01  0.64927716951E-01 -0.82012257935E-01  0.11160262092E+00  0.51100000000E-03 0.  1.
         11    1    4    4    0    0  0.42333721089E-02  0.26904133852E-01 -0.64443183399E-02  0.27991859846E-01  0.51100000000E-03 0. -1.
</event>
<event>
 8    1  0.2257781E+004  0.1043930E+01  0.7957747E-01            NaN
         13   -1    0    0    0    0  0.00000000000E+00  0.00000000000E+00  0.74505805969E-08  0.10566000000E+00  0.10566000000E+00 0. -1.
     999900   -1    0    0    0    0 -0.00000000000E+00 -0.00000000000E+00 -0.74505805969E-08  0.93827000000E+00  0.93827000000E+00 0.  1.
     999902    2    1    2    0    0 -0.54339798200E-02  0.30444597732E-02 -0.12787278092E-01  0.10297063805E+01  0.10296081384E+01 0.  0.
     999903    2    3    3    0    0 -0.11152881460E+00  0.13117960755E-01 -0.72831974494E-01  0.14124537683E+00  0.45111002953E-01 0.  0.
         14    1    1    2    0    0  0.54339798200E-02 -0.30444597732E-02  0.12787278092E-01  0.14223619547E-01  0.00000000000E+00 0. -1.
     999901    1    3    3    0    0  0.10609483478E+00 -0.10073500982E-01  0.60044696402E-01  0.88846100362E+00  0.88000000000E+00 0. -1.
        -11    1    4    4    0    0 -0.36947024234E-01  0.21275151617E-01 -0.42847600957E-01  0.60447437538E-01  0.51100000000E-03 0. -1.
         11    1    4    4    0    0 -0.74581790365E-01 -0.81571908621E-02 -0.29984373537E-01  0.80797939295E-01  0.51100000000E-03 0.  1.
</event>
<event>
 7    1  0.2257781E+004  0.1043930E+01  0.7957747E-01            NaN
         13   -1    0    0    0    0  0.00000000000E+00  0.00000000000E+00  0.74505805969E-08  0.10566000000E+00  0.10566000000E+00 0.  1.
     999900   -1    0    0    0    0 -0.00000000000E+00 -0.00000000000E+00 -0.74505805969E-08  0.93827000000E+00  0.93827000000E+00 0.  1.
     999902    2    1    2    0    0  0.14212278803E-01  0.36531980486E-02  0.77612969831E-04  0.10292555069E+01  0.10291508916E+01 0.  0.
         14    1    1    2    0    0 -0.14212278803E-01 -0.36531980486E-02 -0.77612969831E-04  0.14674493127E-01  0.00000000000E+00 0. -1.
     999901    1    3    3    0    0 -0.23070665390E-01  0.10448235439E+00 -0.21487911394E-01  0.88674153411E+00  0.88000000000E+00 0. -1.
        -11    1    3    3    0    0  0.60864775473E-01 -0.42573527670E-01  0.27900999152E-01  0.79345781402E-01  0.51100000000E-03 0.  1.
         11    1    3    3    0    0 -0.23581831280E-01 -0.58255628668E-01 -0.63354747882E-02  0.63168191361E-01  0.51100000000E-03 0. -1.
</event>
<event>
 8    1  0.2257781E+004  0.1043930E+01  0.7957747E-01            NaN
         13   -1    0    0    0    0  0.00000000000E+00  0.00000000000E+00  0.74505805969E-08  0.10566000000E+00  0.10566000000E+00 0.  1.
     999900   -1    0    0    0    0 -0.00000000000E+00 -0.00000000000E+00 -0.74505805969E-08  0.93827000000E+00  0.93827000000E+00 0. -1.
     999902    2    1    2    0    0 -0.72722788788E-02 -0.50171186016E-02  0.10073843032E-01  0.10305307525E+01  0.10304436385E+01 0.  0.
     999903    2    3    3    0    0 -0.78777034639E-01 -0.89718040198E-01  0.62071901084E-01  0.14205398061E+00  0.45511147852E-01 0.  0.
         14    1    1    2    0    0  0.72722788788E-02  0.50171186016E-02 -0.10073843032E-01  0.13399247464E-01  0.00000000000E+00 0. -1.
     999901    1    3    3    0    0  0.71504755760E-01  0.84700921596E-01 -0.51998058052E-01  0.88847677193E+00  0.88000000000E+00 0. -1.
        -11    1    4    4    0    0 -0.45385153162E-01 -0.75708922825E-01  0.28734777607E-01  0.92831038387E-01  0.51100000000E-03 0.  1.
         11    1    4    4    0    0 -0.33391881477E-01 -0.14009117373E-01  0.33337123478E-01  0.49222942221E-01  0.51100000000E-03 0. -1.
</event>
<event>
 8    1  0.2257781E+004  0.1043930E+01  0.7957747E-01            NaN
         13   -1    0    0    0    0  0.00000000000E+00  0.00000000000E+00  0.74505805969E-08  0.10566000000E+00  0.10566000000E+00 0. -1.
     999900   -1    0    0    0    0 -0.00000000000E+00 -0.00000000000E+00 -0.74505805969E-08  0.93827000000E+00  0.93827000000E+00 0. -1.
     999902    2    1    2    0    0 -0.67381979778E-02 -0.57778211920E-03 -0.11824299183E-01  0.10303082822E+01  0.10302182318E+01 0.  0.
     999903    2    3    3    0    0  0.12901670107E+00 -0.27777852708E-01  0.84177663281E-02  0.13925330206E+00  0.43631468995E-01 0.  0.
         14    1    1    2    0    0  0.67381979778E-02  0.57778211920E-03  0.11824299183E-01  0.13621717782E-01  0.00000000000E+00 0. -1.
     999901    1    3    3    0    0 -0.13575489905E+00  0.27200070589E-01 -0.20242065511E-01  0.89105498016E+00  0.88000000000E+00 0. -1.
        -11    1    4    4    0    0  0.31481391140E-01  0.87555396516E-02 -0.84185343956E-02  0.33747152548E-01  0.51100000000E-03 0.  1.
         11    1    4    4    0    0  0.97535309932E-01 -0.36533392359E-01  0.16836300724E-01  0.10550614951E+00  0.51100000000E-03 0. -1.
</event>
<event>
 8    1  0.2257781E+004  0.1043930E+01  0.7957747E-01            NaN
         13   -1    0    0    0    0  0.00000000000E+00  0.00000000000E+00  0.74505805969E-08  0.10566000000E+00  0.10566000000E+00 0.  1.
     999900   -1    0    0    0    0 -0.00000000000E+00 -0.00000000000E+00 -0.74505805969E-08  0.93827000000E+00  0.93827000000E+00 0. -1.
     999902    2    1    2    0    0  0.14460915769E-01  0.47969664872E-03  0.11761210762E-02  0.10294134076E+01  0.10293110474E+01 0.  0.
     999903    2    3    3    0    0  0.75680814017E-01  0.86417830696E-01 -0.64770487673E-01  0.14066023939E+00  0.48933217742E-01 0.  0.
         14    1    1    2    0    0 -0.14460915769E-01 -0.47969664872E-03 -0.11761210762E-02  0.14516592388E-01  0.00000000000E+00 0. -1.
     999901    1    3    3    0    0 -0.61219898248E-01 -0.85938134048E-01  0.65946608749E-01  0.88875316823E+00  0.88000000000E+00 0. -1.
        -11    1    4    4    0    0  0.14249890379E-01  0.38464465201E-01 -0.28471220669E-02  0.41121061320E-01  0.51100000000E-03 0. -1.
         11    1    4    4    0    0  0.61430923638E-01  0.47953365495E-01 -0.61923365606E-01  0.99539178067E-01  0.51100000000E-03 0.  1.
</event>
<event>
 8    1  0.2257781E+004  0.1043930E+01  0.7957747E-01            NaN
         13   -1    0    0    0    0  0.00000000000E+00  0.00000000000E+00  0.74505805969E-08  0.10566000000E+00  0.10566000000E+00 0.  1.
     999900   -1    0    0    0    0 -0.00000000000E+00 -0.00000000000E+00 -0.74505805969E-08  0.93827000000E+00  0.93827000000E+00 0.  1.
     999902    2    1    2    0    0 -0.10837664931E-01  0.29670727943E-02 -0.84004862039E-02  0.10299005071E+01  0.10298049465E+01 0.  0.
     999903    2    3    3    0    0  0.48893058534E-01  0.78884779127E-01 -0.95023540431E-01  0.14038670116E+00  0.45449016226E-01 0.  0.
         14    1    1    2    0    0  0.10837664931E-01 -0.29670727943E-02  0.84004862039E-02  0.14029492884E-01  0.00000000000E+00 0.  1.
     999901    1    3    3    0    0 -0.59730723466E-01 -0.75917706332E-01  0.86623054228E-01  0.88951380595E+00  0.88000000000E+00 0. -1.
        -11    1    4    4    0    0  0.37719851285E-01  0.32762825943E-01 -0.71999668671E-01  0.87637910487E-01  0.51100000000E-03 0.  1.
         11    1    4    4    0    0  0.11173207249E-01  0.46121953184E-01 -0.23023871761E-01  0.52748790674E-01  0.51100000000E-03 0. -1.
</event>
<event>
 8    1  0.2257781E+004  0.1043930E+01  0.7957747E-01            NaN
         13   -1    0    0    0    0  0.00000000000E+00  0.00000000000E+00  0.74505805969E-08  0.10566000000E+00  0.10566000000E+00 0.  1.
     999900   -1    0    0    0    0 -0.00000000000E+00 -0.00000000000E+00 -0.74505805969E-08  0.93827000000E+00  0.93827000000E+00 0. -1.
     999902    2    1    2    0    0 -0.26636013258E-02 -0.21528572787E-02 -0.13425843082E-01  0.10300742132E+01  0.10299810201E+01 0.  0.
     999903    2    3    3    0    0  0.60474342847E-01 -0.95218743703E-01 -0.71785355322E-01  0.14099969892E+00  0.44766310552E-01 0.  0.
         14    1    1    2    0    0  0.26636013258E-02  0.21528572787E-02  0.13425843082E-01  0.13855786840E-01  0.00000000000E+00 0.  1.
     999901    1    3    3    0    0 -0.63137944173E-01  0.93065886424E-01  0.58359512240E-01  0.88907451424E+00  0.88000000000E+00 0.  1.
        -11    1    4    4    0    0  0.15832639925E-01 -0.66264150390E-02 -0.27358492613E-01  0.32300620773E-01  0.51100000000E-03 0.  1.
         11    1    4    4    0    0  0.44641702922E-01 -0.88592328664E-01 -0.44426862709E-01  0.10869907814E+00  0.51100000000E-03 0. -1.
</event>
<event>
 8    1  0.2257781E+004  0.1043930E+01  0.7957747E-01            NaN
         13   -1    0    0    0    0  0.00000000000E+00  0.00000000000E+00  0.74505805969E-08  0.10566000000E+00  0.10566000000E+00 0. -1.
     999900   -1    0    0    0    0 -0.00000000000E+00 -0.00000000000E+00 -0.74505805969E-08  0.93827000000E+00  0.93827000000E+00 0. -1.
     999902    2    1    2    0    0  0.12831869522E-01 -0.16072309481E-02 -0.60274707857E-02  0.10296621876E+01  0.10295633298E+01 0.  0.
     999903    2    3    3    0    0  0.43333060211E-01  0.83370718592E-02  0.12465547705E+00  0.13943342787E+00  0.44220266539E-01 0.  0.
         14    1    1    2    0    0 -0.12831869522E-01  0.16072309481E-02  0.60274707857E-02  0.14267812405E-01  0.00000000000E+00 0.  1.
     999901    1    3    3    0    0 -0.30501190689E-01 -0.99443028073E-02 -0.13068294784E+00  0.89022875973E+00  0.88000000000E+00 0. -1.
        -11    1    4    4    0    0  0.28101839247E-01  0.25549789906E-01  0.91660666268E-01  0.99219171509E-01  0.51100000000E-03 0. -1.
         11    1    4    4    0    0  0.15231220964E-01 -0.17212718047E-01  0.32994810785E-01  0.40214256358E-01  0.51100000000E-03 0.  1.
</event>
<event>
 8    1  0.2257781E+004  0.1043930E+01  0.7957747E-01            NaN
         13   -1    0    0    0    0  0.00000000000E+00  0.00000000000E+00  0.74505805969E-08  0.10566000000E+00  0.10566000000E+00 0. -1.
     999900   -1    0    0    0    0 -0.00000000000E+00 -0.00000000000E+00 -0.74505805969E-08  0.93827000000E+00  0.93827000000E+00 0.  1.
     999902    2    1    2    0    0  0.14398187125E-01  0.44539794727E-03  0.36161010646E-02  0.10290779847E+01  0.10289708044E+01 0.  0.
     999903    2    3    3    0    0 -0.97332255478E-01 -0.84932412000E-01 -0.31310635475E-01  0.13722993757E+00  0.34126489797E-01 0.  0.
         14    1    1    2    0    0 -0.14398187125E-01 -0.44539794727E-03 -0.36161010646E-02  0.14852015309E-01  0.00000000000E+00 0.  1.
     999901    1    3    3    0    0  0.11173044260E+00  0.85377809948E-01  0.34926736540E-01  0.89184804713E+00  0.88000000000E+00 0. -1.
        -11    1    4    4    0    0 -0.19881814017E-01 -0.21164407029E-01  0.69393388817E-02  0.29860244450E-01  0.51100000000E-03 0. -1.
         11    1    4    4    0    0 -0.77450441461E-01 -0.63768004971E-01 -0.38249974357E-01  0.10736969312E+00  0.51100000000E-03 0.  1.
</event>
<event>
 8    1  0.2257781E+004  0.1043930E+01  0.7957747E-01            NaN
         13   -1    0    0    0    0  0.00000000000E+00  0.00000000000E+00  0.74505805969E-08  0.10566000000E+00  0.10566000000E+00 0.  1.
     999900   -1    0    0    0    0 -0.00000000000E+00 -0.00000000000E+00 -0.74505805969E-08  0.93827000000E+00  0.93827000000E+00 0. -1.
     999902    2    1    2    0    0 -0.15890368420E-02 -0.11651807868E-01 -0.74267919342E-02  0.10300214809E+01  0.10299275723E+01 0.  0.
     999903    2    3    3    0    0 -0.71608041477E-01 -0.92324059271E-01  0.64163335513E-01  0.14067575539E+00  0.44958770080E-01 0.  0.
         14    1    1    2    0    0  0.15890368420E-02  0.11651807868E-01  0.74267919342E-02  0.13908519084E-01  0.00000000000E+00 0.  1.
     999901    1    3    3    0    0  0.70019004635E-01  0.80672251404E-01 -0.71590127447E-01  0.88934572552E+00  0.88000000000E+00 0. -1.
        -11    1    4    4    0    0 -0.17561401449E-01 -0.90854809365E-02  0.29564946117E-01  0.35570998645E-01  0.51100000000E-03 0. -1.
         11    1    4    4    0    0 -0.54046640029E-01 -0.83238578335E-01  0.34598389396E-01  0.10510475675E+00  0.51100000000E-03 0.  1.
</event>
<event>
 8    1  0.2257781E+004  0.1043930E+01  0.7957747E-01            NaN
         13   -1    0    0    0    0  0.00000000000E+00  0.00000000000E+00  0.74505805969E-08  0.10566000000E+00  0.10566000000E+00 0.  1.
     999900   -1    0    0    0    0 -0.00000000000E+00 -0.00000000000E+00 -0.74505805969E-08  0.93827000000E+00  0.93827000000E+00 0.  1.
     999902    2    1    2    0    0 -0.51507496285E-02  0.12136550291E-01  0.82876522219E-02  0.10283572272E+01  0.10282393084E+01 0.  0.
     999903    2    3    3    0    0 -0.12756080838E+00  0.20310372077E-01 -0.31710407336E-01  0.13894681648E+00  0.40204437927E-01 0.  0.
         14    1    1    2    0    0  0.51507496285E-02 -0.12136550291E-01 -0.82876522219E-02  0.15572772844E-01  0.00000000000E+00 0.  1.
     999901    1    3    3    0    0  0.12241005875E+00 -0.81738217862E-02  0.39998059558E-01  0.88941041067E+00  0.88000000000E+00 0. -1.
        -11    1    4    4    0    0 -0.24152096230E-01  0.70346069253E-02  0.94226472609E-02  0.26867393794E-01  0.51100000000E-03 0. -1.
         11    1    4    4    0    0 -0.10340871215E+00  0.13275765152E-01 -0.41133054597E-01  0.11207942269E+00  0.51100000000E-03 0.  1.
</event>
<event>
 8    1  0.2257781E+004  0.1043930E+01  0.7957747E-01            NaN
         13   -1    0    0    0    0  0.00000000000E+00  0.00000000000E+00  0.74505805969E-08  0.10566000000E+00  0.10566000000E+00 0.  1.
     999900   -1    0    0    0    0 -0.00000000000E+00 -0.00000000000E+00 -0.74505805969E-08  0.93827000000E+00  0.93827000000E+00 0.  1.
     999902    2    1    2    0    0 -0.42723835620E-02 -0.14085646487E-01  0.41580305348E-02  0.10286346440E+01  0.10285209200E+01 0.  0.
     999903    2    3    3    0    0  0.10483915972E+00  0.74334162808E-01 -0.16429981926E-01  0.13726084033E+00  0.45318614395E-01 0.  0.
         14    1    1    2    0    0  0.42723835620E-02  0.14085646487E-01 -0.41580305348E-02  0.15295356033E-01  0.00000000000E+00 0. -1.
     999901    1    3    3    0    0 -0.10911154328E+00 -0.88419809295E-01  0.20588012461E-01  0.89137380364E+00  0.88000000000E+00 0. -1.
        -11    1    4    4    0    0  0.60524653308E-01  0.15829541049E-01 -0.12222991646E-01  0.63745358056E-01  0.51100000000E-03 0. -1.
         11    1    4    4    0    0  0.44314506412E-01  0.58504621759E-01 -0.42069902800E-02  0.73515482274E-01  0.51100000000E-03 0.  1.
</event>
<event>
 8    1  0.2257781E+004  0.1043930E+01  0.7957747E-01            NaN
         13   -1    0    0    0    0  0.00000000000E+00  0.00000000000E+00  0.74505805969E-08  0.10566000000E+00  0.10566000000E+00 0.  1.
     999900   -1    0    0    0    0 -0.00000000000E+00 -0.00000000000E+00 -0.74505805969E-08  0.93827000000E+00  0.93827000000E+00 0.  1.
     999902    2    1    2    0    0  0.60240569199E-02  0.19548299208E-02  0.13916186674E-01  0.10286404325E+01  0.10285267953E+01 0.  0.
     999903    2    3    3    0    0 -0.61684894106E-01  0.94398682233E-02  0.11640112097E+00  0.14007772253E+00  0.46673441209E-01 0.  0.
         14    1    1    2    0    0 -0.60240569199E-02 -0.19548299208E-02 -0.13916186674E-01  0.15289567468E-01  0.00000000000E+00 0. -1.
     999901    1    3    3    0    0  0.67708951026E-01 -0.74850383024E-02 -0.10248493429E+00  0.88856271000E+00  0.88000000000E+00 0.  1.
        -11    1    4    4    0    0 -0.79549417891E-02  0.11768125714E-01  0.61887787738E-01  0.63499049393E-01  0.51100000000E-03 0.  1.
         11    1    4    4    0    0 -0.53729952317E-01 -0.23282574908E-02  0.54513333228E-01  0.76578673138E-01  0.51100000000E-03 0. -1.
</event>
<event>
 8    1  0.2257781E+004  0.1043930E+01  0.7957747E-01            NaN
         13   -1    0    0    0    0  0.00000000000E+00  0.00000000000E+00  0.74505805969E-08  0.10566000000E+00  0.10566000000E+00 0.  1.
     999900   -1    0    0    0    0 -0.00000000000E+00 -0.00000000000E+00 -0.74505805969E-08  0.93827000000E+00  0.93827000000E+00 0. -1.
     999902    2    1    2    0    0 -0.64011137336E-02  0.47151625210E-03 -0.14597776431E-01  0.10279834749E+01  0.10278597828E+01 0.  0.
     999903    2    3    3    0    0 -0.17913376787E-01 -0.69437599686E-01 -0.11153605135E+00  0.13982985882E+00  0.44380506413E-01 0.  0.
         14    1    1    2    0    0  0.64011137336E-02 -0.47151625210E-03  0.14597776431E-01  0.15946525055E-01  0.00000000000E+00 0. -1.
     999901    1    3    3    0    0  0.11512263053E-01  0.69909115938E-01  0.96938274916E-01  0.88815361612E+00  0.88000000000E+00 0.  1.
        -11    1    4    4    0    0 -0.29151739246E-01 -0.65732429547E-01 -0.89466559896E-01  0.11478285001E+00  0.51100000000E-03 0. -1.
         11    1    4    4    0    0  0.11238362460E-01 -0.37051701387E-02 -0.22069491451E-01  0.25047008813E-01  0.51100000000E-03 0.  1.
</event>
<event>
 8    1  0.2257781E+004  0.1043930E+01  0.7957747E-01            NaN
         13   -1    0    0    0    0  0.00000000000E+00  0.00000000000E+00  0.74505805969E-08  0.10566000000E+00  0.10566000000E+00 0.  1.
     999900   -1    0    0    0    0 -0.00000000000E+00 -0.00000000000E+00 -0.74505805969E-08  0.93827000000E+00  0.93827000000E+00 0.  1.
     999902    2    1    2    0    0  0.12432606258E-01 -0.80532905383E-03  0.64868112089E-02  0.10298837559E+01  0.10297879654E+01 0.  0.
     999903    2    3    3    0    0 -0.74048268452E-02 -0.48223766795E-01  0.12396159292E+00  0.14059057798E+00  0.44931847848E-01 0.  0.
         14    1    1    2    0    0 -0.12432606258E-01  0.80532905383E-03 -0.64868112089E-02  0.14046244086E-01  0.00000000000E+00 0. -1.
     999901    1    3    3    0    0  0.19837433104E-01  0.47418437741E-01 -0.11747478171E+00  0.88929317794E+00  0.88000000000E+00 0.  1.
        -11    1    4    4    0    0  0.18884969763E-01 -0.18844014058E-01  0.55661897146E-01  0.61727197115E-01  0.51100000000E-03 0.  1.
         11    1    4    4    0    0 -0.26289796608E-01 -0.29379752737E-01  0.68299695776E-01  0.78863380860E-01  0.51100000000E-03 0. -1.
</event>
<event>
 8    1  0.2257781E+004  0.1043930E+01  0.7957747E-01            NaN
         13   -1    0    0    0    0  0.00000000000E+00  0.00000000000E+00  0.74505805969E-08  0.10566000000E+00  0.10566000000E+00 0.  1.
     999900   -1    0    0    0    0 -0.00000000000E+00 -0.00000000000E+00 -0.74505805969E-08  0.93827000000E+00  0.93827000000E+00 0.  1.
     999902    2    1    2    0    0 -0.74655947397E-02  0.11420517845E-01  0.39695198854E-02  0.10297201295E+01  0.10296220785E+01 0.  0.
     999903    2    3    3    0    0  0.23310883097E-01  0.12326704427E+00  0.46941882192E-01  0.14106751962E+00  0.44253172923E-01 0.  0.
         14    1    1    2    0    0  0.74655947397E-02 -0.11420517845E-01 -0.39695198854E-02  0.14209870541E-01  0.00000000000E+00 0.  1.
     999901    1    3    3    0    0 -0.30776477837E-01 -0.11184652642E+00 -0.42972362307E-01  0.88865260984E+00  0.88000000000E+00 0.  1.
        -11    1    4    4    0    0 -0.12245029086E-02  0.81396419622E-01  0.43778517937E-01  0.92432117191E-01  0.51100000000E-03 0. -1.
         11    1    4    4    0    0  0.24535386006E-01  0.41870624644E-01  0.31633642553E-02  0.48635402424E-01  0.51100000000E-03 0.  1.
</event>
<event>
 8    1  0.2257781E+004  0.1043930E+01  0.7957747E-01            NaN
         13   -1    0    0    0    0  0.00000000000E+00  0.00000000000E+00  0.74505805969E-08  0.10566000000E+00  0.10566000000E+00 0. -1.
     999900   -1    0    0    0    0 -0.00000000000E+00 -0.00000000000E+00 -0.74505805969E-08  0.93827000000E+00  0.93827000000E+00 0.  1.
     999902    2    1    2    0    0 -0.87456448506E-02  0.38696759669E-02  0.10298304672E-01  0.10298759694E+01  0.10297800720E+01 0.  0.
     999903    2    3    3    0    0 -0.12694758681E+00  0.42362887855E-01  0.37087324808E-02  0.14111455662E+00  0.44601113561E-01 0.  0.
         14    1    1    2    0    0  0.87456448506E-02 -0.38696759669E-02 -0.10298304672E-01  0.14054030563E-01  0.00000000000E+00 0. -1.
     999901    1    3    3    0    0  0.11820194196E+00 -0.38493211888E-01  0.65895721912E-02  0.88876141281E+00  0.88000000000E+00 0.  1.
        -11    1    4    4    0    0 -0.94895891802E-01  0.98495373606E-02  0.26567115567E-02  0.95444030219E-01  0.51100000000E-03 0.  1.
         11    1    4    4    0    0 -0.32051695005E-01  0.32513350494E-01  0.10520209241E-02  0.45670526405E-01  0.51100000000E-03 0. -1.
</event>
<event>
 8    1  0.2257781E+004  0.1043930E+01  0.7957747E-01            NaN
         13   -1    0    0    0    0  0.00000000000E+00  0.00000000000E+00  0.74505805969E-08  0.10566000000E+00  0.10566000000E+00 0.  1.
     999900   -1    0    0    0    0 -0.00000000000E+00 -0.00000000000E+00 -0.74505805969E-08  0.93827000000E+00  0.93827000000E+00 0.  1.
     999902    2    1    2    0    0 -0.14397103694E-02  0.89036888866E-02  0.47355522718E-02  0.10337430526E+01  0.10336928581E+01 0.  0.
     999903    2    3    3    0    0  0.17470740961E-01  0.11827960608E+00  0.65918523425E-01  0.14466259934E+00  0.47819702156E-01 0.  0.
         14    1    1    2    0    0  0.14397103694E-02 -0.89036888866E-02 -0.47355522718E-02  0.10186947387E-01  0.00000000000E+00 0. -1.
     999901    1    3    3    0    0 -0.18910451330E-01 -0.10937591719E+00 -0.61182971154E-01  0.88908045327E+00  0.88000000000E+00 0.  1.
        -11    1    4    4    0    0  0.12244916119E-01  0.66703157412E-01  0.63272748227E-01  0.92752094147E-01  0.51100000000E-03 0. -1.
         11    1    4    4    0    0  0.52258248417E-02  0.51576448665E-01  0.26457751989E-02  0.51910505195E-01  0.51100000000E-03 0.  1.
</event>
<event>
 8    1  0.2257781E+004  0.1043930E+01  0.7957747E-01            NaN
         13   -1    0    0    0    0  0.00000000000E+00  0.00000000000E+00  0.74505805969E-08  0.10566000000E+00  0.10566000000E+00 0.  1.
     999900   -1    0    0    0    0 -0.00000000000E+00 -0.00000000000E+00 -0.74505805969E-08  0.93827000000E+00  0.93827000000E+00 0. -1.
     999902    2    1    2    0    0 -0.76281668426E-02  0.11517019168E-01 -0.27060972630E-03  0.10301132026E+01  0.10300205369E+01 0.  0.
     999903    2    3    3    0    0 -0.54431035143E-01 -0.11764313985E+00  0.24828104950E-01  0.13910096891E+00  0.43931751810E-01 0.  0.
         14    1    1    2    0    0  0.76281668426E-02 -0.11517019168E-01  0.27060972630E-03  0.13816797368E-01  0.00000000000E+00 0.  1.
     999901    1    3    3    0    0  0.46802868300E-01  0.12916015902E+00 -0.25098714676E-01  0.89101223372E+00  0.88000000000E+00 0.  1.
        -11    1    4    4    0    0 -0.72168977325E-02 -0.64523167534E-01  0.40469640046E-02  0.65053530267E-01  0.51100000000E-03 0. -1.
         11    1    4    4    0    0 -0.47214137411E-01 -0.53119972314E-01  0.20781140946E-01  0.74047438646E-01  0.51100000000E-03 0.  1.
</event>
<event>
 8    1  0.2257781E+004  0.1043930E+01  0.7957747E-01            NaN
         13   -1    0    0    0    0  0.00000000000E+00  0.00000000000E+00  0.74505805969E-08  0.10566000000E+00  0.10566000000E+00 0. -1.
     999900   -1    0    0    0    0 -0.00000000000E+00 -0.00000000000E+00 -0.74505805969E-08  0.93827000000E+00  0.93827000000E+00 0.  1.
     999902    2    1    2    0    0 -0.44216218875E-02 -0.13391866647E-01  0.10558669450E-01  0.10263124425E+01  0.10261612209E+01 0.  0.
     999903    2    3    3    0    0  0.94306621499E-01  0.85658346678E-01 -0.13476664133E-02  0.13518957125E+00  0.45203017100E-01 0.  0.
         14    1    1    2    0    0  0.44216218875E-02  0.13391866647E-01 -0.10558669450E-01  0.17617557520E-01  0.00000000000E+00 0. -1.
     999901    1    3    3    0    0 -0.98728243386E-01 -0.99050213325E-01  0.11906335864E-01  0.89112287123E+00  0.88000000000E+00 0.  1.
        -11    1    4    4    0    0  0.39631255733E-01  0.46770480946E-01  0.20473705020E-01  0.64633954212E-01  0.51100000000E-03 0.  1.
         11    1    4    4    0    0  0.54675365766E-01  0.38887865732E-01 -0.21821371434E-01  0.70555617034E-01  0.51100000000E-03 0. -1.
</event>
<event>
 8    1  0.2257781E+004  0.1043930E+01  0.7957747E-01            NaN
         13   -1    0    0    0    0  0.00000000000E+00  0.00000000000E+00  0.74505805969E-08  0.10566000000E+00  0.10566000000E+00 0. -1.
     999900   -1    0    0    0    0 -0.00000000000E+00 -0.00000000000E+00 -0.74505805969E-08  0.93827000000E+00  0.93827000000E+00 0. -1.
     999902    2    1    2    0    0 -0.71824027826E-03 -0.74783013025E-03 -0.14228658230E-01  0.10296636117E+01  0.10295647738E+01 0.  0.
     999903    2    3    3    0    0 -0.96299714866E-01  0.43129684698E-01  0.77950747855E-01  0.13862034820E+00  0.44782553056E-01 0.  0.
         14    1    1    2    0    0  0.71824027826E-03  0.74783013025E-03  0.14228658230E-01  0.14266388262E-01  0.00000000000E+00 0. -1.
     999901    1    3    3    0    0  0.95581474588E-01 -0.43877514829E-01 -0.92179406085E-01  0.89104326354E+00  0.88000000000E+00 0. -1.
        -11    1    4    4    0    0 -0.79272550403E-01  0.13618174064E-01  0.51869619815E-01  0.95709510985E-01  0.51100000000E-03 0.  1.
         11    1    4    4    0    0 -0.17027164463E-01  0.29511510635E-01  0.26081128040E-01  0.42910837214E-01  0.51100000000E-03 0. -1.
</event>
<event>
 8    1  0.2257781E+004  0.1043930E+01  0.7957747E-01            NaN
         13   -1    0    0    0    0  0.00000000000E+00  0.00000000000E+00  0.74505805969E-08  0.10566000000E+00  0.10566000000E+00 0.  1.
     999900   -1    0    0    0    0 -0.00000000000E+00 -0.00000000000E+00 -0.74505805969E-08  0.93827000000E+00  0.93827000000E+00 0. -1.
     999902    2    1    2    0    0 -0.12418586333E-01 -0.41684797316E-02 -0.23133088150E-02  0.10306277856E+01  0.10305419368E+01 0.  0.
     999903    2    3    3    0    0  0.44819502425E-01  0.11561498786E+00 -0.45005384813E-01  0.13964692653E+00  0.45827570421E-01 0.  0.
         14    1    1    2    0    0  0.12418586333E-01  0.41684797316E-02  0.23133088150E-02  0.13302214382E-01  0.00000000000E+00 0. -1.
     999901    1    3    3    0    0 -0.57238088758E-01 -0.11978346759E+00  0.42692075998E-01  0.89098085909E+00  0.88000000000E+00 0. -1.
        -11    1    4    4    0    0  0.39161837846E-01  0.46629034241E-01 -0.33425975379E-01  0.69465626958E-01  0.51100000000E-03 0. -1.
         11    1    4    4    0    0  0.56576645790E-02  0.68985953620E-01 -0.11579409434E-01  0.70181299569E-01  0.51100000000E-03 0.  1.
</event>
<event>
 7    1  0.2257781E+004  0.1043930E+01  0.7957747E-01            NaN
         13   -1    0    0    0    0  0.00000000000E+00  0.00000000000E+00  0.74505805969E-08  0.10566000000E+00  0.10566000000E+00 0.  1.
     999900   -1    0    0    0    0 -0.00000000000E+00 -0.00000000000E+00 -0.74505805969E-08  0.93827000000E+00  0.93827000000E+00 0.  1.
     999903    2    1    2    0    0  0.15603400553E-01  0.53087784475E-01 -0.85985778056E-01  0.11184824500E+00  0.45328764724E-01 0.  0.
         14    1    1    2    0    0 -0.45717081163E-01 -0.41001980110E-02  0.96777322283E-02  0.46909717915E-01  0.00000000000E+00 0.  1.
     999901    1    1    2    0    0  0.30113680610E-01 -0.48987586464E-01  0.76308045827E-01  0.88517203709E+00  0.88000000000E+00 0. -1.
        -11    1    3    3    0    0 -0.10672298739E-01  0.26313878464E-01 -0.16405761108E-01  0.32798296888E-01  0.51100000000E-03 0.  1.
         11    1    3    3    0    0  0.26275699292E-01  0.26773906010E-01 -0.69580016947E-01  0.79049948107E-01  0.51100000000E-03 0. -1.
</event>
<event>
 8    1  0.2257781E+004  0.1043930E+01  0.7957747E-01            NaN
         13   -1    0    0    0    0  0.00000000000E+00  0.00000000000E+00  0.74505805969E-08  0.10566000000E+00  0.10566000000E+00 0. -1.
     999900   -1    0    0    0    0 -0.00000000000E+00 -0.00000000000E+00 -0.74505805969E-08  0.93827000000E+00  0.93827000000E+00 0. -1.
     999902    2    1    2    0    0 -0.75675682905E-02  0.89960308064E-02 -0.75776397797E-02  0.10299436751E+01  0.10298487057E+01 0.  0.
     999903    2    3    3    0    0  0.85510323674E-01 -0.12397025107E-01 -0.99681542288E-01  0.13999744880E+00  0.46874023845E-01 0.  0.
         14    1    1    2    0    0  0.75675682905E-02 -0.89960308064E-02  0.75776397797E-02  0.13986324919E-01  0.00000000000E+00 0. -1.
     999901    1    3    3    0    0 -0.93077891965E-01  0.21393055913E-01  0.92103902509E-01  0.88994622628E+00  0.88000000000E+00 0.  1.
        -11    1    4    4    0    0  0.47642263722E-01  0.57410356350E-02 -0.80755114119E-01  0.93938247589E-01  0.51100000000E-03 0. -1.
         11    1    4    4    0    0  0.37868059952E-01 -0.18138060742E-01 -0.18926428169E-01  0.46059201212E-01  0.51100000000E-03 0.  1.
</event>
<event>
 8    1  0.2257781E+004  0.1043930E+01  0.7957747E-01            NaN
         13   -1    0    0    0    0  0.00000000000E+00  0.00000000000E+00  0.74505805969E-08  0.10566000000E+00  0.10566000000E+00 0.  1.
     999900   -1    0    0    0    0 -0.00000000000E+00 -0.00000000000E+00 -0.74505805969E-08  0.93827000000E+00  0.93827000000E+00 0. -1.
     999902    2    1    2    0    0  0.10506108458E-01  0.61961180276E-02 -0.57485320091E-02  0.10304460906E+01  0.10303578649E+01 0.  0.
     999903    2    3    3    0    0 -0.91162820888E-01 -0.21457682617E-01  0.92028480294E-01  0.13878379573E+00  0.44951181480E-01 0.  0.
         14    1    1    2    0    0 -0.10506108458E-01 -0.61961180276E-02  0.57485320091E-02  0.13483909441E-01  0.00000000000E+00 0.  1.
     999901    1    3    3    0    0  0.10166892935E+00  0.27653800645E-01 -0.97777012304E-01  0.89166229483E+00  0.88000000000E+00 0. -1.
        -11    1    4    4    0    0 -0.30245510421E-01 -0.22781557207E-01  0.15397381133E-01  0.40879465703E-01  0.51100000000E-03 0. -1.
         11    1    4    4    0    0 -0.60917310467E-01  0.13238745894E-02  0.76631099161E-01  0.97904330027E-01  0.51100000000E-03 0.  1.
</event>
<event>
 8    1  0.2257781E+004  0.1043930E+01  0.7957747E-01            NaN
         13   -1    0    0    0    0  0.00000000000E+00  0.00000000000E+00  0.74505805969E-08  0.10566000000E+00  0.10566000000E+00 0. -1.
     999900   -1    0    0    0    0 -0.00000000000E+00 -0.00000000000E+00 -0.74505805969E-08  0.93827000000E+00  0.93827000000E+00 0. -1.
     999902    2    1    2    0    0 -0.65584489747E-02 -0.44116787951E-02  0.11164951526E-01  0.10302503690E+01  0.10301595461E+01 0.  0.
     999903    2    3    3    0    0 -0.12374621521E+00 -0.26306877824E-01  0.45751025780E-01  0.14153862220E+00  0.43986902766E-01 0.  0.
         14    1    1    2    0    0  0.65584489747E-02  0.44116787951E-02 -0.11164951526E-01  0.13679631037E-01  0.00000000000E+00 0.  1.
     999901    1    3    3    0    0  0.11718776624E+00  0.21895199029E-01 -0.34586074254E-01  0.88871174676E+00  0.88000000000E+00 0. -1.
        -11    1    4    4    0    0 -0.66527664107E-01 -0.36392117559E-01  0.26510395893E-01  0.80332923035E-01  0.51100000000E-03 0. -1.
         11    1    4    4    0    0 -0.57218551106E-01  0.10085239736E-01  0.19240629886E-01  0.61205699168E-01  0.51100000000E-03 0.  1.
</event>
<event>
 8    1  0.2257781E+004  0.1043930E+01  0.7957747E-01            NaN
         13   -1    0    0    0    0  0.00000000000E+00  0.00000000000E+00  0.74505805969E-08  0.10566000000E+00  0.10566000000E+00 0. -1.
     999900   -1    0    0    0    0 -0.00000000000E+00 -0.00000000000E+00 -0.74505805969E-08  0.93827000000E+00  0.93827000000E+00 0. -1.
     999902    2    1    2    0    0  0.50178077853E-02 -0.28221182843E-02 -0.12363605962E-01  0.10302917633E+01  0.10302014930E+01 0.  0.
     999903    2    3    3    0    0 -0.10222123596E+00  0.45487999833E-01 -0.69932237238E-01  0.14060180200E+00  0.48579931153E-01 0.  0.
         14    1    1    2    0    0 -0.50178077853E-02  0.28221182843E-02  0.12363605962E-01  0.13638236651E-01  0.00000000000E+00 0. -1.
     999901    1    3    3    0    0  0.10723904375E+00 -0.48310118117E-01  0.57568631276E-01  0.88968996135E+00  0.88000000000E+00 0.  1.
        -11    1    4    4    0    0 -0.55012319284E-01  0.35666611169E-01 -0.64671896559E-01  0.92093310022E-01  0.51100000000E-03 0. -1.
         11    1    4    4    0    0 -0.47208916676E-01  0.98213886635E-02 -0.52603406786E-02  0.48508491979E-01  0.51100000000E-03 0.  1.
</event>
<event>
 8    1  0.2257781E+004  0.1043930E+01  0.7957747E-01            NaN
         13   -1    0    0    0    0  0.00000000000E+00  0.00000000000E+00  0.74505805969E-08  0.10566000000E+00  0.10566000000E+00 0. -1.
     999900   -1    0    0    0    0 -0.00000000000E+00 -0.00000000000E+00 -0.74505805969E-08  0.93827000000E+00  0.93827000000E+00 0. -1.
     999902    2    1    2    0    0 -0.52056846545E-02  0.40114307570E-02 -0.12340671089E-01  0.10299484803E+01  0.10298535766E+01 0.  0.
     999903    2    3    3    0    0 -0.12956174752E+00  0.74456954402E-02  0.28570296547E-01  0.14025756106E+00  0.44880249426E-01 0.  0.
         14    1    1    2    0    0  0.52056846545E-02 -0.40114307570E-02  0.12340671089E-01  0.13981519673E-01  0.00000000000E+00 0. -1.
     999901    1    3    3    0    0  0.12435606287E+00 -0.34342646832E-02 -0.40910967636E-01  0.88969091926E+00  0.88000000000E+00 0. -1.
        -11    1    4    4    0    0 -0.66666323919E-01 -0.15039192766E-01  0.26882638718E-01  0.73440543635E-01  0.51100000000E-03 0.  1.
         11    1    4    4    0    0 -0.62895423606E-01  0.22484888206E-01  0.16876578294E-02  0.66817017429E-01  0.51100000000E-03 0. -1.
</event>
<event>
 8    1  0.2257781E+004  0.1043930E+01  0.7957747E-01            NaN
         13   -1    0    0    0    0  0.00000000000E+00  0.00000000000E+00  0.74505805969E-08  0.10566000000E+00  0.10566000000E+00 0. -1.
     999900   -1    0    0    0    0 -0.00000000000E+00 -0.00000000000E+00 -0.74505805969E-08  0.93827000000E+00  0.93827000000E+00 0. -1.
     999902    2    1    2    0    0 -0.69076419097E-02  0.35177716148E-02 -0.13048564124E-01  0.10287525411E+01  0.10286405764E+01 0.  0.
     999903    2    3    3    0    0 -0.86598442084E-01 -0.98184751688E-01 -0.15397377403E-01  0.13931477270E+00  0.45077611140E-01 0.  0.
         14    1    1    2    0    0  0.69076419097E-02 -0.35177716148E-02  0.13048564124E-01  0.15177458931E-01  0.00000000000E+00 0.  1.
     999901    1    3    3    0    0  0.79690800174E-01  0.10170252330E+00  0.23488132788E-02  0.88943776837E+00  0.88000000000E+00 0. -1.
        -11    1    4    4    0    0 -0.74106661805E-01 -0.53502524542E-01 -0.16611221467E-01  0.92900544971E-01  0.51100000000E-03 0. -1.
         11    1    4    4    0    0 -0.12491780279E-01 -0.44682227146E-01  0.12138440641E-02  0.46414227729E-01  0.51100000000E-03 0.  1.
</event>
<event>
 8    1  0.2257781E+004  0.1043930E+01  0.7957747E-01            NaN
         13   -1    0    0    0    0  0.00000000000E+00  0.00000000000E+00  0.74505805969E-08  0.10566000000E+00  0.10566000000E+00 0. -1.
     999900   -1    0    0    0    0 -0.00000000000E+00 -0.00000000000E+00 -0.74505805969E-08  0.93827000000E+00  0.93827000000E+00 0. -1.
     999902    2    1    2    0    0 -0.59269924174E-02 -0.11073008695E-01 -0.15148999436E-02  0.10312794790E+01  0.10312018852E+01 0.  0.
     999903    2    3    3    0    0 -0.32903481830E-01  0.99066000047E-01 -0.82388941392E-01  0.14032552796E+00  0.44795140937E-01 0.  0.
         14    1    1    2    0    0  0.59269924174E-02  0.11073008695E-01  0.15148999436E-02  0.12650521038E-01  0.00000000000E+00 0.  1.
     999901    1    3    3    0    0  0.26976489413E-01 -0.11013900874E+00  0.80874041448E-01  0.89095395100E+00  0.88000000000E+00 0.  1.
        -11    1    4    4    0    0 -0.83080376518E-02  0.81348049691E-01 -0.49466460543E-01  0.95570500248E-01  0.51100000000E-03 0. -1.
         11    1    4    4    0    0 -0.24595444179E-01  0.17717950356E-01 -0.32922480849E-01  0.44755027711E-01  0.51100000000E-03 0.  1.
</event>
<event>
 8    1  0.2257781E+004  0.1043930E+01  0.7957747E-01            NaN
         13   -1    0    0    0    0  0.00000000000E+00  0.00000000000E+00  0.74505805969E-08  0.10566000000E+00  0.10566000000E+00 0. -1.
     999900   -1    0    0    0    0 -0.00000000000E+00 -0.00000000000E+00 -0.74505805969E-08  0.93827000000E+00  0.93827000000E+00 0.  1.
     999902    2    1    2    0    0  0.88729295563E-02  0.10154363142E-01  0.43845059900E-02  0.10297503010E+01  0.10296526689E+01 0.  0.
     999903    2    3    3    0    0 -0.62208822582E-01  0.11458693795E+00 -0.25000097337E-01  0.14024356522E+00  0.45201203118E-01 0.  0.
         14    1    1    2    0    0 -0.88729295563E-02 -0.10154363142E-01 -0.43845059900E-02  0.14179698957E-01  0.00000000000E+00 0.  1.
     999901    1    3    3    0    0  0.71081752138E-01 -0.10443257480E+00  0.29384603327E-01  0.88950673583E+00  0.88000000000E+00 0. -1.
        -11    1    4    4    0    0 -0.39515356230E-01  0.34789472705E-01  0.28592289208E-02  0.52727669208E-01  0.51100000000E-03 0.  1.
         11    1    4    4    0    0 -0.22693466352E-01  0.79797465240E-01 -0.27859326258E-01  0.87515896010E-01  0.51100000000E-03 0. -1.
</event>
<event>
 8    1  0.2257781E+004  0.1043930E+01  0.7957747E-01            NaN
         13   -1    0    0    0    0  0.00000000000E+00  0.00000000000E+00  0.74505805969E-08  0.10566000000E+00  0.10566000000E+00 0. -1.
     999900   -1    0    0    0    0 -0.00000000000E+00 -0.00000000000E+00 -0.74505805969E-08  0.93827000000E+00  0.93827000000E+00 0.  1.
     999902    2    1    2    0    0  0.92217264756E-02  0.68327172782E-02 -0.83461385166E-02  0.10297390066E+01  0.10296412178E+01 0.  0.
     999903    2    3    3    0    0  0.71174899833E-01  0.88106507103E-01  0.69776538185E-01  0.14038712059E+00  0.44845907118E-01 0.  0.
         14    1    1    2    0    0 -0.92217264756E-02 -0.68327172782E-02  0.83461385166E-02  0.14190993367E-01  0.00000000000E+00 0. -1.
     999901    1    3    3    0    0 -0.61953173357E-01 -0.81273789825E-01 -0.78122676701E-01  0.88935188605E+00  0.88000000000E+00 0.  1.
        -11    1    4    4    0    0  0.31667849811E-01  0.67325428560E-01  0.57658977100E-01  0.94129617038E-01  0.51100000000E-03 0.  1.
         11    1    4    4    0    0  0.39507050022E-01  0.20781078543E-01  0.12117561084E-01  0.46257503548E-01  0.51100000000E-03 0. -1.
</event>
<event>
 8    1  0.2257781E+004  0.1043930E+01  0.7957747E-01            NaN
         13   -1    0    0    0    0  0.00000000000E+00  0.00000000000E+00  0.74505805969E-08  0.10566000000E+00  0.10566000000E+00 0. -1.
     999900   -1    0    0    0    0 -0.00000000000E+00 -0.00000000000E+00 -0.74505805969E-08  0.93827000000E+00  0.93827000000E+00 0. -1.
     999902    2    1    2    0    0 -0.74607406802E-02 -0.11156786035E-01  0.36521262474E-02  0.10300204870E+01  0.10299265649E+01 0.  0.
     999903    2    3    3    0    0 -0.87448451817E-01  0.22513015738E-01 -0.98828820341E-01  0.13983284727E+00  0.40398290111E-01 0.  0.
         14    1    1    2    0    0  0.74607406802E-02  0.11156786035E-01 -0.36521262474E-02  0.13909513013E-01  0.00000000000E+00 0. -1.
     999901    1    3    3    0    0  0.79987711136E-01 -0.33669801774E-01  0.10248094659E+00  0.89018763971E+00  0.88000000000E+00 0.  1.
        -11    1    4    4    0    0 -0.42620451873E-01 -0.14787786293E-02 -0.68307967956E-01  0.80529058801E-01  0.51100000000E-03 0.  1.
         11    1    4    4    0    0 -0.44827999943E-01  0.23991794368E-01 -0.30520852385E-01  0.59303788473E-01  0.51100000000E-03 0. -1.
</event>
<event>
 8    1  0.2257781E+004  0.1043930E+01  0.7957747E-01            NaN
         13   -1    0    0    0    0  0.00000000000E+00  0.00000000000E+00  0.74505805969E-08  0.10566000000E+00  0.10566000000E+00 0. -1.
     999900   -1    0    0    0    0 -0.00000000000E+00 -0.00000000000E+00 -0.74505805969E-08  0.93827000000E+00  0.93827000000E+00 0.  1.
     999902    2    1    2    0    0  0.12980525963E-01  0.99613296070E-02  0.57124992958E-02  0.10265992530E+01  0.10264529563E+01 0.  0.
     999903    2    3    3    0    0  0.12422427580E+00  0.29327460131E-02  0.42753322713E-01  0.13879488526E+00  0.44675517605E-01 0.  0.
         14    1    1    2    0    0 -0.12980525963E-01 -0.99613296070E-02 -0.57124992958E-02  0.17330746955E-01  0.00000000000E+00 0.  1.
     999901    1    3    3    0    0 -0.11124374984E+00  0.70285835939E-02 -0.37040823417E-01  0.88780436779E+00  0.88000000000E+00 0.  1.
        -11    1    4    4    0    0  0.63034103637E-01  0.20315757907E-01  0.91701456130E-02  0.66860907354E-01  0.51100000000E-03 0. -1.
         11    1    4    4    0    0  0.61190172162E-01 -0.17383011893E-01  0.33583177100E-01  0.71933977902E-01  0.51100000000E-03 0.  1.
</event>
<event>
 8    1  0.2257781E+004  0.1043930E+01  0.7957747E-01            NaN
         13   -1    0    0    0    0  0.00000000000E+00  0.00000000000E+00  0.74505805969E-08  0.10566000000E+00  0.10566000000E+00 0.  1.
     999900   -1    0    0    0    0 -0.00000000000E+00 -0.00000000000E+00 -0.74505805969E-08  0.93827000000E+00  0.93827000000E+00 0. -1.
     999902    2    1    2    0    0 -0.64765360096E-02  0.16426348610E-01 -0.51195154400E-02  0.10255457707E+01  0.10253809770E+01 0.  0.
     999903    2    3    3    0    0  0.24336095494E-01  0.35249957845E-01 -0.12199342435E+00  0.13708459707E+00  0.45552015308E-01 0.  0.
         14    1    1    2    0    0  0.64765360096E-02 -0.16426348610E-01  0.51195154400E-02  0.18384229265E-01  0.00000000000E+00 0.  1.
     999901    1    3    3    0    0 -0.30812631503E-01 -0.18823609235E-01  0.11687390891E+00  0.88846117366E+00  0.88000000000E+00 0.  1.
        -11    1    4    4    0    0  0.56854180409E-03 -0.61985041156E-02 -0.51777504813E-01  0.52152812185E-01  0.51100000000E-03 0.  1.
         11    1    4    4    0    0  0.23767553690E-01  0.41448461960E-01 -0.70215919532E-01  0.84931784887E-01  0.51100000000E-03 0. -1.
</event>
<event>
 8    1  0.2257781E+004  0.1043930E+01  0.7957747E-01            NaN
         13   -1    0    0    0    0  0.00000000000E+00  0.00000000000E+00  0.74505805969E-08  0.10566000000E+00  0.10566000000E+00 0.  1.
     999900   -1    0    0    0    0 -0.00000000000E+00 -0.00000000000E+00 -0.74505805969E-08  0.93827000000E+00  0.93827000000E+00 0. -1.
     999902    2    1    2    0    0  0.39365951765E-02 -0.11299958287E-01  0.74735816785E-02  0.10298218370E+01  0.10297251943E+01 0.  0.
     999903    2    3    3    0    0 -0.18215601762E-01  0.12918287933E+00 -0.81443987047E-02  0.13826697681E+00  0.45071068173E-01 0.  0.
         14    1    1    2    0    0 -0.39365951765E-02  0.11299958287E-01 -0.74735816785E-02  0.14108162955E-01  0.00000000000E+00 0.  1.
     999901    1    3    3    0    0  0.22152196939E-01 -0.14048283762E+00  0.15617980383E-01  0.89155486023E+00  0.88000000000E+00 0. -1.
        -11    1    4    4    0    0  0.10612900556E-01  0.59361978629E-01 -0.15797573114E-01  0.62340216572E-01  0.51100000000E-03 0. -1.
         11    1    4    4    0    0 -0.28828502318E-01  0.69820900702E-01  0.76531744095E-02  0.75926760239E-01  0.51100000000E-03 0.  1.
</event>
<event>
 8    1  0.2257781E+004  0.1043930E+01  0.7957747E-01            NaN
         13   -1    0    0    0    0  0.00000000000E+00  0.00000000000E+00  0.74505805969E-08  0.10566000000E+00  0.10566000000E+00 0.  1.
     999900   -1    0    0    0    0 -0.00000000000E+00 -0.00000000000E+00 -0.74505805969E-08  0.93827000000E+00  0.93827000000E+00 0. -1.
     999902    2    1    2    0    0 -0.77109645304E-02  0.39403678986E-02  0.13333085097E-01  0.10280316783E+01  0.10279087387E+01 0.  0.
     999903    2    3    3    0    0  0.96342941194E-01 -0.57838296080E-01 -0.62976355881E-01  0.13647856753E+00  0.45090433406E-01 0.  0.
         14    1    1    2    0    0  0.77109645304E-02 -0.39403678986E-02 -0.13333085097E-01  0.15898321652E-01  0.00000000000E+00 0.  1.
     999901    1    3    3    0    0 -0.10405390572E+00  0.61778663978E-01  0.76309440978E-01  0.89155311081E+00  0.88000000000E+00 0.  1.
        -11    1    4    4    0    0  0.49942995037E-01 -0.15728134017E-01 -0.50175970856E-01  0.72522866223E-01  0.51100000000E-03 0. -1.
         11    1    4    4    0    0  0.46399946157E-01 -0.42110162063E-01 -0.12800385025E-01  0.63955701310E-01  0.51100000000E-03 0.  1.
</event>
<event>
 8    1  0.2257781E+004  0.1043930E+01  0.7957747E-01            NaN
         13   -1    0    0    0    0  0.00000000000E+00  0.00000000000E+00  0.74505805969E-08  0.10566000000E+00  0.10566000000E+00 0. -1.
     999900   -1    0    0    0    0 -0.00000000000E+00 -0.00000000000E+00 -0.74505805969E-08  0.93827000000E+00  0.93827000000E+00 0. -1.
     999902    2    1    2    0    0  0.27469167768E-02 -0.12807552556E-01  0.47555088859E-02  0.10299946558E+01  0.10299003821E+01 0.  0.
     999903    2    3    3    0    0 -0.68876554556E-01  0.10894455054E+00  0.22892822021E-01  0.13854501704E+00  0.45362380748E-01 0.  0.
         14    1    1    2    0    0 -0.27469167768E-02  0.12807552556E-01 -0.47555088859E-02  0.13935344238E-01  0.00000000000E+00 0.  1.
     999901    1    3    3    0    0  0.71623471333E-01 -0.12175210309E+00 -0.18137313135E-01  0.89144963872E+00  0.88000000000E+00 0. -1.
        -11    1    4    4    0    0 -0.43098487648E-01  0.27354285093E-01  0.98220589204E-02  0.51985291314E-01  0.51100000000E-03 0.  1.
         11    1    4    4    0    0 -0.25778066908E-01  0.81590265443E-01  0.13070763101E-01  0.86559725725E-01  0.51100000000E-03 0. -1.
</event>
<event>
 8    1  0.2257781E+004  0.1043930E+01  0.7957747E-01            NaN
         13   -1    0    0    0    0  0.00000000000E+00  0.00000000000E+00  0.74505805969E-08  0.10566000000E+00  0.10566000000E+00 0. -1.
     999900   -1    0    0    0    0 -0.00000000000E+00 -0.00000000000E+00 -0.74505805969E-08  0.93827000000E+00  0.93827000000E+00 0.  1.
     999902    2    1    2    0    0  0.66503920150E-02 -0.23418835083E-02 -0.10870481550E-01  0.10309731678E+01  0.10308917466E+01 0.  0.
     999903    2    3    3    0    0  0.10430421591E+00  0.75208675585E-01  0.35978971829E-01  0.14094775812E+00  0.45122829755E-01 0.  0.
         14    1    1    2    0    0 -0.66503920150E-02  0.23418835083E-02  0.10870481550E-01  0.12956832230E-01  0.00000000000E+00 0. -1.
     999901    1    3    3    0    0 -0.97653823898E-01 -0.77550559094E-01 -0.46849453379E-01  0.89002540965E+00  0.88000000000E+00 0.  1.
        -11    1    4    4    0    0  0.73343842439E-01  0.63063008735E-01  0.44705920168E-01  0.10656051198E+00  0.51100000000E-03 0. -1.
         11    1    4    4    0    0  0.30960373474E-01  0.12145666850E-01 -0.87269483386E-02  0.34387246141E-01  0.51100000000E-03 0.  1.
</event>
<event>
 8    1  0.2257781E+004  0.1043930E+01  0.7957747E-01            NaN
         13   -1    0    0    0    0  0.00000000000E+00  0.00000000000E+00  0.74505805969E-08  0.10566000000E+00  0.10566000000E+00 0.  1.
     999900   -1    0    0    0    0 -0.00000000000E+00 -0.00000000000E+00 -0.74505805969E-08  0.93827000000E+00  0.93827000000E+00 0.  1.
     999902    2    1    2    0    0  0.86468570611E-02  0.45425593230E-02  0.48330313712E-02  0.10330322399E+01  0.10329747565E+01 0.  0.
     999903    2    3    3    0    0  0.11372771365E+00 -0.29443968229E-01 -0.68277124210E-01  0.14312091552E+00  0.44954317379E-01 0.  0.
         14    1    1    2    0    0 -0.86468570611E-02 -0.45425593230E-02 -0.48330313712E-02  0.10897760067E-01  0.00000000000E+00 0.  1.
     999901    1    3    3    0    0 -0.10508085659E+00  0.33986527552E-01  0.73110155581E-01  0.88991132442E+00  0.88000000000E+00 0.  1.
        -11    1    4    4    0    0  0.45603412357E-01 -0.27883429189E-01 -0.12102342320E-01  0.54807706142E-01  0.51100000000E-03 0.  1.
         11    1    4    4    0    0  0.68124301292E-01 -0.15605390405E-02 -0.56174781890E-01  0.88313209375E-01  0.51100000000E-03 0. -1.
</event>
<event>
 8    1  0.2257781E+004  0.1043930E+01  0.7957747E-01            NaN
         13   -1    0    0    0    0  0.00000000000E+00  0.00000000000E+00  0.74505805969E-08  0.10566000000E+00  0.10566000000E+00 0.  1.
     999900   -1    0    0    0    0 -0.00000000000E+00 -0.00000000000E+00 -0.74505805969E-08  0.93827000000E+00  0.93827000000E+00 0.  1.
     999902    2    1    2    0    0 -0.80016834593E-03  0.68364332112E-03  0.14526951144E-01  0.10293649752E+01  0.10292619260E+01 0.  0.
     999903    2    3    3    0    0 -0.26301334299E-01 -0.14732858318E-01 -0.12789308657E+00  0.13741685725E+00  0.40223547399E-01 0.  0.
         14    1    1    2    0    0  0.80016834593E-03 -0.68364332112E-03 -0.14526951144E-01  0.14565024789E-01  0.00000000000E+00 0. -1.
     999901    1    3    3    0    0  0.25501165953E-01  0.15416501639E-01  0.14242003771E+00  0.89194811796E+00  0.88000000000E+00 0. -1.
        -11    1    4    4    0    0 -0.20915599630E-01 -0.12720814005E-01 -0.27353816656E-01  0.36712039217E-01  0.51100000000E-03 0. -1.
         11    1    4    4    0    0 -0.53857346690E-02 -0.20120443131E-02 -0.10053926991E+00  0.10070481804E+00  0.51100000000E-03 0.  1.
</event>
<event>
 8    1  0.2257781E+004  0.1043930E+01  0.7957747E-01            NaN
         13   -1    0    0    0    0  0.00000000000E+00  0.00000000000E+00  0.74505805969E-08  0.10566000000E+00  0.10566000000E+00 0.  1.
     999900   -1    0    0    0    0 -0.00000000000E+00 -0.00000000000E+00 -0.74505805969E-08  0.93827000000E+00  0.93827000000E+00 0.  1.
     999902    2    1    2    0    0 -0.10247402662E-01 -0.84693773554E-03  0.63858781244E-02  0.10318260335E+01  0.10317550375E+01 0.  0.
     999903    2    3    3    0    0  0.12757035991E+00  0.16850708342E-01 -0.31705031548E-01  0.14010978956E+00  0.45468681589E-01 0.  0.
         14    1    1    2    0    0  0.10247402662E-01  0.84693773554E-03 -0.63858781244E-02  0.12103966469E-01  0.00000000000E+00 0. -1.
     999901    1    3    3    0    0 -0.13781776258E+00 -0.17697646078E-01  0.38090909672E-01  0.89171624397E+00  0.88000000000E+00 0. -1.
        -11    1    4    4    0    0  0.99736057427E-01  0.23149192655E-01 -0.40703117161E-01  0.11018244479E+00  0.51100000000E-03 0.  1.
         11    1    4    4    0    0  0.27834302488E-01 -0.62984843130E-02  0.89980856127E-02  0.29927344776E-01  0.51100000000E-03 0. -1.
</event>
<event>
 8    1  0.2257781E+004  0.1043930E+01  0.7957747E-01            NaN
         13   -1    0    0    0    0  0.00000000000E+00  0.00000000000E+00  0.74505805969E-08  0.10566000000E+00  0.10566000000E+00 0. -1.
     999900   -1    0    0    0    0 -0.00000000000E+00 -0.00000000000E+00 -0.74505805969E-08  0.93827000000E+00  0.93827000000E+00 0.  1.
     999902    2    1    2    0    0 -0.18195404651E-02 -0.11778109016E-01  0.72939933606E-02  0.10299572795E+01  0.10298624960E+01 0.  0.
     999903    2    3    3    0    0  0.55706186469E-01  0.10787641940E+00 -0.48022640140E-01  0.13828113571E+00  0.45552139952E-01 0.  0.
         14    1    1    2    0    0  0.18195404651E-02  0.11778109016E-01 -0.72939933606E-02  0.13972720517E-01  0.00000000000E+00 0. -1.
     999901    1    3    3    0    0 -0.57525726934E-01 -0.11965452842E+00  0.55316633501E-01  0.89167614377E+00  0.88000000000E+00 0. -1.
        -11    1    4    4    0    0  0.36196775572E-01  0.28102829180E-01 -0.66039156878E-02  0.46301710477E-01  0.51100000000E-03 0.  1.
         11    1    4    4    0    0  0.19509410897E-01  0.79773590220E-01 -0.41418724452E-01  0.91979425234E-01  0.51100000000E-03 0. -1.
</event>
<event>
 8    1  0.2257781E+004  0.1043930E+01  0.7957747E-01            NaN
         13   -1    0    0    0    0  0.00000000000E+00  0.00000000000E+00  0.74505805969E-08  0.10566000000E+00  0.10566000000E+00 0. -1.
     999900   -1    0    0    0    0 -0.00000000000E+00 -0.00000000000E+00 -0.74505805969E-08  0.93827000000E+00  0.93827000000E+00 0.  1.
     999902    2    1    2    0    0 -0.42289783973E-02 -0.12821452669E-01  0.61895907056E-02  0.10290778978E+01  0.10289707162E+01 0.  0.
     999903    2    3    3    0    0 -0.13133070860E+00  0.92302783793E-02  0.12001303434E-01  0.13965398049E+00  0.45013885894E-01 0.  0.
         14    1    1    2    0    0  0.42289783973E-02  0.12821452669E-01 -0.61895907056E-02  0.14852102206E-01  0.00000000000E+00 0. -1.
     999901    1    3    3    0    0  0.12710173020E+00 -0.22051731049E-01 -0.58117127281E-02  0.88942391730E+00  0.88000000000E+00 0. -1.
        -11    1    4    4    0    0 -0.10981205009E+00  0.12104222259E-01 -0.71366774248E-02  0.11070858967E+00  0.51100000000E-03 0. -1.
         11    1    4    4    0    0 -0.21518658510E-01 -0.28739438801E-02  0.19137980859E-01  0.28945390822E-01  0.51100000000E-03 0.  1.
</event>
<event>
 8    1  0.2257781E+004  0.1043930E+01  0.7957747E-01            NaN
         13   -1    0    0    0    0  0.00000000000E+00  0.00000000000E+00  0.74505805969E-08  0.10566000000E+00  0.10566000000E+00 0.  1.
     999900   -1    0    0    0    0 -0.00000000000E+00 -0.00000000000E+00 -0.74505805969E-08  0.93827000000E+00  0.93827000000E+00 0.  1.
     999902    2    1    2    0    0 -0.11294137689E-01 -0.87491399409E-02  0.38236076521E-03  0.10296383522E+01  0.10295391616E+01 0.  0.
     999903    2    3    3    0    0 -0.82105469400E-01 -0.77834531242E-01  0.71318614880E-01  0.14125837265E+00  0.45475934923E-01 0.  0.
         14    1    1    2    0    0  0.11294137689E-01  0.87491399409E-02 -0.38236076521E-03  0.14291647756E-01  0.00000000000E+00 0. -1.
     999901    1    3    3    0    0  0.70811331711E-01  0.69085391301E-01 -0.70936254115E-01  0.88837997959E+00  0.88000000000E+00 0.  1.
        -11    1    4    4    0    0 -0.78272401497E-01 -0.55739614747E-01  0.69816392908E-01  0.11877736875E+00  0.51100000000E-03 0. -1.
         11    1    4    4    0    0 -0.38330679033E-02 -0.22094916495E-01  0.15022219713E-02  0.22481003900E-01  0.51100000000E-03 0.  1.
</event>
<event>
 8    1  0.2257781E+004  0.1043930E+01  0.7957747E-01            NaN
         13   -1    0    0    0    0  0.00000000000E+00  0.00000000000E+00  0.74505805969E-08  0.10566000000E+00  0.10566000000E+00 0. -1.
     999900   -1    0    0    0    0 -0.00000000000E+00 -0.00000000000E+00 -0.74505805969E-08  0.93827000000E+00  0.93827000000E+00 0.  1.
     999902    2    1    2    0    0  0.65042539731E-02  0.29764850693E-02  0.10856089322E-01  0.10309292516E+01  0.10308472740E+01 0.  0.
     999903    2    3    3    0    0  0.93493006208E-01 -0.92031746545E-01 -0.24401602515E-01  0.14085245048E+00  0.45090908387E-01 0.  0.
         14    1    1    2    0    0 -0.65042539731E-02 -0.29764850693E-02 -0.10856089322E-01  0.13000748382E-01  0.00000000000E+00 0.  1.
     999901    1    3    3    0    0 -0.86988752235E-01  0.95008231615E-01  0.35257691837E-01  0.89007680114E+00  0.88000000000E+00 0. -1.
        -11    1    4    4    0    0  0.51947823663E-01 -0.68946899184E-01  0.22543684459E-02  0.86357365572E-01  0.51100000000E-03 0.  1.
         11    1    4    4    0    0  0.41545182544E-01 -0.23084847362E-01 -0.26655970961E-01  0.54495084909E-01  0.51100000000E-03 0. -1.
</event>
<event>
 8    1  0.2257781E+004  0.1043930E+01  0.7957747E-01            NaN
         13   -1    0    0    0    0  0.00000000000E+00  0.00000000000E+00  0.74505805969E-08  0.10566000000E+00  0.10566000000E+00 0. -1.
     999900   -1    0    0    0    0 -0.00000000000E+00 -0.00000000000E+00 -0.74505805969E-08  0.93827000000E+00  0.93827000000E+00 0.  1.
     999902    2    1    2    0    0 -0.34874111257E-02 -0.21402031694E-02 -0.13339427228E-01  0.10299771213E+01  0.10298826086E+01 0.  0.
     999903    2    3    3    0    0  0.14951021245E-01  0.10999782192E+00 -0.73763303942E-01  0.14061445209E+00  0.44814565312E-01 0.  0.
         14    1    1    2    0    0  0.34874111257E-02  0.21402031694E-02  0.13339427228E-01  0.13952878726E-01  0.00000000000E+00 0. -1.
     999901    1    3    3    0    0 -0.18438432371E-01 -0.11213802509E+00  0.60423876714E-01  0.88936266918E+00  0.88000000000E+00 0. -1.
        -11    1    4    4    0    0  0.73848957119E-02  0.55786347841E-02  0.41045187946E-02  0.10137358939E-01  0.51100000000E-03 0. -1.
         11    1    4    4    0    0  0.75661255335E-02  0.10441918714E+00 -0.77867822737E-01  0.13047709315E+00  0.51100000000E-03 0.  1.
</event>
<event>
 8    1  0.2257781E+004  0.1043930E+01  0.7957747E-01            NaN
         13   -1    0    0    0    0  0.00000000000E+00  0.00000000000E+00  0.74505805969E-08  0.10566000000E+00  0.10566000000E+00 0. -1.
     999900   -1    0    0    0    0 -0.00000000000E+00 -0.00000000000E+00 -0.74505805969E-08  0.93827000000E+00  0.93827000000E+00 0.  1.
     999902    2    1    2    0    0  0.63267179704E-02  0.47469525610E-02  0.12827958610E-01  0.10288595839E+01  0.10287492046E+01 0.  0.
     999903    2    3    3    0    0 -0.28778554112E-01 -0.82722713105E-02  0.12868250900E+00  0.14047669508E+00  0.47727121106E-01 0.  0.
         14    1    1    2    0    0 -0.63267179704E-02 -0.47469525610E-02 -0.12827958610E-01  0.15070416086E-01  0.00000000000E+00 0.  1.
     999901    1    3    3    0    0  0.35105272083E-01  0.13019223872E-01 -0.11585455039E+00  0.88838288883E+00  0.88000000000E+00 0.  1.
        -11    1    4    4    0    0 -0.32152472339E-01 -0.53583864217E-02  0.39649455331E-01  0.51330636189E-01  0.51100000000E-03 0. -1.
         11    1    4    4    0    0  0.33739182266E-02 -0.29138848888E-02  0.89033053672E-01  0.89146058895E-01  0.51100000000E-03 0.  1.
</event>
<event>
 8    1  0.2257781E+004  0.1043930E+01  0.7957747E-01            NaN
         13   -1    0    0    0    0  0.00000000000E+00  0.00000000000E+00  0.74505805969E-08  0.10566000000E+00  0.10566000000E+00 0. -1.
     999900   -1    0    0    0    0 -0.00000000000E+00 -0.00000000000E+00 -0.74505805969E-08  0.93827000000E+00  0.93827000000E+00 0. -1.
     999902    2    1    2    0    0  0.71881413484E-02 -0.81285154810E-02  0.82288158445E-02  0.10303117934E+01  0.10302217898E+01 0.  0.
     999903    2    3    3    0    0 -0.12367134516E+00  0.43851848132E-01 -0.81219428266E-02  0.13896813876E+00  0.45039887164E-01 0.  0.
         14    1    1    2    0    0 -0.71881413484E-02  0.81285154810E-02 -0.82288158445E-02  0.13618206570E-01  0.00000000000E+00 0. -1.
     999901    1    3    3    0    0  0.13085948651E+00 -0.51980363613E-01  0.16350758671E-01  0.89134365467E+00  0.88000000000E+00 0. -1.
        -11    1    4    4    0    0 -0.97907339185E-01  0.18054496133E-01  0.62956495082E-02  0.99758248885E-01  0.51100000000E-03 0. -1.
         11    1    4    4    0    0 -0.25764005980E-01  0.25797351999E-01 -0.14417592335E-01  0.39209889875E-01  0.51100000000E-03 0.  1.
</event>
<event>
 8    1  0.2257781E+004  0.1043930E+01  0.7957747E-01            NaN
         13   -1    0    0    0    0  0.00000000000E+00  0.00000000000E+00  0.74505805969E-08  0.10566000000E+00  0.10566000000E+00 0.  1.
     999900   -1    0    0    0    0 -0.00000000000E+00 -0.00000000000E+00 -0.74505805969E-08  0.93827000000E+00  0.93827000000E+00 0. -1.
     999902    2    1    2    0    0  0.69209478865E-02 -0.54001494379E-02  0.10250660107E-01  0.10304341797E+01  0.10303457970E+01 0.  0.
     999903    2    3    3    0    0  0.10422691350E+00  0.54009559171E-01  0.65173130000E-01  0.14138162661E+00  0.44282564154E-01 0.  0.
         14    1    1    2    0    0 -0.69209478865E-02  0.54001494379E-02 -0.10250660107E-01  0.13495820325E-01  0.00000000000E+00 0. -1.
     999901    1    3    3    0    0 -0.97305965613E-01 -0.59409708609E-01 -0.54922469893E-01  0.88905255307E+00  0.88000000000E+00 0.  1.
        -11    1    4    4    0    0  0.26104225495E-01  0.27109892834E-01  0.40187827684E-01  0.55060870799E-01  0.51100000000E-03 0.  1.
         11    1    4    4    0    0  0.78122688005E-01  0.26899666337E-01  0.24985302316E-01  0.86320755806E-01  0.51100000000E-03 0. -1.
</event>
<event>
 8    1  0.2257781E+004  0.1043930E+01  0.7957747E-01            NaN
         13   -1    0    0    0    0  0.00000000000E+00  0.00000000000E+00  0.74505805969E-08  0.10566000000E+00  0.10566000000E+00 0.  1.
     999900   -1    0    0    0    0 -0.00000000000E+00 -0.00000000000E+00 -0.74505805969E-08  0.93827000000E+00  0.93827000000E+00 0.  1.
     999902    2    1    2    0    0  0.13426474106E-01  0.51040543780E-02  0.14239928735E-02  0.10294956890E+01  0.10293944940E+01 0.  0.
     999903    2    3    3    0    0  0.52067466704E-02  0.49334638302E-01 -0.12242133025E+00  0.13968583711E+00  0.45432744169E-01 0.  0.
         14    1    1    2    0    0 -0.13426474106E-01 -0.51040543780E-02 -0.14239928735E-02  0.14434310989E-01  0.00000000000E+00 0.  1.
     999901    1    3    3    0    0  0.82197274355E-02 -0.44230583924E-01  0.12384532312E+00  0.88980985190E+00  0.88000000000E+00 0. -1.
        -11    1    4    4    0    0 -0.19492536941E-01  0.30007855262E-01 -0.61130438957E-01  0.70835175315E-01  0.51100000000E-03 0.  1.
         11    1    4    4    0    0  0.24699283612E-01  0.19326783039E-01 -0.61290891294E-01  0.68850661799E-01  0.51100000000E-03 0. -1.
</event>
<event>
 8    1  0.2257781E+004  0.1043930E+01  0.7957747E-01            NaN
         13   -1    0    0    0    0  0.00000000000E+00  0.00000000000E+00  0.74505805969E-08  0.10566000000E+00  0.10566000000E+00 0.  1.
     999900   -1    0    0    0    0 -0.00000000000E+00 -0.00000000000E+00 -0.74505805969E-08  0.93827000000E+00  0.93827000000E+00 0. -1.
     999902    2    1    2    0    0 -0.36243867747E-02  0.10933887562E-01 -0.69245521613E-02  0.10304899293E+01  0.10304022802E+01 0.  0.
     999903    2    3    3    0    0 -0.51248264426E-01  0.59535244309E-02 -0.12395747138E+00  0.14145138016E+00  0.44510775991E-01 0.  0.
         14    1    1    2    0    0  0.36243867747E-02 -0.10933887562E-01  0.69245521613E-02  0.13440070660E-01  0.00000000000E+00 0. -1.
     999901    1    3    3    0    0  0.47623877652E-01  0.49803631309E-02  0.11703291922E+00  0.88903854918E+00  0.88000000000E+00 0.  1.
        -11    1    4    4    0    0 -0.59905477493E-02 -0.13441117747E-01 -0.53522185083E-01  0.55510681185E-01  0.51100000000E-03 0. -1.
         11    1    4    4    0    0 -0.45257716677E-01  0.19394642178E-01 -0.70435286298E-01  0.85940698979E-01  0.51100000000E-03 0.  1.
</event>
<event>
 8    1  0.2257781E+004  0.1043930E+01  0.7957747E-01            NaN
         13   -1    0    0    0    0  0.00000000000E+00  0.00000000000E+00  0.74505805969E-08  0.10566000000E+00  0.10566000000E+00 0. -1.
     999900   -1    0    0    0    0 -0.00000000000E+00 -0.00000000000E+00 -0.74505805969E-08  0.93827000000E+00  0.93827000000E+00 0.  1.
     999902    2    1    2    0    0  0.13070262490E-01  0.17669041978E-02 -0.34154364399E-02  0.10303057966E+01  0.10302157131E+01 0.  0.
     999903    2    3    3    0    0 -0.57073186946E-01 -0.11261130316E+00  0.37591215077E-01  0.13919187388E+00  0.44973592637E-01 0.  0.
         14    1    1    2    0    0 -0.13070262490E-01 -0.17669041978E-02  0.34154364399E-02  0.13624203392E-01  0.00000000000E+00 0. -1.
     999901    1    3    3    0    0  0.70143449436E-01  0.11437820736E+00 -0.41006651517E-01  0.89111392273E+00  0.88000000000E+00 0.  1.
        -11    1    4    4    0    0 -0.17851353021E-01 -0.53131765472E-01 -0.48463670966E-02  0.56261920532E-01  0.51100000000E-03 0. -1.
         11    1    4    4    0    0 -0.39221833925E-01 -0.59479537687E-01  0.42437582174E-01  0.82929953344E-01  0.51100000000E-03 0.  1.
</event>
<event>
 8    1  0.2257781E+004  0.1043930E+01  0.7957747E-01            NaN
         13   -1    0    0    0    0  0.00000000000E+00  0.00000000000E+00  0.74505805969E-08  0.10566000000E+00  0.10566000000E+00 0. -1.
     999900   -1    0    0    0    0 -0.00000000000E+00 -0.00000000000E+00 -0.74505805969E-08  0.93827000000E+00  0.93827000000E+00 0. -1.
     999902    2    1    2    0    0 -0.82909662223E-02 -0.42957512269E-03  0.11967901453E-01  0.10293644475E+01  0.10292613907E+01 0.  0.
     999903    2    3    3    0    0 -0.49581251484E-01  0.10357697996E+00  0.68294800114E-01  0.14049158216E+00  0.43442072449E-01 0.  0.
         14    1    1    2    0    0  0.82909662223E-02  0.42957512269E-03 -0.11967901453E-01  0.14565552543E-01  0.00000000000E+00 0.  1.
     999901    1    3    3    0    0  0.41290285261E-01 -0.10400655508E+00 -0.56326898661E-01  0.88887286530E+00  0.88000000000E+00 0.  1.
        -11    1    4    4    0    0 -0.29120399390E-01  0.33117409093E-01  0.46186890799E-01  0.63861181075E-01  0.51100000000E-03 0.  1.
         11    1    4    4    0    0 -0.20460852093E-01  0.70459570862E-01  0.22107909315E-01  0.76630401080E-01  0.51100000000E-03 0. -1.
</event>
<event>
 8    1  0.2257781E+004  0.1043930E+01  0.7957747E-01            NaN
         13   -1    0    0    0    0  0.00000000000E+00  0.00000000000E+00  0.74505805969E-08  0.10566000000E+00  0.10566000000E+00 0.  1.
     999900   -1    0    0    0    0 -0.00000000000E+00 -0.00000000000E+00 -0.74505805969E-08  0.93827000000E+00  0.93827000000E+00 0.  1.
     999902    2    1    2    0    0  0.56872927632E-04 -0.72889740854E-02 -0.11841077779E-01  0.10300251986E+01  0.10299313406E+01 0.  0.
     999903    2    3    3    0    0  0.90160953011E-01  0.96855438288E-01 -0.27992974146E-02  0.13926902681E+00  0.43336501793E-01 0.  0.
         14    1    1    2    0    0 -0.56872927632E-04  0.72889740854E-02  0.11841077779E-01  0.13904801355E-01  0.00000000000E+00 0.  1.
     999901    1    3    3    0    0 -0.90104080084E-01 -0.10414441237E+00 -0.90417803648E-02  0.89075617184E+00  0.88000000000E+00 0.  1.
        -11    1    4    4    0    0  0.56110034726E-01  0.85360161070E-01 -0.99053513226E-02  0.10263074686E+00  0.51100000000E-03 0.  1.
         11    1    4    4    0    0  0.34050918285E-01  0.11495277217E-01  0.71060539079E-02  0.36638279948E-01  0.51100000000E-03 0. -1.
</event>
<event>
 8    1  0.2257781E+004  0.1043930E+01  0.7957747E-01            NaN
         13   -1    0    0    0    0  0.00000000000E+00  0.00000000000E+00  0.74505805969E-08  0.10566000000E+00  0.10566000000E+00 0. -1.
     999900   -1    0    0    0    0 -0.00000000000E+00 -0.00000000000E+00 -0.74505805969E-08  0.93827000000E+00  0.93827000000E+00 0. -1.
     999902    2    1    2    0    0  0.16798994695E-02 -0.17292563739E-01  0.41303457364E-03  0.10265511214E+01  0.10264040040E+01 0.  0.
     999903    2    3    3    0    0  0.67746677641E-01  0.29649235509E-01 -0.10584105009E+00  0.13646220328E+00  0.44169169610E-01 0.  0.
         14    1    1    2    0    0 -0.16798994695E-02  0.17292563739E-01 -0.41303457364E-03  0.17378878573E-01  0.00000000000E+00 0.  1.
     999901    1    3    3    0    0 -0.66066778172E-01 -0.46941799248E-01  0.10625408466E+00  0.89008891814E+00  0.88000000000E+00 0. -1.
        -11    1    4    4    0    0  0.33345849915E-01  0.27486638101E-01 -0.28450594605E-01  0.51741264335E-01  0.51100000000E-03 0. -1.
         11    1    4    4    0    0  0.34400827727E-01  0.21625974087E-02 -0.77390455481E-01  0.84720938949E-01  0.51100000000E-03 0.  1.
</event>
<event>
 8    1  0.2257781E+004  0.1043930E+01  0.7957747E-01            NaN
         13   -1    0    0    0    0  0.00000000000E+00  0.00000000000E+00  0.74505805969E-08  0.10566000000E+00  0.10566000000E+00 0. -1.
     999900   -1    0    0    0    0 -0.00000000000E+00 -0.00000000000E+00 -0.74505805969E-08  0.93827000000E+00  0.93827000000E+00 0. -1.
     999902    2    1    2    0    0  0.81552699698E-02 -0.13304608289E-01 -0.13331264303E-03  0.10283242702E+01  0.10282058480E+01 0.  0.
     999903    2    3    3    0    0  0.39705872796E-02 -0.13070743678E+00  0.23925375671E-01  0.14019153453E+00  0.44508910995E-01 0.  0.
         14    1    1    2    0    0 -0.81552699698E-02  0.13304608289E-01  0.13331264303E-03  0.15605729790E-01  0.00000000000E+00 0. -1.
     999901    1    3    3    0    0  0.41846826902E-02  0.11740282850E+00 -0.24058688315E-01  0.88813273568E+00  0.88000000000E+00 0.  1.
        -11    1    4    4    0    0 -0.35353885410E-03 -0.64557570316E-01 -0.10635076116E-01  0.65430656727E-01  0.51100000000E-03 0. -1.
         11    1    4    4    0    0  0.43241261337E-02 -0.66149866469E-01  0.34560451787E-01  0.74760877800E-01  0.51100000000E-03 0.  1.
</event>
<event>
 8    1  0.2257781E+004  0.1043930E+01  0.7957747E-01            NaN
         13   -1    0    0    0    0  0.00000000000E+00  0.00000000000E+00  0.74505805969E-08  0.10566000000E+00  0.10566000000E+00 0. -1.
     999900   -1    0    0    0    0 -0.00000000000E+00 -0.00000000000E+00 -0.74505805969E-08  0.93827000000E+00  0.93827000000E+00 0. -1.
     999902    2    1    2    0    0 -0.46956058391E-02  0.59876096005E-02  0.99324030143E-02  0.10314178934E+01  0.10313419985E+01 0.  0.
     999903    2    3    3    0    0  0.40900745354E-01 -0.58805716505E-01  0.11258210641E+00  0.14191569327E+00  0.48315112016E-01 0.  0.
         14    1    1    2    0    0  0.46956058391E-02 -0.59876096005E-02 -0.99324030143E-02  0.12512106640E-01  0.00000000000E+00 0.  1.
     999901    1    3    3    0    0 -0.45596351193E-01  0.64793326106E-01 -0.10264970340E+00  0.88950220009E+00  0.88000000000E+00 0. -1.
        -11    1    4    4    0    0  0.22619319985E-01 -0.41563914568E-01  0.10577064839E+00  0.11587443123E+00  0.51100000000E-03 0.  1.
         11    1    4    4    0    0  0.18281425369E-01 -0.17241801937E-01  0.68114580231E-02  0.26041262046E-01  0.51100000000E-03 0. -1.
</event>
<event>
 8    1  0.2257781E+004  0.1043930E+01  0.7957747E-01            NaN
         13   -1    0    0    0    0  0.00000000000E+00  0.00000000000E+00  0.74505805969E-08  0.10566000000E+00  0.10566000000E+00 0. -1.
     999900   -1    0    0    0    0 -0.00000000000E+00 -0.00000000000E+00 -0.74505805969E-08  0.93827000000E+00  0.93827000000E+00 0. -1.
     999902    2    1    2    0    0  0.90751570398E-02  0.70513171037E-03 -0.10750045626E-01  0.10298438661E+01  0.10297475271E+01 0.  0.
     999903    2    3    3    0    0  0.56627569837E-01 -0.79754216512E-01  0.88006564573E-01  0.13940138808E+00  0.46045356707E-01 0.  0.
         14    1    1    2    0    0 -0.90751570398E-02 -0.70513171037E-03  0.10750045626E-01  0.14086133855E-01  0.00000000000E+00 0. -1.
     999901    1    3    3    0    0 -0.47552412798E-01  0.80459348222E-01 -0.98756610199E-01  0.89044247806E+00  0.88000000000E+00 0. -1.
        -11    1    4    4    0    0  0.48470795333E-01 -0.50167546749E-01  0.34758439460E-01  0.77939790747E-01  0.51100000000E-03 0.  1.
         11    1    4    4    0    0  0.81567745046E-02 -0.29586669763E-01  0.53248125113E-01  0.61461597336E-01  0.51100000000E-03 0. -1.
</event>
<event>
 8    1  0.2257781E+004  0.1043930E+01  0.7957747E-01            NaN
         13   -1    0    0    0    0  0.00000000000E+00  0.00000000000E+00  0.74505805969E-08  0.10566000000E+00  0.10566000000E+00 0. -1.
     999900   -1    0    0    0    0 -0.00000000000E+00 -0.00000000000E+00 -0.74505805969E-08  0.93827000000E+00  0.93827000000E+00 0. -1.
     999902    2    1    2    0    0  0.62391784617E-02  0.11771722666E-01  0.19673237667E-02  0.10304625888E+01  0.10303745803E+01 0.  0.
     999903    2    3    3    0    0  0.12616673181E+00 -0.37376319271E-01 -0.18211839328E-01  0.14074052728E+00  0.46488616574E-01 0.  0.
         14    1    1    2    0    0 -0.62391784617E-02 -0.11771722666E-01 -0.19673237667E-02  0.13467411229E-01  0.00000000000E+00 0. -1.
     999901    1    3    3    0    0 -0.11992755334E+00  0.49148041938E-01  0.20179163094E-01  0.88972206149E+00  0.88000000000E+00 0.  1.
        -11    1    4    4    0    0  0.75181773498E-01 -0.35136811122E-01 -0.30203030922E-01  0.88314091514E-01  0.51100000000E-03 0.  1.
         11    1    4    4    0    0  0.50984958308E-01 -0.22395081492E-02  0.11991191594E-01  0.52426435768E-01  0.51100000000E-03 0. -1.
</event>
<event>
 8    1  0.2257781E+004  0.1043930E+01  0.7957747E-01            NaN
         13   -1    0    0    0    0  0.00000000000E+00  0.00000000000E+00  0.74505805969E-08  0.10566000000E+00  0.10566000000E+00 0.  1.
     999900   -1    0    0    0    0 -0.00000000000E+00 -0.00000000000E+00 -0.74505805969E-08  0.93827000000E+00  0.93827000000E+00 0. -1.
     999902    2    1    2    0    0 -0.88454127697E-02 -0.88855436736E-02 -0.24058379351E-01  0.10168006832E+01  0.10164386993E+01 0.  0.
     999903    2    3    3    0    0  0.11297833369E+00 -0.73571403094E-02  0.33211591678E-01  0.12656295607E+00  0.45792364317E-01 0.  0.
         14    1    1    2    0    0  0.88454127697E-02  0.88855436736E-02  0.24058379351E-01  0.27129316808E-01  0.00000000000E+00 0.  1.
     999901    1    3    3    0    0 -0.12182374646E+00 -0.15284033642E-02 -0.57269971029E-01  0.89023772713E+00  0.88000000000E+00 0. -1.
        -11    1    4    4    0    0  0.45213088021E-01 -0.11603821334E-01 -0.76677826024E-02  0.47306743800E-01  0.51100000000E-03 0.  1.
         11    1    4    4    0    0  0.67765245667E-01  0.42466810247E-02  0.40879374281E-01  0.79256212265E-01  0.51100000000E-03 0. -1.
</event>
<event>
 8    1  0.2257781E+004  0.1043930E+01  0.7957747E-01            NaN
         13   -1    0    0    0    0  0.00000000000E+00  0.00000000000E+00  0.74505805969E-08  0.10566000000E+00  0.10566000000E+00 0.  1.
     999900   -1    0    0    0    0 -0.00000000000E+00 -0.00000000000E+00 -0.74505805969E-08  0.93827000000E+00  0.93827000000E+00 0. -1.
     999902    2    1    2    0    0 -0.27979454364E-02  0.61323892784E-02  0.11719216679E-01  0.10304105793E+01  0.10303218852E+01 0.  0.
     999903    2    3    3    0    0 -0.39129315013E-01 -0.85044626471E-01  0.96049750272E-01  0.14094733917E+00  0.43323274427E-01 0.  0.
         14    1    1    2    0    0  0.27979454364E-02 -0.61323892784E-02 -0.11719216679E-01  0.13519420716E-01  0.00000000000E+00 0. -1.
     999901    1    3    3    0    0  0.36331369576E-01  0.91177015749E-01 -0.84330533593E-01  0.88946324011E+00  0.88000000000E+00 0. -1.
        -11    1    4    4    0    0 -0.16476286300E-01 -0.29018798894E-01  0.64851707573E-01  0.72935339827E-01  0.51100000000E-03 0.  1.
         11    1    4    4    0    0 -0.22653028713E-01 -0.56025827577E-01  0.31198042699E-01  0.68011999344E-01  0.51100000000E-03 0. -1.
</event>
<event>
 8    1  0.2257781E+004  0.1043930E+01  0.7957747E-01            NaN
         13   -1    0    0    0    0  0.00000000000E+00  0.00000000000E+00  0.74505805969E-08  0.10566000000E+00  0.10566000000E+00 0.  1.
     999900   -1    0    0    0    0 -0.00000000000E+00 -0.00000000000E+00 -0.74505805969E-08  0.93827000000E+00  0.93827000000E+00 0. -1.
     999902    2    1    2    0    0 -0.37594936617E-02  0.59146891225E-02  0.60269818198E-02  0.10346865239E+01  0.10346452343E+01 0.  0.
     999903    2    3    3    0    0 -0.54475510399E-01 -0.74349993913E-01  0.10174253381E+00  0.14441914803E+00  0.44831287115E-01 0.  0.
         14    1    1    2    0    0  0.37594936617E-02 -0.59146891225E-02 -0.60269818198E-02  0.92434760704E-02  0.00000000000E+00 0. -1.
     999901    1    3    3    0    0  0.50716016737E-01  0.80264683036E-01 -0.95715551988E-01  0.89026737590E+00  0.88000000000E+00 0. -1.
        -11    1    4    4    0    0  0.40678260577E-02 -0.14887638025E-01  0.32512962323E-01  0.35993649645E-01  0.51100000000E-03 0.  1.
         11    1    4    4    0    0 -0.58543336457E-01 -0.59462355889E-01  0.69229571484E-01  0.10842549839E+00  0.51100000000E-03 0. -1.
</event>
<event>
 8    1  0.2257781E+004  0.1043930E+01  0.7957747E-01            NaN
         13   -1    0    0    0    0  0.00000000000E+00  0.00000000000E+00  0.74505805969E-08  0.10566000000E+00  0.10566000000E+00 0.  1.
     999900   -1    0    0    0    0 -0.00000000000E+00 -0.00000000000E+00 -0.74505805969E-08  0.93827000000E+00  0.93827000000E+00 0. -1.
     999902    2    1    2    0    0 -0.77415770976E-02 -0.26154983651E-02 -0.13228740877E-01  0.10283809668E+01  0.10282634101E+01 0.  0.
     999903    2    3    3    0    0 -0.70515480434E-01 -0.94815078989E-01 -0.63072301219E-01  0.13994092601E+00  0.40534126444E-01 0.  0.
         14    1    1    2    0    0  0.77415770976E-02  0.26154983651E-02  0.13228740877E-01  0.15549033181E-01  0.00000000000E+00 0.  1.
     999901    1    3    3    0    0  0.62773903336E-01  0.92199580624E-01  0.49843560342E-01  0.88844004081E+00  0.88000000000E+00 0.  1.
        -11    1    4    4    0    0 -0.23424158736E-01 -0.57457535470E-01 -0.17393545015E-01  0.64442657642E-01  0.51100000000E-03 0.  1.
         11    1    4    4    0    0 -0.47091321698E-01 -0.37357543519E-01 -0.45678756204E-01  0.75498268367E-01  0.51100000000E-03 0. -1.
</event>
<event>
 8    1  0.2257781E+004  0.1043930E+01  0.7957747E-01            NaN
         13   -1    0    0    0    0  0.00000000000E+00  0.00000000000E+00  0.74505805969E-08  0.10566000000E+00  0.10566000000E+00 0.  1.
     999900   -1    0    0    0    0 -0.00000000000E+00 -0.00000000000E+00 -0.74505805969E-08  0.93827000000E+00  0.93827000000E+00 0.  1.
     999902    2    1    2    0    0 -0.50616270048E-02  0.12977514885E-02 -0.15799497158E-01  0.10272888361E+01  0.10271540412E+01 0.  0.
     999903    2    3    3    0    0 -0.43965819496E-01  0.27673692878E-02  0.11983419440E+00  0.13604689682E+00  0.46988002426E-01 0.  0.
         14    1    1    2    0    0  0.50616270048E-02 -0.12977514885E-02  0.15799497158E-01  0.16641163941E-01  0.00000000000E+00 0.  1.
     999901    1    3    3    0    0  0.38904192491E-01 -0.14696177993E-02 -0.13563369155E+00  0.89124193924E+00  0.88000000000E+00 0.  1.
        -11    1    4    4    0    0 -0.53216904268E-01  0.65243666510E-02  0.92163985890E-01  0.10662583025E+00  0.51100000000E-03 0. -1.
         11    1    4    4    0    0  0.92510847720E-02 -0.37569973632E-02  0.27670208505E-01  0.29421066574E-01  0.51100000000E-03 0.  1.
</event>
<event>
 8    1  0.2257781E+004  0.1043930E+01  0.7957747E-01            NaN
         13   -1    0    0    0    0  0.00000000000E+00  0.00000000000E+00  0.74505805969E-08  0.10566000000E+00  0.10566000000E+00 0.  1.
     999900   -1    0    0    0    0 -0.00000000000E+00 -0.00000000000E+00 -0.74505805969E-08  0.93827000000E+00  0.93827000000E+00 0. -1.
     999902    2    1    2    0    0  0.14288183635E-01  0.59080948323E-02  0.73820760791E-02  0.10267966167E+01  0.10266536608E+01 0.  0.
     999903    2    3    3    0    0 -0.57079525874E-01 -0.10727123611E+00 -0.39901036947E-01  0.13542766745E+00  0.44535042269E-01 0.  0.
         14    1    1    2    0    0 -0.14288183635E-01 -0.59080948323E-02 -0.73820760791E-02  0.17133383302E-01  0.00000000000E+00 0. -1.
     999901    1    3    3    0    0  0.71367709509E-01  0.11317933094E+00  0.47283113026E-01  0.89136894925E+00  0.88000000000E+00 0.  1.
        -11    1    4    4    0    0 -0.24360341037E-01 -0.29599959085E-01  0.70022220439E-02  0.38972760074E-01  0.51100000000E-03 0.  1.
         11    1    4    4    0    0 -0.32719184837E-01 -0.77671277025E-01 -0.46903258990E-01  0.96454907372E-01  0.51100000000E-03 0. -1.
</event>
<event>
 8    1  0.2257781E+004  0.1043930E+01  0.7957747E-01            NaN
         13   -1    0    0    0    0  0.00000000000E+00  0.00000000000E+00  0.74505805969E-08  0.10566000000E+00  0.10566000000E+00 0.  1.
     999900   -1    0    0    0    0 -0.00000000000E+00 -0.00000000000E+00 -0.74505805969E-08  0.93827000000E+00  0.93827000000E+00 0. -1.
     999902    2    1    2    0    0 -0.35789667645E-02 -0.13354285309E-01  0.80097618570E-03  0.10300812635E+01  0.10299881659E+01 0.  0.
     999903    2    3    3    0    0 -0.81468465877E-01  0.10105349444E+00  0.18069189936E-01  0.13909635605E+00  0.46608807863E-01 0.  0.
         14    1    1    2    0    0  0.35789667645E-02  0.13354285309E-01 -0.80097618570E-03  0.13848736479E-01  0.00000000000E+00 0. -1.
     999901    1    3    3    0    0  0.77889499112E-01 -0.11440777975E+00 -0.17268213751E-01  0.89098490747E+00  0.88000000000E+00 0. -1.
        -11    1    4    4    0    0 -0.43570048602E-01  0.21639184149E-01  0.15513052996E-01  0.51063875294E-01  0.51100000000E-03 0.  1.
         11    1    4    4    0    0 -0.37898417275E-01  0.79414310288E-01  0.25561369401E-02  0.88032480753E-01  0.51100000000E-03 0. -1.
</event>
<event>
 8    1  0.2257781E+004  0.1043930E+01  0.7957747E-01            NaN
         13   -1    0    0    0    0  0.00000000000E+00  0.00000000000E+00  0.74505805969E-08  0.10566000000E+00  0.10566000000E+00 0. -1.
     999900   -1    0    0    0    0 -0.00000000000E+00 -0.00000000000E+00 -0.74505805969E-08  0.93827000000E+00  0.93827000000E+00 0.  1.
     999902    2    1    2    0    0  0.17175420676E-01  0.17812940763E-02  0.91785756907E-02  0.10243745830E+01  0.10241879085E+01 0.  0.
     999903    2    3    3    0    0 -0.10354896318E+00  0.62575790196E-01  0.35216906154E-01  0.13367354318E+00  0.44612423960E-01 0.  0.
         14    1    1    2    0    0 -0.17175420676E-01 -0.17812940763E-02 -0.91785756907E-02  0.19555417043E-01  0.00000000000E+00 0.  1.
     999901    1    3    3    0    0  0.12072438386E+00 -0.60794496120E-01 -0.26038330464E-01  0.89070103978E+00  0.88000000000E+00 0.  1.
        -11    1    4    4    0    0 -0.73094571941E-01  0.51540503444E-01  0.53324864699E-02  0.89598752644E-01  0.51100000000E-03 0. -1.
         11    1    4    4    0    0 -0.30454391239E-01  0.11035286752E-01  0.29884419684E-01  0.44074790531E-01  0.51100000000E-03 0.  1.
</event>
<event>
 8    1  0.2257781E+004  0.1043930E+01  0.7957747E-01            NaN
         13   -1    0    0    0    0  0.00000000000E+00  0.00000000000E+00  0.74505805969E-08  0.10566000000E+00  0.10566000000E+00 0. -1.
     999900   -1    0    0    0    0 -0.00000000000E+00 -0.00000000000E+00 -0.74505805969E-08  0.93827000000E+00  0.93827000000E+00 0. -1.
     999902    2    1    2    0    0  0.11775209674E-01 -0.97443993733E-02  0.47059418572E-02  0.10279376652E+01  0.10278132558E+01 0.  0.
     999903    2    3    3    0    0 -0.47610283093E-01  0.11567006574E+00 -0.28617233599E-01  0.13644124976E+00  0.46378501609E-01 0.  0.
         14    1    1    2    0    0 -0.11775209674E-01  0.97443993733E-02 -0.47059418572E-02  0.15992334751E-01  0.00000000000E+00 0.  1.
     999901    1    3    3    0    0  0.59385492767E-01 -0.12541446512E+00  0.33323175456E-01  0.89149641549E+00  0.88000000000E+00 0.  1.
        -11    1    4    4    0    0  0.27036856979E-02  0.44750165762E-01  0.19761269265E-03  0.44835113737E-01  0.51100000000E-03 0. -1.
         11    1    4    4    0    0 -0.50313968791E-01  0.70919899981E-01 -0.28814846292E-01  0.91606136020E-01  0.51100000000E-03 0.  1.
</event>
<event>
 8    1  0.2257781E+004  0.1043930E+01  0.7957747E-01            NaN
         13   -1    0    0    0    0  0.00000000000E+00  0.00000000000E+00  0.74505805969E-08  0.10566000000E+00  0.10566000000E+00 0. -1.
     999900   -1    0    0    0    0 -0.00000000000E+00 -0.00000000000E+00 -0.74505805969E-08  0.93827000000E+00  0.93827000000E+00 0.  1.
     999902    2    1    2    0    0  0.34968975577E-02  0.39461087481E-02  0.13358618972E-01  0.10295684970E+01  0.10294683275E+01 0.  0.
     999903    2    3    3    0    0  0.11656245325E+00 -0.50236064675E-01 -0.36215163849E-01  0.13930051055E+00  0.44526693616E-01 0.  0.
         14    1    1    2    0    0 -0.34968975577E-02 -0.39461087481E-02 -0.13358618972E-01  0.14361502973E-01  0.00000000000E+00 0.  1.
     999901    1    3    3    0    0 -0.11306555570E+00  0.54182173423E-01  0.49573782822E-01  0.89026798648E+00  0.88000000000E+00 0. -1.
        -11    1    4    4    0    0  0.79546306624E-01 -0.46720582300E-01 -0.79573923665E-02  0.92595944416E-01  0.51100000000E-03 0.  1.
         11    1    4    4    0    0  0.37016146630E-01 -0.35154823748E-02 -0.28257771483E-01  0.46704566135E-01  0.51100000000E-03 0. -1.
</event>
<event>
 8    1  0.2257781E+004  0.1043930E+01  0.7957747E-01            NaN
         13   -1    0    0    0    0  0.00000000000E+00  0.00000000000E+00  0.74505805969E-08  0.10566000000E+00  0.10566000000E+00 0. -1.
     999900   -1    0    0    0    0 -0.00000000000E+00 -0.00000000000E+00 -0.74505805969E-08  0.93827000000E+00  0.93827000000E+00 0.  1.
     999902    2    1    2    0    0 -0.60837902862E-02 -0.18914135622E-02  0.11427366891E-01  0.10308466264E+01  0.10307635968E+01 0.  0.
     999903    2    3    3    0    0 -0.15379477490E-01  0.12831431535E+00  0.34026060042E-01  0.14093053907E+00  0.44749885248E-01 0.  0.
         14    1    1    2    0    0  0.60837902862E-02  0.18914135622E-02 -0.11427366891E-01  0.13083373554E-01  0.00000000000E+00 0.  1.
     999901    1    3    3    0    0  0.92956872038E-02 -0.13020572891E+00 -0.22598693151E-01  0.88991608738E+00  0.88000000000E+00 0.  1.
        -11    1    4    4    0    0 -0.17756771156E-02  0.49161972827E-01  0.35391858338E-01  0.60604433493E-01  0.51100000000E-03 0. -1.
         11    1    4    4    0    0 -0.13603800374E-01  0.79152342519E-01 -0.13657982968E-02  0.80326105575E-01  0.51100000000E-03 0.  1.
</event>
<event>
 8    1  0.2257781E+004  0.1043930E+01  0.7957747E-01            NaN
         13   -1    0    0    0    0  0.00000000000E+00  0.00000000000E+00  0.74505805969E-08  0.10566000000E+00  0.10566000000E+00 0. -1.
     999900   -1    0    0    0    0 -0.00000000000E+00 -0.00000000000E+00 -0.74505805969E-08  0.93827000000E+00  0.93827000000E+00 0. -1.
     999902    2    1    2    0    0  0.29908698346E-02  0.13577261241E-01  0.27402059285E-02  0.10297597476E+01  0.10296622464E+01 0.  0.
     999903    2    3    3    0    0  0.40289889939E-01 -0.92521558784E-01 -0.82968272981E-01  0.13847184804E+00  0.45904295073E-01 0.  0.
         14    1    1    2    0    0 -0.29908698346E-02 -0.13577261241E-01 -0.27402059285E-02  0.14170252422E-01  0.00000000000E+00 0.  1.
     999901    1    3    3    0    0 -0.37299020105E-01  0.10609882002E+00  0.85708478909E-01  0.89128789954E+00  0.88000000000E+00 0. -1.
        -11    1    4    4    0    0  0.21881760219E-01 -0.63880803347E-01 -0.26516929108E-01  0.72546379075E-01  0.51100000000E-03 0.  1.
         11    1    4    4    0    0  0.18408129721E-01 -0.28640755437E-01 -0.56451343873E-01  0.65925468962E-01  0.51100000000E-03 0. -1.
</event>
<event>
 8    1  0.2257781E+004  0.1043930E+01  0.7957747E-01            NaN
         13   -1    0    0    0    0  0.00000000000E+00  0.00000000000E+00  0.74505805969E-08  0.10566000000E+00  0.10566000000E+00 0. -1.
     999900   -1    0    0    0    0 -0.00000000000E+00 -0.00000000000E+00 -0.74505805969E-08  0.93827000000E+00  0.93827000000E+00 0. -1.
     999902    2    1    2    0    0  0.51983036190E-02  0.11143972326E-01 -0.45030407433E-02  0.10308346628E+01  0.10307514803E+01 0.  0.
     999903    2    3    3    0    0 -0.98034587207E-01  0.85361820611E-01  0.29772383491E-01  0.14103686363E+00  0.45908402029E-01 0.  0.
         14    1    1    2    0    0 -0.51983036190E-02 -0.11143972326E-01  0.45030407433E-02  0.13095337172E-01  0.00000000000E+00 0. -1.
     999901    1    3    3    0    0  0.10323289083E+00 -0.74217848285E-01 -0.34275424235E-01  0.88979779920E+00  0.88000000000E+00 0.  1.
        -11    1    4    4    0    0 -0.21642018659E-01  0.40499740321E-01  0.25068615162E-01  0.52319236661E-01  0.51100000000E-03 0.  1.
         11    1    4    4    0    0 -0.76392568548E-01  0.44862080290E-01  0.47037683291E-02  0.88717626968E-01  0.51100000000E-03 0. -1.
</event>
<event>
 8    1  0.2257781E+004  0.1043930E+01  0.7957747E-01            NaN
         13   -1    0    0    0    0  0.00000000000E+00  0.00000000000E+00  0.74505805969E-08  0.10566000000E+00  0.10566000000E+00 0.  1.
     999900   -1    0    0    0    0 -0.00000000000E+00 -0.00000000000E+00 -0.74505805969E-08  0.93827000000E+00  0.93827000000E+00 0.  1.
     999902    2    1    2    0    0  0.97295860140E-02  0.39874673127E-02  0.10566374609E-01  0.10290231891E+01  0.10289152106E+01 0.  0.
     999903    2    3    3    0    0 -0.22484678900E-01 -0.11043958569E+00  0.68105675688E-01  0.13916809947E+00  0.45021261394E-01 0.  0.
         14    1    1    2    0    0 -0.97295860140E-02 -0.39874673127E-02 -0.10566374609E-01  0.14906810925E-01  0.00000000000E+00 0. -1.
     999901    1    3    3    0    0  0.32214264914E-01  0.11442705300E+00 -0.57539301079E-01  0.88985508960E+00  0.88000000000E+00 0.  1.
        -11    1    4    4    0    0 -0.25603404874E-01 -0.77221168486E-01  0.67631025427E-01  0.10579631338E+00  0.51100000000E-03 0. -1.
         11    1    4    4    0    0  0.31187259739E-02 -0.33218417203E-01  0.47465026186E-03  0.33371786093E-01  0.51100000000E-03 0.  1.
</event>
<event>
 8    1  0.2257781E+004  0.1043930E+01  0.7957747E-01            NaN
         13   -1    0    0    0    0  0.00000000000E+00  0.00000000000E+00  0.74505805969E-08  0.10566000000E+00  0.10566000000E+00 0.  1.
     999900   -1    0    0    0    0 -0.00000000000E+00 -0.00000000000E+00 -0.74505805969E-08  0.93827000000E+00  0.93827000000E+00 0. -1.
     999902    2    1    2    0    0  0.10829179075E-01  0.89460383090E-02  0.67733740494E-03  0.10298672298E+01  0.10297712122E+01 0.  0.
     999903    2    3    3    0    0  0.10283175231E+00  0.48004715774E-01 -0.70858938235E-01  0.14132488834E+00  0.45529253413E-01 0.  0.
         14    1    1    2    0    0 -0.10829179075E-01 -0.89460383090E-02 -0.67733740494E-03  0.14062770240E-01  0.00000000000E+00 0.  1.
     999901    1    3    3    0    0 -0.92002573235E-01 -0.39058677465E-01  0.71536275640E-01  0.88854234142E+00  0.88000000000E+00 0.  1.
        -11    1    4    4    0    0  0.49812206320E-01  0.27212846887E-01 -0.61353587873E-01  0.83584201857E-01  0.51100000000E-03 0. -1.
         11    1    4    4    0    0  0.53019545990E-01  0.20791868887E-01 -0.95053503617E-02  0.57740686481E-01  0.51100000000E-03 0.  1.
</event>
<event>
 8    1  0.2257781E+004  0.1043930E+01  0.7957747E-01            NaN
         13   -1    0    0    0    0  0.00000000000E+00  0.00000000000E+00  0.74505805969E-08  0.10566000000E+00  0.10566000000E+00 0.  1.
     999900   -1    0    0    0    0 -0.00000000000E+00 -0.00000000000E+00 -0.74505805969E-08  0.93827000000E+00  0.93827000000E+00 0. -1.
     999902    2    1    2    0    0  0.15025315886E-01 -0.32885108504E-03 -0.18947994239E-02  0.10287821115E+01  0.10286705860E+01 0.  0.
     999903    2    3    3    0    0 -0.11591048639E+00  0.22902606542E-01  0.51673840864E-01  0.13718047168E+00  0.46781681664E-01 0.  0.
         14    1    1    2    0    0 -0.15025315886E-01  0.32885108504E-03  0.18947994239E-02  0.15147888479E-01  0.00000000000E+00 0. -1.
     999901    1    3    3    0    0  0.13093580228E+00 -0.23231457627E-01 -0.53568640288E-01  0.89160163984E+00  0.88000000000E+00 0.  1.
        -11    1    4    4    0    0 -0.58662183072E-01  0.30119872715E-01  0.11677912259E-01  0.66970838511E-01  0.51100000000E-03 0.  1.
         11    1    4    4    0    0 -0.57248303319E-01 -0.72172661735E-02  0.39995928605E-01  0.70209633170E-01  0.51100000000E-03 0. -1.
</event>
<event>
 8    1  0.2257781E+004  0.1043930E+01  0.7957747E-01            NaN
         13   -1    0    0    0    0  0.00000000000E+00  0.00000000000E+00  0.74505805969E-08  0.10566000000E+00  0.10566000000E+00 0.  1.
     999900   -1    0    0    0    0 -0.00000000000E+00 -0.00000000000E+00 -0.74505805969E-08  0.93827000000E+00  0.93827000000E+00 0. -1.
     999902    2    1    2    0    0  0.10562669292E-01  0.56570345569E-02  0.12500318166E-01  0.10266144008E+01  0.10264683619E+01 0.  0.
     999903    2    3    3    0    0  0.10055475855E+00  0.79555299623E-01  0.27414566019E-01  0.13881827299E+00  0.45592206797E-01 0.  0.
         14    1    1    2    0    0 -0.10562669292E-01 -0.56570345569E-02 -0.12500318166E-01  0.17315599233E-01  0.00000000000E+00 0. -1.
     999901    1    3    3    0    0 -0.89992089257E-01 -0.73898265066E-01 -0.14914247853E-01  0.88779612778E+00  0.88000000000E+00 0. -1.
        -11    1    4    4    0    0  0.79285685801E-01  0.35105504217E-01  0.14996369824E-01  0.87998685378E-01  0.51100000000E-03 0. -1.
         11    1    4    4    0    0  0.21269072747E-01  0.44449795406E-01  0.12418196195E-01  0.50819587611E-01  0.51100000000E-03 0.  1.
</event>
<event>
 8    1  0.2257781E+004  0.1043930E+01  0.7957747E-01            NaN
         13   -1    0    0    0    0  0.00000000000E+00  0.00000000000E+00  0.74505805969E-08  0.10566000000E+00  0.10566000000E+00 0.  1.
     999900   -1    0    0    0    0 -0.00000000000E+00 -0.00000000000E+00 -0.74505805969E-08  0.93827000000E+00  0.93827000000E+00 0.  1.
     999902    2    1    2    0    0  0.94683855756E-02  0.10049069431E-01  0.35627228236E-02  0.10296707183E+01  0.10295719795E+01 0.  0.
     999903    2    3    3    0    0  0.10985216854E+00 -0.12031834087E-01 -0.73713955731E-01  0.14032480399E+00  0.45222111633E-01 0.  0.
         14    1    1    2    0    0 -0.94683855756E-02 -0.10049069431E-01 -0.35627228236E-02  0.14259281741E-01  0.00000000000E+00 0. -1.
     999901    1    3    3    0    0 -0.10038378296E+00  0.22080903518E-01  0.77276678555E-01  0.88934591427E+00  0.88000000000E+00 0. -1.
        -11    1    4    4    0    0  0.63666489219E-01 -0.15874256539E-01 -0.18377336169E-01  0.68142508582E-01  0.51100000000E-03 0. -1.
         11    1    4    4    0    0  0.46185679320E-01  0.38424224520E-02 -0.55336619562E-01  0.72182295406E-01  0.51100000000E-03 0.  1.
</event>
<event>
 8    1  0.2257781E+004  0.1043930E+01  0.7957747E-01            NaN
         13   -1    0    0    0    0  0.00000000000E+00  0.00000000000E+00  0.74505805969E-08  0.10566000000E+00  0.10566000000E+00 0. -1.
     999900   -1    0    0    0    0 -0.00000000000E+00 -0.00000000000E+00 -0.74505805969E-08  0.93827000000E+00  0.93827000000E+00 0. -1.
     999902    2    1    2    0    0  0.13236283639E-01  0.26992944195E-02  0.71376186071E-02  0.10286515513E+01  0.10285380805E+01 0.  0.
     999903    2    3    3    0    0 -0.12632425709E+00 -0.13977154249E-02  0.42062202205E-01  0.13696009315E+00  0.32079069867E-01 0.  0.
         14    1    1    2    0    0 -0.13236283639E-01 -0.26992944195E-02 -0.71376186071E-02  0.15278448688E-01  0.00000000000E+00 0. -1.
     999901    1    3    3    0    0  0.13956054073E+00  0.40970098444E-02 -0.34924583598E-01  0.89169145816E+00  0.88000000000E+00 0. -1.
        -11    1    4    4    0    0 -0.90166267284E-01 -0.80654263033E-02  0.42902524252E-01  0.10017931206E+00  0.51100000000E-03 0. -1.
         11    1    4    4    0    0 -0.36157989807E-01  0.66677108784E-02 -0.84032204646E-03  0.36780781087E-01  0.51100000000E-03 0.  1.
</event>
<event>
 8    1  0.2257781E+004  0.1043930E+01  0.7957747E-01            NaN
         13   -1    0    0    0    0  0.00000000000E+00  0.00000000000E+00  0.74505805969E-08  0.10566000000E+00  0.10566000000E+00 0. -1.
     999900   -1    0    0    0    0 -0.00000000000E+00 -0.00000000000E+00 -0.74505805969E-08  0.93827000000E+00  0.93827000000E+00 0.  1.
     999902    2    1    2    0    0  0.20668539513E-02 -0.74377986004E-02  0.11262546436E-01  0.10302757814E+01  0.10301852979E+01 0.  0.
     999903    2    3    3    0    0 -0.44914339755E-01 -0.71407065306E-01 -0.10169648774E+00  0.13951260129E+00  0.44780837511E-01 0.  0.
         14    1    1    2    0    0 -0.20668539513E-02  0.74377986004E-02 -0.11262546436E-01  0.13654218597E-01  0.00000000000E+00 0.  1.
     999901    1    3    3    0    0  0.46981193706E-01  0.63969266706E-01  0.11295903418E+00  0.89076318011E+00  0.88000000000E+00 0. -1.
        -11    1    4    4    0    0 -0.50782134917E-01 -0.61524807189E-01 -0.71239899331E-01  0.10695565204E+00  0.51100000000E-03 0. -1.
         11    1    4    4    0    0  0.58677951618E-02 -0.98822581170E-02 -0.30456588410E-01  0.32556949245E-01  0.51100000000E-03 0.  1.
</event>
<event>
 8    1  0.2257781E+004  0.1043930E+01  0.7957747E-01            NaN
         13   -1    0    0    0    0  0.00000000000E+00  0.00000000000E+00  0.74505805969E-08  0.10566000000E+00  0.10566000000E+00 0.  1.
     999900   -1    0    0    0    0 -0.00000000000E+00 -0.00000000000E+00 -0.74505805969E-08  0.93827000000E+00  0.93827000000E+00 0.  1.
     999902    2    1    2    0    0  0.64931069013E-03  0.11159877045E-01  0.87240481638E-02  0.10297499620E+01  0.10296523252E+01 0.  0.
     999903    2    3    3    0    0 -0.93684079956E-01  0.90508702950E-01 -0.27578698936E-01  0.14041711423E+00  0.44585302351E-01 0.  0.
         14    1    1    2    0    0 -0.64931069013E-03 -0.11159877045E-01 -0.87240481638E-02  0.14180037955E-01  0.00000000000E+00 0. -1.
     999901    1    3    3    0    0  0.94333390646E-01 -0.79348825905E-01  0.36302747100E-01  0.88933284782E+00  0.88000000000E+00 0.  1.
        -11    1    4    4    0    0 -0.61092338288E-01  0.65188543513E-01  0.24479511565E-02  0.89376023567E-01  0.51100000000E-03 0.  1.
         11    1    4    4    0    0 -0.32591741668E-01  0.25320159437E-01 -0.30026650093E-01  0.51041090659E-01  0.51100000000E-03 0. -1.
</event>
<event>
 8    1  0.2257781E+004  0.1043930E+01  0.7957747E-01            NaN
         13   -1    0    0    0    0  0.00000000000E+00  0.00000000000E+00  0.74505805969E-08  0.10566000000E+00  0.10566000000E+00 0. -1.
     999900   -1    0    0    0    0 -0.00000000000E+00 -0.00000000000E+00 -0.74505805969E-08  0.93827000000E+00  0.93827000000E+00 0.  1.
     999902    2    1    2    0    0 -0.68234772209E-02 -0.12222005528E-01  0.14208541357E-02  0.10298603132E+01  0.10297642005E+01 0.  0.
     999903    2    3    3    0    0 -0.11798835428E-01  0.11739085740E+00  0.57448664711E-01  0.13858966743E+00  0.44574891179E-01 0.  0.
         14    1    1    2    0    0  0.68234772209E-02  0.12222005528E-01 -0.14208541357E-02  0.14069686812E-01  0.00000000000E+00 0. -1.
     999901    1    3    3    0    0  0.49753582068E-02 -0.12961286293E+00 -0.56027810576E-01  0.89127064575E+00  0.88000000000E+00 0. -1.
        -11    1    4    4    0    0 -0.15685162770E-01  0.85452354135E-01  0.19885127126E-01  0.89128045868E-01  0.51100000000E-03 0.  1.
         11    1    4    4    0    0  0.38863273421E-02  0.31938503265E-01  0.37563537585E-01  0.49461621566E-01  0.51100000000E-03 0. -1.
</event>
<event>
 8    1  0.2257781E+004  0.1043930E+01  0.7957747E-01            NaN
         13   -1    0    0    0    0  0.00000000000E+00  0.00000000000E+00  0.74505805969E-08  0.10566000000E+00  0.10566000000E+00 0. -1.
     999900   -1    0    0    0    0 -0.00000000000E+00 -0.00000000000E+00 -0.74505805969E-08  0.93827000000E+00  0.93827000000E+00 0. -1.
     999902    2    1    2    0    0  0.29311010021E-02 -0.64007279446E-02  0.68617487804E-02  0.10340992184E+01  0.10340524886E+01 0.  0.
     999903    2    3    3    0    0 -0.39605799679E-01 -0.12089162657E+00 -0.47015278540E-01  0.14403164348E+00  0.48489928469E-01 0.  0.
         14    1    1    2    0    0 -0.29311010021E-02  0.64007279446E-02 -0.68617487804E-02  0.98307816389E-02  0.00000000000E+00 0.  1.
     999901    1    3    3    0    0  0.42536900681E-01  0.11449089863E+00  0.53877027320E-01  0.89006757488E+00  0.88000000000E+00 0.  1.
        -11    1    4    4    0    0  0.67182886434E-02 -0.51753547805E-01 -0.10937391832E-01  0.53324035610E-01  0.51100000000E-03 0. -1.
         11    1    4    4    0    0 -0.46324088322E-01 -0.69138078767E-01 -0.36077886708E-01  0.90707607866E-01  0.51100000000E-03 0.  1.
</event>
<event>
 8    1  0.2257781E+004  0.1043930E+01  0.7957747E-01            NaN
         13   -1    0    0    0    0  0.00000000000E+00  0.00000000000E+00  0.74505805969E-08  0.10566000000E+00  0.10566000000E+00 0. -1.
     999900   -1    0    0    0    0 -0.00000000000E+00 -0.00000000000E+00 -0.74505805969E-08  0.93827000000E+00  0.93827000000E+00 0.  1.
     999902    2    1    2    0    0 -0.31199510026E-02 -0.33345330627E-02 -0.13122201660E-01  0.10300359228E+01  0.10299422104E+01 0.  0.
     999903    2    3    3    0    0  0.20472576957E-01  0.71478392027E-01  0.10776756265E+00  0.13831404000E+00  0.44594160703E-01 0.  0.
         14    1    1    2    0    0  0.31199510026E-02  0.33345330627E-02  0.13122201660E-01  0.13894077206E-01  0.00000000000E+00 0. -1.
     999901    1    3    3    0    0 -0.23592527960E-01 -0.74812925090E-01 -0.12088976431E+00  0.89172188279E+00  0.88000000000E+00 0.  1.
        -11    1    4    4    0    0  0.11693757442E-01  0.57211447425E-01  0.46071975879E-01  0.74382671113E-01  0.51100000000E-03 0. -1.
         11    1    4    4    0    0  0.87788195149E-02  0.14266944603E-01  0.61695586768E-01  0.63931368889E-01  0.51100000000E-03 0.  1.
</event>
<event>
 7    1  0.2257781E+004  0.1043930E+01  0.7957747E-01            NaN
         13   -1    0    0    0    0  0.00000000000E+00  0.00000000000E+00  0.74505805969E-08  0.10566000000E+00  0.10566000000E+00 0.  1.
     999900   -1    0    0    0    0 -0.00000000000E+00 -0.00000000000E+00 -0.74505805969E-08  0.93827000000E+00  0.93827000000E+00 0.  1.
     999903    2    1    2    0    0  0.10338596078E+00 -0.15411702047E-01 -0.51147266466E-01  0.12456485822E+00  0.44431785809E-01 0.  0.
         14    1    1    2    0    0 -0.22441525319E-01  0.21040247543E-01 -0.12806027520E-01  0.33321290734E-01  0.00000000000E+00 0.  1.
     999901    1    1    2    0    0 -0.80944435466E-01 -0.56285454965E-02  0.63953293986E-01  0.88604385104E+00  0.88000000000E+00 0. -1.
        -11    1    3    3    0    0  0.54262729048E-01 -0.26117427515E-01 -0.13406572989E-01  0.61697334660E-01  0.51100000000E-03 0. -1.
         11    1    3    3    0    0  0.49123231736E-01  0.10705725469E-01 -0.37740693477E-01  0.62867523565E-01  0.51100000000E-03 0.  1.
</event>
<event>
 8    1  0.2257781E+004  0.1043930E+01  0.7957747E-01            NaN
         13   -1    0    0    0    0  0.00000000000E+00  0.00000000000E+00  0.74505805969E-08  0.10566000000E+00  0.10566000000E+00 0. -1.
     999900   -1    0    0    0    0 -0.00000000000E+00 -0.00000000000E+00 -0.74505805969E-08  0.93827000000E+00  0.93827000000E+00 0.  1.
     999902    2    1    2    0    0  0.55083399948E-02 -0.12200601098E-01 -0.67233455817E-02  0.10289500183E+01  0.10288409694E+01 0.  0.
     999903    2    3    3    0    0  0.73406590171E-01 -0.77584720908E-01  0.78365500994E-01  0.13983508346E+00  0.44774796719E-01 0.  0.
         14    1    1    2    0    0 -0.55083399948E-02  0.12200601098E-01  0.67233455817E-02  0.14979981724E-01  0.00000000000E+00 0. -1.
     999901    1    3    3    0    0 -0.67898250176E-01  0.65384119810E-01 -0.85088846576E-01  0.88911493482E+00  0.88000000000E+00 0.  1.
        -11    1    4    4    0    0  0.43126976171E-01 -0.68953848818E-01  0.41357613011E-01  0.91242986664E-01  0.51100000000E-03 0.  1.
         11    1    4    4    0    0  0.30279614000E-01 -0.86308720906E-02  0.37007887984E-01  0.48592096796E-01  0.51100000000E-03 0. -1.
</event>
<event>
 8    1  0.2257781E+004  0.1043930E+01  0.7957747E-01            NaN
         13   -1    0    0    0    0  0.00000000000E+00  0.00000000000E+00  0.74505805969E-08  0.10566000000E+00  0.10566000000E+00 0.  1.
     999900   -1    0    0    0    0 -0.00000000000E+00 -0.00000000000E+00 -0.74505805969E-08  0.93827000000E+00  0.93827000000E+00 0. -1.
     999902    2    1    2    0    0  0.12764506173E-01 -0.34484070312E-02 -0.64942531013E-02  0.10291990987E+01  0.10290936718E+01 0.  0.
     999903    2    3    3    0    0  0.54737552818E-01  0.14234025072E-02 -0.12169864732E+00  0.14068487621E+00  0.44535916658E-01 0.  0.
         14    1    1    2    0    0 -0.12764506173E-01  0.34484070312E-02  0.64942531013E-02  0.14730901271E-01  0.00000000000E+00 0.  1.
     999901    1    3    3    0    0 -0.41973046645E-01 -0.48718095384E-02  0.11520439421E+00  0.88851422252E+00  0.88000000000E+00 0.  1.
        -11    1    4    4    0    0  0.97740178387E-02  0.17637970570E-01 -0.20474187055E-01  0.28741657696E-01  0.51100000000E-03 0.  1.
         11    1    4    4    0    0  0.44963534979E-01 -0.16214568063E-01 -0.10122446026E+00  0.11194321851E+00  0.51100000000E-03 0. -1.
</event>
<event>
 8    1  0.2257781E+004  0.1043930E+01  0.7957747E-01            NaN
         13   -1    0    0    0    0  0.00000000000E+00  0.00000000000E+00  0.74505805969E-08  0.10566000000E+00  0.10566000000E+00 0. -1.
     999900   -1    0    0    0    0 -0.00000000000E+00 -0.00000000000E+00 -0.74505805969E-08  0.93827000000E+00  0.93827000000E+00 0.  1.
     999902    2    1    2    0    0 -0.12070409673E-01  0.37432233640E-02  0.52467079507E-02  0.10302466358E+01  0.10301557631E+01 0.  0.
     999903    2    3    3    0    0  0.89541081937E-01  0.96597147641E-01  0.31872985932E-02  0.13954411105E+00  0.45975925967E-01 0.  0.
         14    1    1    2    0    0  0.12070409673E-01 -0.37432233640E-02 -0.52467079507E-02  0.13683364175E-01  0.00000000000E+00 0.  1.
     999901    1    3    3    0    0 -0.10161149161E+00 -0.92853924277E-01  0.20594093575E-02  0.89070252478E+00  0.88000000000E+00 0. -1.
        -11    1    4    4    0    0  0.12375634958E-01  0.17011050971E-01 -0.16769696482E-01  0.26907546095E-01  0.51100000000E-03 0.  1.
         11    1    4    4    0    0  0.77165446979E-01  0.79586096669E-01  0.19956995075E-01  0.11263656495E+00  0.51100000000E-03 0. -1.
</event>
<event>
 8    1  0.2257781E+004  0.1043930E+01  0.7957747E-01            NaN
         13   -1    0    0    0    0  0.00000000000E+00  0.00000000000E+00  0.74505805969E-08  0.10566000000E+00  0.10566000000E+00 0. -1.
     999900   -1    0    0    0    0 -0.00000000000E+00 -0.00000000000E+00 -0.74505805969E-08  0.93827000000E+00  0.93827000000E+00 0.  1.
     999902    2    1    2    0    0  0.53417231074E-03  0.30151702491E-03 -0.13740123396E-01  0.10301761917E+01  0.10300843745E+01 0.  0.
     999903    2    3    3    0    0  0.86222371356E-01 -0.61369568668E-01 -0.82366273628E-01  0.14121312227E+00  0.44231454747E-01 0.  0.
         14    1    1    2    0    0 -0.53417231074E-03 -0.30151702491E-03  0.13740123396E-01  0.13753808328E-01  0.00000000000E+00 0. -1.
     999901    1    3    3    0    0 -0.85688199045E-01  0.61671085693E-01  0.68626150232E-01  0.88896306940E+00  0.88000000000E+00 0. -1.
        -11    1    4    4    0    0  0.54735576984E-01 -0.30652039703E-01 -0.72967003319E-01  0.96228767114E-01  0.51100000000E-03 0.  1.
         11    1    4    4    0    0  0.31486794372E-01 -0.30717528965E-01 -0.93992703087E-02  0.44984355156E-01  0.51100000000E-03 0. -1.
</event>
<event>
 8    1  0.2257781E+004  0.1043930E+01  0.7957747E-01            NaN
         13   -1    0    0    0    0  0.00000000000E+00  0.00000000000E+00  0.74505805969E-08  0.10566000000E+00  0.10566000000E+00 0. -1.
     999900   -1    0    0    0    0 -0.00000000000E+00 -0.00000000000E+00 -0.74505805969E-08  0.93827000000E+00  0.93827000000E+00 0. -1.
     999902    2    1    2    0    0  0.81525187071E-02  0.71281068575E-02 -0.79997488862E-02  0.10304663656E+01  0.10303784068E+01 0.  0.
     999903    2    3    3    0    0 -0.21698835506E-02 -0.64897936565E-01  0.11452226856E+00  0.13900355221E+00  0.44611511604E-01 0.  0.
         14    1    1    2    0    0 -0.81525187071E-02 -0.71281068575E-02  0.79997488862E-02  0.13463634386E-01  0.00000000000E+00 0. -1.
     999901    1    3    3    0    0  0.10322402258E-01  0.72026043422E-01 -0.12252201744E+00  0.89146281340E+00  0.88000000000E+00 0. -1.
        -11    1    4    4    0    0 -0.17839802094E-01 -0.52617104308E-01  0.64318129601E-01  0.84993535759E-01  0.51100000000E-03 0.  1.
         11    1    4    4    0    0  0.15669918543E-01 -0.12280832257E-01  0.50204138955E-01  0.54010016453E-01  0.51100000000E-03 0. -1.
</event>
<event>
 8    1  0.2257781E+004  0.1043930E+01  0.7957747E-01            NaN
         13   -1    0    0    0    0  0.00000000000E+00  0.00000000000E+00  0.74505805969E-08  0.10566000000E+00  0.10566000000E+00 0. -1.
     999900   -1    0    0    0    0 -0.00000000000E+00 -0.00000000000E+00 -0.74505805969E-08  0.93827000000E+00  0.93827000000E+00 0.  1.
     999902    2    1    2    0    0  0.63319325350E-02 -0.24800931718E-02 -0.11932734338E-01  0.10301955768E+01  0.10301040200E+01 0.  0.
     999903    2    3    3    0    0  0.97882612788E-01 -0.88342476465E-01  0.20123281245E-01  0.14071175792E+00  0.44826926449E-01 0.  0.
         14    1    1    2    0    0 -0.63319325350E-02  0.24800931718E-02  0.11932734338E-01  0.13734423197E-01  0.00000000000E+00 0. -1.
     999901    1    3    3    0    0 -0.91550680253E-01  0.85862383293E-01 -0.32056015583E-01  0.88948381888E+00  0.88000000000E+00 0.  1.
        -11    1    4    4    0    0  0.55399146269E-01 -0.67245603445E-01  0.30206785900E-01  0.92215766686E-01  0.51100000000E-03 0. -1.
         11    1    4    4    0    0  0.42483466519E-01 -0.21096873019E-01 -0.10083504655E-01  0.48495991234E-01  0.51100000000E-03 0.  1.
</event>
<event>
 8    1  0.2257781E+004  0.1043930E+01  0.7957747E-01            NaN
         13   -1    0    0    0    0  0.00000000000E+00  0.00000000000E+00  0.74505805969E-08  0.10566000000E+00  0.10566000000E+00 0.  1.
     999900   -1    0    0    0    0 -0.00000000000E+00 -0.00000000000E+00 -0.74505805969E-08  0.93827000000E+00  0.93827000000E+00 0.  1.
     999902    2    1    2    0    0  0.39664781154E-02 -0.37246814308E-02 -0.13045986033E-01  0.10297947974E+01  0.10296977813E+01 0.  0.
     999903    2    3    3    0    0  0.29855570609E-01 -0.44665941873E-01  0.11924143145E+00  0.13858977458E+00  0.45849811160E-01 0.  0.
         14    1    1    2    0    0 -0.39664781154E-02  0.37246814308E-02  0.13045986033E-01  0.14135202580E-01  0.00000000000E+00 0.  1.
     999901    1    3    3    0    0 -0.25889092493E-01  0.40941260442E-01 -0.13228741748E+00  0.89120502284E+00  0.88000000000E+00 0.  1.
        -11    1    4    4    0    0  0.26956898686E-01 -0.39044624694E-01  0.49530781023E-01  0.68590935946E-01  0.51100000000E-03 0. -1.
         11    1    4    4    0    0  0.28986719226E-02 -0.56213171790E-02  0.69710650427E-01  0.69998838631E-01  0.51100000000E-03 0.  1.
</event>
<event>
 8    1  0.2257781E+004  0.1043930E+01  0.7957747E-01            NaN
         13   -1    0    0    0    0  0.00000000000E+00  0.00000000000E+00  0.74505805969E-08  0.10566000000E+00  0.10566000000E+00 0.  1.
     999900   -1    0    0    0    0 -0.00000000000E+00 -0.00000000000E+00 -0.74505805969E-08  0.93827000000E+00  0.93827000000E+00 0. -1.
     999902    2    1    2    0    0  0.76772674036E-02 -0.59757795535E-02 -0.96652268686E-02  0.10302162483E+01  0.10301249687E+01 0.  0.
     999903    2    3    3    0    0 -0.45373312092E-01  0.11853189860E+00  0.33454461788E-01  0.13882641579E+00  0.45221944584E-01 0.  0.
         14    1    1    2    0    0 -0.76772674036E-02  0.59757795535E-02  0.96652268686E-02  0.13713751729E-01  0.00000000000E+00 0.  1.
     999901    1    3    3    0    0  0.53050579495E-01 -0.12450767815E+00 -0.43119688657E-01  0.89138983248E+00  0.88000000000E+00 0.  1.
        -11    1    4    4    0    0 -0.40801388897E-01  0.58853702824E-01  0.30226252355E-02  0.71679209373E-01  0.51100000000E-03 0. -1.
         11    1    4    4    0    0 -0.45719231944E-02  0.59678195774E-01  0.30431836553E-01  0.67147206416E-01  0.51100000000E-03 0.  1.
</event>
<event>
 8    1  0.2257781E+004  0.1043930E+01  0.7957747E-01            NaN
         13   -1    0    0    0    0  0.00000000000E+00  0.00000000000E+00  0.74505805969E-08  0.10566000000E+00  0.10566000000E+00 0. -1.
     999900   -1    0    0    0    0 -0.00000000000E+00 -0.00000000000E+00 -0.74505805969E-08  0.93827000000E+00  0.93827000000E+00 0.  1.
     999902    2    1    2    0    0 -0.10500452205E-01 -0.47524130201E-02 -0.64673544415E-02  0.10307136616E+01  0.10306289248E+01 0.  0.
     999903    2    3    3    0    0  0.13123847604E-01 -0.65230533317E-02  0.13056774088E+00  0.13979286828E+00  0.47742281682E-01 0.  0.
         14    1    1    2    0    0  0.10500452205E-01  0.47524130201E-02  0.64673544415E-02  0.13216338354E-01  0.00000000000E+00 0. -1.
     999901    1    3    3    0    0 -0.23624299809E-01  0.17706403116E-02 -0.13703509533E+00  0.89092079337E+00  0.88000000000E+00 0.  1.
        -11    1    4    4    0    0  0.21107149957E-03 -0.26155496620E-01  0.76064133533E-01  0.80437355039E-01  0.51100000000E-03 0.  1.
         11    1    4    4    0    0  0.12912776105E-01  0.19632443288E-01  0.54503607352E-01  0.59355513236E-01  0.51100000000E-03 0. -1.
</event>
<event>
 8    1  0.2257781E+004  0.1043930E+01  0.7957747E-01            NaN
         13   -1    0    0    0    0  0.00000000000E+00  0.00000000000E+00  0.74505805969E-08  0.10566000000E+00  0.10566000000E+00 0. -1.
     999900   -1    0    0    0    0 -0.00000000000E+00 -0.00000000000E+00 -0.74505805969E-08  0.93827000000E+00  0.93827000000E+00 0. -1.
     999902    2    1    2    0    0  0.70107041577E-02  0.57549839144E-02 -0.10519674546E-01  0.10300399545E+01  0.10299462969E+01 0.  0.
     999903    2    3    3    0    0 -0.12468173280E+00 -0.41017981811E-01  0.56243473545E-02  0.13886587622E+00  0.44989876314E-01 0.  0.
         14    1    1    2    0    0 -0.70107041577E-02 -0.57549839144E-02  0.10519674546E-01  0.13890045543E-01  0.00000000000E+00 0. -1.
     999901    1    3    3    0    0  0.13169243695E+00  0.46772965726E-01 -0.16144021901E-01  0.89117407823E+00  0.88000000000E+00 0.  1.
        -11    1    4    4    0    0 -0.92460281082E-01 -0.91183769844E-02  0.92930459407E-02  0.93373819673E-01  0.51100000000E-03 0.  1.
         11    1    4    4    0    0 -0.32221451715E-01 -0.31899604827E-01 -0.36686985862E-02  0.45492056549E-01  0.51100000000E-03 0. -1.
</event>
<event>
 8    1  0.2257781E+004  0.1043930E+01  0.7957747E-01            NaN
         13   -1    0    0    0    0  0.00000000000E+00  0.00000000000E+00  0.74505805969E-08  0.10566000000E+00  0.10566000000E+00 0. -1.
     999900   -1    0    0    0    0 -0.00000000000E+00 -0.00000000000E+00 -0.74505805969E-08  0.93827000000E+00  0.93827000000E+00 0.  1.
     999902    2    1    2    0    0  0.38666832381E-03 -0.15422847045E-01  0.13309184388E-02  0.10284450051E+01  0.10283284220E+01 0.  0.
     999903    2    3    3    0    0  0.11049796298E+00 -0.12198573443E-01  0.70043681160E-01  0.13891909939E+00  0.45097604020E-01 0.  0.
         14    1    1    2    0    0 -0.38666832381E-03  0.15422847045E-01 -0.13309184388E-02  0.15484994907E-01  0.00000000000E+00 0. -1.
     999901    1    3    3    0    0 -0.11011129466E+00 -0.32242736019E-02 -0.68712762721E-01  0.88952590570E+00  0.88000000000E+00 0. -1.
        -11    1    4    4    0    0  0.79977432894E-01 -0.17468852386E-01  0.70352498966E-01  0.10794112195E+00  0.51100000000E-03 0. -1.
         11    1    4    4    0    0  0.30520530089E-01  0.52702789426E-02 -0.30881780652E-03  0.30977977444E-01  0.51100000000E-03 0.  1.
</event>
<event>
 8    1  0.2257781E+004  0.1043930E+01  0.7957747E-01            NaN
         13   -1    0    0    0    0  0.00000000000E+00  0.00000000000E+00  0.74505805969E-08  0.10566000000E+00  0.10566000000E+00 0.  1.
     999900   -1    0    0    0    0 -0.00000000000E+00 -0.00000000000E+00 -0.74505805969E-08  0.93827000000E+00  0.93827000000E+00 0.  1.
     999902    2    1    2    0    0  0.11562965519E-01 -0.61170686061E-02 -0.35975772687E-02  0.10303630084E+01  0.10302736849E+01 0.  0.
     999903    2    3    3    0    0  0.22233813619E-01  0.10206235330E+00  0.80739744981E-01  0.13967258052E+00  0.45590096506E-01 0.  0.
         14    1    1    2    0    0 -0.11562965519E-01  0.61170686061E-02  0.35975772687E-02  0.13566991639E-01  0.00000000000E+00 0.  1.
     999901    1    3    3    0    0 -0.10670848100E-01 -0.10817942191E+00 -0.84337322250E-01  0.89069042784E+00  0.88000000000E+00 0.  1.
        -11    1    4    4    0    0 -0.53178246245E-02  0.37352497072E-01  0.50683237240E-01  0.63186548840E-01  0.51100000000E-03 0.  1.
         11    1    4    4    0    0  0.27551638244E-01  0.64709856232E-01  0.30056507741E-01  0.76486031680E-01  0.51100000000E-03 0. -1.
</event>
<event>
 8    1  0.2257781E+004  0.1043930E+01  0.7957747E-01            NaN
         13   -1    0    0    0    0  0.00000000000E+00  0.00000000000E+00  0.74505805969E-08  0.10566000000E+00  0.10566000000E+00 0. -1.
     999900   -1    0    0    0    0 -0.00000000000E+00 -0.00000000000E+00 -0.74505805969E-08  0.93827000000E+00  0.93827000000E+00 0.  1.
     999902    2    1    2    0    0  0.14770178879E-01 -0.40962542554E-02 -0.16022187280E-02  0.10285188161E+01  0.10284033501E+01 0.  0.
     999903    2    3    3    0    0 -0.26076465180E-01  0.18504715765E-01  0.12641760482E+00  0.13803112538E+00  0.45263387215E-01 0.  0.
         14    1    1    2    0    0 -0.14770178879E-01  0.40962542554E-02  0.16022187280E-02  0.15411183858E-01  0.00000000000E+00 0.  1.
     999901    1    3    3    0    0  0.40846644059E-01 -0.22600970020E-01 -0.12801982355E+00  0.89048769076E+00  0.88000000000E+00 0.  1.
        -11    1    4    4    0    0 -0.21466692223E-01 -0.42790993340E-02  0.10196321600E+00  0.10428752612E+00  0.51100000000E-03 0.  1.
         11    1    4    4    0    0 -0.46097729578E-02  0.22783815099E-01  0.24454388820E-01  0.33743599256E-01  0.51100000000E-03 0. -1.
</event>
<event>
 8    1  0.2257781E+004  0.1043930E+01  0.7957747E-01            NaN
         13   -1    0    0    0    0  0.00000000000E+00  0.00000000000E+00  0.74505805969E-08  0.10566000000E+00  0.10566000000E+00 0. -1.
     999900   -1    0    0    0    0 -0.00000000000E+00 -0.00000000000E+00 -0.74505805969E-08  0.93827000000E+00  0.93827000000E+00 0.  1.
     999902    2    1    2    0    0  0.10652261485E-01  0.38350232147E-03 -0.11265986179E-01  0.10284206417E+01  0.10283036887E+01 0.  0.
     999903    2    3    3    0    0  0.21953110979E-01  0.80330376343E-01 -0.10410594273E+00  0.13986086920E+00  0.42286013963E-01 0.  0.
         14    1    1    2    0    0 -0.10652261485E-01 -0.38350232147E-03  0.11265986179E-01  0.15509358251E-01  0.00000000000E+00 0.  1.
     999901    1    3    3    0    0 -0.11300849494E-01 -0.79946874022E-01  0.92839956546E-01  0.88855977255E+00  0.88000000000E+00 0. -1.
        -11    1    4    4    0    0  0.26093554619E-01  0.30222461729E-01 -0.64474241917E-01  0.75838379317E-01  0.51100000000E-03 0.  1.
         11    1    4    4    0    0 -0.41404436406E-02  0.50107914614E-01 -0.39631700808E-01  0.64022489880E-01  0.51100000000E-03 0. -1.
</event>
<event>
 8    1  0.2257781E+004  0.1043930E+01  0.7957747E-01            NaN
         13   -1    0    0    0    0  0.00000000000E+00  0.00000000000E+00  0.74505805969E-08  0.10566000000E+00  0.10566000000E+00 0.  1.
     999900   -1    0    0    0    0 -0.00000000000E+00 -0.00000000000E+00 -0.74505805969E-08  0.93827000000E+00  0.93827000000E+00 0. -1.
     999902    2    1    2    0    0 -0.24970635352E-02 -0.33679625085E-02  0.13202667826E-01  0.10300776018E+01  0.10299844547E+01 0.  0.
     999903    2    3    3    0    0 -0.76673069114E-01 -0.76590565941E-01  0.79369924347E-01  0.14145972258E+00  0.44344040228E-01 0.  0.
         14    1    1    2    0    0  0.24970635352E-02  0.33679625085E-02 -0.13202667826E-01  0.13852398185E-01  0.00000000000E+00 0. -1.
     999901    1    3    3    0    0  0.74176005578E-01  0.73222603432E-01 -0.66167256521E-01  0.88861787923E+00  0.88000000000E+00 0. -1.
        -11    1    4    4    0    0 -0.10049018056E-01 -0.68979839343E-02 -0.51503899887E-02  0.13242076283E-01  0.51100000000E-03 0.  1.
         11    1    4    4    0    0 -0.66624051057E-01 -0.69692582006E-01  0.84520314336E-01  0.12821764630E+00  0.51100000000E-03 0. -1.
</event>
<event>
 8    1  0.2257781E+004  0.1043930E+01  0.7957747E-01            NaN
         13   -1    0    0    0    0  0.00000000000E+00  0.00000000000E+00  0.74505805969E-08  0.10566000000E+00  0.10566000000E+00 0.  1.
     999900   -1    0    0    0    0 -0.00000000000E+00 -0.00000000000E+00 -0.74505805969E-08  0.93827000000E+00  0.93827000000E+00 0.  1.
     999902    2    1    2    0    0  0.92151314738E-02  0.78420621812E-02  0.89159573096E-02  0.10288996679E+01  0.10287898793E+01 0.  0.
     999903    2    3    3    0    0  0.45125461233E-01  0.10323984617E+00  0.70814990079E-01  0.14085587440E+00  0.46161038152E-01 0.  0.
         14    1    1    2    0    0 -0.92151314738E-02 -0.78420621812E-02 -0.89159573096E-02  0.15030332068E-01  0.00000000000E+00 0.  1.
     999901    1    3    3    0    0 -0.35910329759E-01 -0.95397783993E-01 -0.61899032770E-01  0.88804379353E+00  0.88000000000E+00 0. -1.
        -11    1    4    4    0    0  0.20538447607E-01  0.81036090241E-01  0.67704819051E-01  0.10757731822E+00  0.51100000000E-03 0.  1.
         11    1    4    4    0    0  0.24587013626E-01  0.22203755933E-01  0.31101710288E-02  0.33278556180E-01  0.51100000000E-03 0. -1.
</event>
<event>
 8    1  0.2257781E+004  0.1043930E+01  0.7957747E-01            NaN
         13   -1    0    0    0    0  0.00000000000E+00  0.00000000000E+00  0.74505805969E-08  0.10566000000E+00  0.10566000000E+00 0.  1.
     999900   -1    0    0    0    0 -0.00000000000E+00 -0.00000000000E+00 -0.74505805969E-08  0.93827000000E+00  0.93827000000E+00 0. -1.
     999902    2    1    2    0    0 -0.10734518300E-01  0.52498117105E-02 -0.36962621804E-02  0.10314218922E+01  0.10313460462E+01 0.  0.
     999903    2    3    3    0    0 -0.12414144211E+00  0.54468053043E-01  0.54542510737E-02  0.14273336549E+00  0.44330557387E-01 0.  0.
         14    1    1    2    0    0  0.10734518300E-01 -0.52498117105E-02  0.36962621804E-02  0.12508107780E-01  0.00000000000E+00 0.  1.
     999901    1    3    3    0    0  0.11340692381E+00 -0.49218241333E-01 -0.91505132541E-02  0.88868852673E+00  0.88000000000E+00 0. -1.
        -11    1    4    4    0    0 -0.37723639091E-01 -0.42959669683E-02 -0.14591255316E-02  0.37998926917E-01  0.51100000000E-03 0.  1.
         11    1    4    4    0    0 -0.86417803018E-01  0.58764020012E-01  0.69133766053E-02  0.10473443857E+00  0.51100000000E-03 0. -1.
</event>
<event>
 8    1  0.2257781E+004  0.1043930E+01  0.7957747E-01            NaN
         13   -1    0    0    0    0  0.00000000000E+00  0.00000000000E+00  0.74505805969E-08  0.10566000000E+00  0.10566000000E+00 0. -1.
     999900   -1    0    0    0    0 -0.00000000000E+00 -0.00000000000E+00 -0.74505805969E-08  0.93827000000E+00  0.93827000000E+00 0.  1.
     999902    2    1    2    0    0  0.11358941263E-01 -0.18963573681E-01 -0.66744537333E-02  0.10208390709E+01  0.10205778842E+01 0.  0.
     999903    2    3    3    0    0  0.34441310347E-01  0.19327354351E-01  0.11663277904E+00  0.13111795473E+00  0.45044005395E-01 0.  0.
         14    1    1    2    0    0 -0.11358941263E-01  0.18963573681E-01  0.66744537333E-02  0.23090929085E-01  0.00000000000E+00 0.  1.
     999901    1    3    3    0    0 -0.23082369084E-01 -0.38290928032E-01 -0.12330723277E+00  0.88972111619E+00  0.88000000000E+00 0.  1.
        -11    1    4    4    0    0  0.36508043391E-01  0.48037372320E-02  0.45744816660E-01  0.58726165343E-01  0.51100000000E-03 0.  1.
         11    1    4    4    0    0 -0.20667330440E-02  0.14523617119E-01  0.70887962377E-01  0.72391789387E-01  0.51100000000E-03 0. -1.
</event>
<event>
 8    1  0.2257781E+004  0.1043930E+01  0.7957747E-01            NaN
         13   -1    0    0    0    0  0.00000000000E+00  0.00000000000E+00  0.74505805969E-08  0.10566000000E+00  0.10566000000E+00 0. -1.
     999900   -1    0    0    0    0 -0.00000000000E+00 -0.00000000000E+00 -0.74505805969E-08  0.93827000000E+00  0.93827000000E+00 0. -1.
     999902    2    1    2    0    0 -0.24253148335E-02  0.13975482204E-01  0.21853426624E-02  0.10295782762E+01  0.10294782439E+01 0.  0.
     999903    2    3    3    0    0  0.57147646772E-01 -0.11511191997E+00 -0.24810358843E-01  0.13775920086E+00  0.42958536573E-01 0.  0.
         14    1    1    2    0    0  0.24253148335E-02 -0.13975482204E-01 -0.21853426624E-02  0.14351723849E-01  0.00000000000E+00 0. -1.
     999901    1    3    3    0    0 -0.59572961605E-01  0.12908740218E+00  0.26995701506E-01  0.89181907529E+00  0.88000000000E+00 0. -1.
        -11    1    4    4    0    0  0.29795151211E-01 -0.94130195726E-01 -0.29302389159E-01  0.10299095064E+00  0.51100000000E-03 0. -1.
         11    1    4    4    0    0  0.27352495560E-01 -0.20981724245E-01  0.44920303160E-02  0.34768250216E-01  0.51100000000E-03 0.  1.
</event>
<event>
 8    1  0.2257781E+004  0.1043930E+01  0.7957747E-01            NaN
         13   -1    0    0    0    0  0.00000000000E+00  0.00000000000E+00  0.74505805969E-08  0.10566000000E+00  0.10566000000E+00 0.  1.
     999900   -1    0    0    0    0 -0.00000000000E+00 -0.00000000000E+00 -0.74505805969E-08  0.93827000000E+00  0.93827000000E+00 0. -1.
     999902    2    1    2    0    0  0.90803450435E-02  0.46936974382E-02 -0.85865681193E-02  0.10305803703E+01  0.10304939044E+01 0.  0.
     999903    2    3    3    0    0 -0.22558043135E-01  0.94932198227E-01  0.89744797815E-01  0.13995529082E+00  0.44859415096E-01 0.  0.
         14    1    1    2    0    0 -0.90803450435E-02 -0.46936974382E-02  0.85865681193E-02  0.13349629726E-01  0.00000000000E+00 0. -1.
     999901    1    3    3    0    0  0.31638388178E-01 -0.90238500789E-01 -0.98331365934E-01  0.89062507946E+00  0.88000000000E+00 0. -1.
        -11    1    4    4    0    0 -0.20199313424E-01  0.15040114729E-01  0.10155879271E-01  0.27159166383E-01  0.51100000000E-03 0.  1.
         11    1    4    4    0    0 -0.23587297112E-02  0.79892083498E-01  0.79588918544E-01  0.11279612443E+00  0.51100000000E-03 0. -1.
</event>
<event>
 8    1  0.2257781E+004  0.1043930E+01  0.7957747E-01            NaN
         13   -1    0    0    0    0  0.00000000000E+00  0.00000000000E+00  0.74505805969E-08  0.10566000000E+00  0.10566000000E+00 0. -1.
     999900   -1    0    0    0    0 -0.00000000000E+00 -0.00000000000E+00 -0.74505805969E-08  0.93827000000E+00  0.93827000000E+00 0.  1.
     999902    2    1    2    0    0 -0.12713287016E-01 -0.32187827008E-02 -0.47008225430E-02  0.10299985262E+01  0.10299043053E+01 0.  0.
     999903    2    3    3    0    0  0.46481523812E-01 -0.11616133306E+00  0.42827857587E-01  0.13953852110E+00  0.44528486729E-01 0.  0.
         14    1    1    2    0    0  0.12713287016E-01  0.32187827008E-02  0.47008225430E-02  0.13931473770E-01  0.00000000000E+00 0. -1.
     999901    1    3    3    0    0 -0.59194810828E-01  0.11294255036E+00 -0.47528680130E-01  0.89046000513E+00  0.88000000000E+00 0.  1.
        -11    1    4    4    0    0  0.17864669121E-01 -0.28678250370E-01 -0.75265055182E-02  0.34619327743E-01  0.51100000000E-03 0.  1.
         11    1    4    4    0    0  0.28616854691E-01 -0.87483082688E-01  0.50354363105E-01  0.10491919335E+00  0.51100000000E-03 0. -1.
</event>
<event>
 8    1  0.2257781E+004  0.1043930E+01  0.7957747E-01            NaN
         13   -1    0    0    0    0  0.00000000000E+00  0.00000000000E+00  0.74505805969E-08  0.10566000000E+00  0.10566000000E+00 0.  1.
     999900   -1    0    0    0    0 -0.00000000000E+00 -0.00000000000E+00 -0.74505805969E-08  0.93827000000E+00  0.93827000000E+00 0.  1.
     999902    2    1    2    0    0  0.57800970753E-02  0.95564731496E-03 -0.13550430744E-01  0.10291673120E+01  0.10290614263E+01 0.  0.
     999903    2    3    3    0    0 -0.10224800856E+00  0.49730382997E-01  0.63392652469E-01  0.13789334485E+00  0.45477246171E-01 0.  0.
         14    1    1    2    0    0 -0.57800970753E-02 -0.95564731496E-03  0.13550430744E-01  0.14762688012E-01  0.00000000000E+00 0.  1.
     999901    1    3    3    0    0  0.10802810563E+00 -0.48774735683E-01 -0.76943083212E-01  0.89127396714E+00  0.88000000000E+00 0. -1.
        -11    1    4    4    0    0 -0.72290190739E-01  0.10434725883E-01  0.37493567597E-01  0.82102277152E-01  0.51100000000E-03 0. -1.
         11    1    4    4    0    0 -0.29957817818E-01  0.39295657114E-01  0.25899084872E-01  0.55791067696E-01  0.51100000000E-03 0.  1.
</event>
<event>
 8    1  0.2257781E+004  0.1043930E+01  0.7957747E-01            NaN
         13   -1    0    0    0    0  0.00000000000E+00  0.00000000000E+00  0.74505805969E-08  0.10566000000E+00  0.10566000000E+00 0.  1.
     999900   -1    0    0    0    0 -0.00000000000E+00 -0.00000000000E+00 -0.74505805969E-08  0.93827000000E+00  0.93827000000E+00 0. -1.
     999902    2    1    2    0    0 -0.11201254942E-01 -0.86993841168E-02 -0.33749982091E-02  0.10293513166E+01  0.10292480726E+01 0.  0.
     999903    2    3    3    0    0  0.67982049926E-01  0.90578324102E-01  0.63091499349E-01  0.13775507705E+00  0.46582529476E-01 0.  0.
         14    1    1    2    0    0  0.11201254942E-01  0.86993841168E-02  0.33749982091E-02  0.14578683384E-01  0.00000000000E+00 0. -1.
     999901    1    3    3    0    0 -0.79183304868E-01 -0.99277708219E-01 -0.66466497559E-01  0.89159623957E+00  0.88000000000E+00 0.  1.
        -11    1    4    4    0    0  0.63254197111E-01  0.71461440279E-01  0.31454498420E-01  0.10048620547E+00  0.51100000000E-03 0. -1.
         11    1    4    4    0    0  0.47278528155E-02  0.19116883823E-01  0.31637000929E-01  0.37268871571E-01  0.51100000000E-03 0.  1.
</event>
<event>
 8    1  0.2257781E+004  0.1043930E+01  0.7957747E-01            NaN
         13   -1    0    0    0    0  0.00000000000E+00  0.00000000000E+00  0.74505805969E-08  0.10566000000E+00  0.10566000000E+00 0. -1.
     999900   -1    0    0    0    0 -0.00000000000E+00 -0.00000000000E+00 -0.74505805969E-08  0.93827000000E+00  0.93827000000E+00 0.  1.
     999902    2    1    2    0    0  0.93287401801E-02 -0.89564652876E-03  0.25942172509E-02  0.10342059299E+01  0.10341602139E+01 0.  0.
     999903    2    3    3    0    0  0.32355189918E-01  0.13149416007E+00 -0.19225160976E-01  0.14373787122E+00  0.44197243811E-01 0.  0.
         14    1    1    2    0    0 -0.93287401801E-02  0.89564652876E-03 -0.25942172509E-02  0.97240700942E-02  0.00000000000E+00 0.  1.
     999901    1    3    3    0    0 -0.23026449738E-01 -0.13238980660E+00  0.21819378227E-01  0.89046805869E+00  0.88000000000E+00 0.  1.
        -11    1    4    4    0    0  0.38729029371E-01  0.65309092052E-01 -0.89775430343E-02  0.76459614311E-01  0.51100000000E-03 0.  1.
         11    1    4    4    0    0 -0.63738394529E-02  0.66185068018E-01 -0.10247617942E-01  0.67278256906E-01  0.51100000000E-03 0. -1.
</event>
<event>
 8    1  0.2257781E+004  0.1043930E+01  0.7957747E-01            NaN
         13   -1    0    0    0    0  0.00000000000E+00  0.00000000000E+00  0.74505805969E-08  0.10566000000E+00  0.10566000000E+00 0. -1.
     999900   -1    0    0    0    0 -0.00000000000E+00 -0.00000000000E+00 -0.74505805969E-08  0.93827000000E+00  0.93827000000E+00 0. -1.
     999902    2    1    2    0    0 -0.14013688012E-01 -0.26418871200E-02  0.40886980700E-02  0.10290948906E+01  0.10289879559E+01 0.  0.
     999903    2    3    3    0    0 -0.12632190180E-02  0.27113693661E-01  0.12911106286E+00  0.13966891799E+00  0.45836579211E-01 0.  0.
         14    1    1    2    0    0  0.14013688012E-01  0.26418871200E-02 -0.40886980700E-02  0.14835109409E-01  0.00000000000E+00 0.  1.
     999901    1    3    3    0    0 -0.12750468994E-01 -0.29755580781E-01 -0.12502236479E+00  0.88942597260E+00  0.88000000000E+00 0. -1.
        -11    1    4    4    0    0  0.16000274572E-01  0.10690556706E-02  0.17395348339E-01  0.23664550096E-01  0.51100000000E-03 0. -1.
         11    1    4    4    0    0 -0.17263493590E-01  0.26044637990E-01  0.11171571452E+00  0.11600436789E+00  0.51100000000E-03 0.  1.
</event>
<event>
 8    1  0.2257781E+004  0.1043930E+01  0.7957747E-01            NaN
         13   -1    0    0    0    0  0.00000000000E+00  0.00000000000E+00  0.74505805969E-08  0.10566000000E+00  0.10566000000E+00 0.  1.
     999900   -1    0    0    0    0 -0.00000000000E+00 -0.00000000000E+00 -0.74505805969E-08  0.93827000000E+00  0.93827000000E+00 0. -1.
     999902    2    1    2    0    0 -0.13943673517E-01  0.56682535413E-02  0.42516503832E-02  0.10282892948E+01  0.10281703371E+01 0.  0.
     999903    2    3    3    0    0 -0.17204342104E-01 -0.51056172800E-01  0.11982397172E+00  0.13891577708E+00  0.45134097470E-01 0.  0.
         14    1    1    2    0    0  0.13943673517E-01 -0.56682535413E-02 -0.42516503832E-02  0.15640705237E-01  0.00000000000E+00 0.  1.
     999901    1    3    3    0    0  0.32606685875E-02  0.56724426341E-01 -0.11557232133E+00  0.88937351769E+00  0.88000000000E+00 0. -1.
        -11    1    4    4    0    0 -0.23709306561E-01 -0.45297405467E-01  0.61645757341E-01  0.80090240846E-01  0.51100000000E-03 0. -1.
         11    1    4    4    0    0  0.65049644571E-02 -0.57587673334E-02  0.58178214376E-01  0.58825536230E-01  0.51100000000E-03 0.  1.
</event>
<event>
 8    1  0.2257781E+004  0.1043930E+01  0.7957747E-01            NaN
         13   -1    0    0    0    0  0.00000000000E+00  0.00000000000E+00  0.74505805969E-08  0.10566000000E+00  0.10566000000E+00 0.  1.
     999900   -1    0    0    0    0 -0.00000000000E+00 -0.00000000000E+00 -0.74505805969E-08  0.93827000000E+00  0.93827000000E+00 0.  1.
     999902    2    1    2    0    0  0.73842855799E-02 -0.10208286793E-01 -0.35961866917E-02  0.10308277349E+01  0.10307444638E+01 0.  0.
     999903    2    3    3    0    0  0.56413963697E-01  0.11693259082E+00 -0.26805086592E-01  0.14003743119E+00  0.45124310193E-01 0.  0.
         14    1    1    2    0    0 -0.73842855799E-02  0.10208286793E-01  0.35961866917E-02  0.13102265129E-01  0.00000000000E+00 0.  1.
     999901    1    3    3    0    0 -0.49029678117E-01 -0.12714087762E+00  0.23208899901E-01  0.89079030368E+00  0.88000000000E+00 0.  1.
        -11    1    4    4    0    0  0.37147047726E-01  0.10182885964E+00 -0.35489934769E-01  0.11405619843E+00  0.51100000000E-03 0.  1.
         11    1    4    4    0    0  0.19266915971E-01  0.15103731186E-01  0.86848481770E-02  0.25981232758E-01  0.51100000000E-03 0. -1.
</event>
<event>
 8    1  0.2257781E+004  0.1043930E+01  0.7957747E-01            NaN
         13   -1    0    0    0    0  0.00000000000E+00  0.00000000000E+00  0.74505805969E-08  0.10566000000E+00  0.10566000000E+00 0.  1.
     999900   -1    0    0    0    0 -0.00000000000E+00 -0.00000000000E+00 -0.74505805969E-08  0.93827000000E+00  0.93827000000E+00 0.  1.
     999902    2    1    2    0    0 -0.14423482830E-02 -0.12887407978E-01 -0.61001352938E-02  0.10295990090E+01  0.10294992676E+01 0.  0.
     999903    2    3    3    0    0 -0.32362040106E-01  0.30243355230E-01  0.12306285908E+00  0.13858870085E+00  0.45830105217E-01 0.  0.
         14    1    1    2    0    0  0.14423482830E-02  0.12887407978E-01  0.61001352938E-02  0.14330991018E-01  0.00000000000E+00 0.  1.
     999901    1    3    3    0    0  0.30919691823E-01 -0.43130763208E-01 -0.12916299437E+00  0.89101030813E+00  0.88000000000E+00 0.  1.
        -11    1    4    4    0    0 -0.21884406238E-01  0.29142838847E-01  0.37198752995E-01  0.52079176624E-01  0.51100000000E-03 0.  1.
         11    1    4    4    0    0 -0.10477633868E-01  0.11005163828E-02  0.85864106083E-01  0.86509524228E-01  0.51100000000E-03 0. -1.
</event>
<event>
 8    1  0.2257781E+004  0.1043930E+01  0.7957747E-01            NaN
         13   -1    0    0    0    0  0.00000000000E+00  0.00000000000E+00  0.74505805969E-08  0.10566000000E+00  0.10566000000E+00 0.  1.
     999900   -1    0    0    0    0 -0.00000000000E+00 -0.00000000000E+00 -0.74505805969E-08  0.93827000000E+00  0.93827000000E+00 0. -1.
     999902    2    1    2    0    0 -0.12206935570E-01  0.50912947978E-02 -0.22550034829E-02  0.10305130108E+01  0.10304256644E+01 0.  0.
     999903    2    3    3    0    0  0.21852329426E-01  0.75130631654E-01 -0.10844199077E+00  0.14071459626E+00  0.43804065156E-01 0.  0.
         14    1    1    2    0    0  0.12206935570E-01 -0.50912947978E-02  0.22550034829E-02  0.13416989209E-01  0.00000000000E+00 0. -1.
     999901    1    3    3    0    0 -0.34059264996E-01 -0.70039336857E-01  0.10618698728E+00  0.88979841453E+00  0.88000000000E+00 0.  1.
        -11    1    4    4    0    0 -0.43634192624E-02  0.51919145406E-01 -0.80606601592E-01  0.95980844071E-01  0.51100000000E-03 0.  1.
         11    1    4    4    0    0  0.26215748688E-01  0.23211486249E-01 -0.27835389174E-01  0.44733752186E-01  0.51100000000E-03 0. -1.
</event>
<event>
 8    1  0.2257781E+004  0.1043930E+01  0.7957747E-01            NaN
         13   -1    0    0    0    0  0.00000000000E+00  0.00000000000E+00  0.74505805969E-08  0.10566000000E+00  0.10566000000E+00 0. -1.
     999900   -1    0    0    0    0 -0.00000000000E+00 -0.00000000000E+00 -0.74505805969E-08  0.93827000000E+00  0.93827000000E+00 0. -1.
     999902    2    1    2    0    0 -0.32914313633E-02 -0.28502641577E-02 -0.10589342918E-01  0.10324804712E+01  0.10324169854E+01 0.  0.
     999903    2    3    3    0    0 -0.66027035138E-01 -0.10833701085E+00 -0.48293421238E-01  0.14316342581E+00  0.45464652923E-01 0.  0.
         14    1    1    2    0    0  0.32914313633E-02  0.28502641577E-02  0.10589342918E-01  0.11449528795E-01  0.00000000000E+00 0. -1.
     999901    1    3    3    0    0  0.62735603775E-01  0.10548674669E+00  0.37704078320E-01  0.88931704540E+00  0.88000000000E+00 0.  1.
        -11    1    4    4    0    0 -0.10206315713E-01  0.13981396673E-02 -0.96465693798E-02  0.14122361586E-01  0.51100000000E-03 0. -1.
         11    1    4    4    0    0 -0.55820719425E-01 -0.10973515052E+00 -0.38646851858E-01  0.12904106422E+00  0.51100000000E-03 0.  1.
</event>
<event>
 8    1  0.2257781E+004  0.1043930E+01  0.7957747E-01            NaN
         13   -1    0    0    0    0  0.00000000000E+00  0.00000000000E+00  0.74505805969E-08  0.10566000000E+00  0.10566000000E+00 0.  1.
     999900   -1    0    0    0    0 -0.00000000000E+00 -0.00000000000E+00 -0.74505805969E-08  0.93827000000E+00  0.93827000000E+00 0. -1.
     999902    2    1    2    0    0  0.16754789891E-01  0.10338296220E-01 -0.67200911338E-03  0.10242308896E+01  0.10240414349E+01 0.  0.
     999903    2    3    3    0    0  0.95998815106E-01  0.89217058089E-01 -0.98859156501E-02  0.13710836671E+00  0.39057866522E-01 0.  0.
         14    1    1    2    0    0 -0.16754789891E-01 -0.10338296220E-01  0.67200911338E-03  0.19699110367E-01  0.00000000000E+00 0. -1.
     999901    1    3    3    0    0 -0.79244025215E-01 -0.78878761869E-01  0.92139065367E-02  0.88712252292E+00  0.88000000000E+00 0.  1.
        -11    1    4    4    0    0  0.33807386694E-01  0.87354999332E-02 -0.50164743968E-02  0.35279944594E-01  0.51100000000E-03 0.  1.
         11    1    4    4    0    0  0.62191428412E-01  0.80481558156E-01 -0.48694412532E-02  0.10182842211E+00  0.51100000000E-03 0. -1.
</event>
<event>
 8    1  0.2257781E+004  0.1043930E+01  0.7957747E-01            NaN
         13   -1    0    0    0    0  0.00000000000E+00  0.00000000000E+00  0.74505805969E-08  0.10566000000E+00  0.10566000000E+00 0.  1.
     999900   -1    0    0    0    0 -0.00000000000E+00 -0.00000000000E+00 -0.74505805969E-08  0.93827000000E+00  0.93827000000E+00 0. -1.
     999902    2    1    2    0    0  0.12246120590E-01  0.18574591100E-03 -0.65677747930E-02  0.10300326032E+01  0.10299388458E+01 0.  0.
     999903    2    3    3    0    0 -0.75968223580E-01  0.10504238146E+00 -0.22790280335E-01  0.13928019419E+00  0.45546709217E-01 0.  0.
         14    1    1    2    0    0 -0.12246120590E-01 -0.18574591100E-03  0.65677747930E-02  0.13897396763E-01  0.00000000000E+00 0.  1.
     999901    1    3    3    0    0  0.88214344170E-01 -0.10485663554E+00  0.16222505542E-01  0.89075240905E+00  0.88000000000E+00 0. -1.
        -11    1    4    4    0    0 -0.60225924804E-01  0.99117583964E-01 -0.31704582832E-01  0.12023684611E+00  0.51100000000E-03 0. -1.
         11    1    4    4    0    0 -0.15742298777E-01  0.59247974920E-02  0.89143024970E-02  0.19043348080E-01  0.51100000000E-03 0.  1.
</event>
<event>
 8    1  0.2257781E+004  0.1043930E+01  0.7957747E-01            NaN
         13   -1    0    0    0    0  0.00000000000E+00  0.00000000000E+00  0.74505805969E-08  0.10566000000E+00  0.10566000000E+00 0. -1.
     999900   -1    0    0    0    0 -0.00000000000E+00 -0.00000000000E+00 -0.74505805969E-08  0.93827000000E+00  0.93827000000E+00 0.  1.
     999902    2    1    2    0    0 -0.32677639157E-02 -0.13464975038E-01  0.21986811844E-02  0.10299008150E+01  0.10298052586E+01 0.  0.
     999903    2    3    3    0    0  0.41382019719E-02  0.37637567379E-01  0.12654640151E+00  0.13966001961E+00  0.45356566747E-01 0.  0.
         14    1    1    2    0    0  0.32677639157E-02  0.13464975038E-01 -0.21986811844E-02  0.14029185035E-01  0.00000000000E+00 0.  1.
     999901    1    3    3    0    0 -0.74059658875E-02 -0.51102542417E-01 -0.12434772033E+00  0.89024079536E+00  0.88000000000E+00 0. -1.
        -11    1    4    4    0    0  0.21583656818E-01  0.15394605786E-01  0.87654761064E-01  0.91577652226E-01  0.51100000000E-03 0.  1.
         11    1    4    4    0    0 -0.17445454846E-01  0.22242961594E-01  0.38891640447E-01  0.48082367380E-01  0.51100000000E-03 0. -1.
</event>
<event>
 8    1  0.2257781E+004  0.1043930E+01  0.7957747E-01            NaN
         13   -1    0    0    0    0  0.00000000000E+00  0.00000000000E+00  0.74505805969E-08  0.10566000000E+00  0.10566000000E+00 0.  1.
     999900   -1    0    0    0    0 -0.00000000000E+00 -0.00000000000E+00 -0.74505805969E-08  0.93827000000E+00  0.93827000000E+00 0. -1.
     999902    2    1    2    0    0  0.10611483130E-01 -0.48976102765E-03  0.91713706119E-02  0.10298958460E+01  0.10298002214E+01 0.  0.
     999903    2    3    3    0    0 -0.61539103881E-01  0.86195821073E-01 -0.77047360843E-01  0.13851839114E+00  0.45102860154E-01 0.  0.
         14    1    1    2    0    0 -0.10611483130E-01  0.48976102765E-03 -0.91713706119E-02  0.14034154017E-01  0.00000000000E+00 0.  1.
     999901    1    3    3    0    0  0.72150587010E-01 -0.86685582101E-01  0.86218731455E-01  0.89137745484E+00  0.88000000000E+00 0.  1.
        -11    1    4    4    0    0 -0.18564537010E-02  0.95330982231E-02 -0.28085415955E-01  0.29721677148E-01  0.51100000000E-03 0.  1.
         11    1    4    4    0    0 -0.59682650180E-01  0.76662722850E-01 -0.48961944887E-01  0.10879671399E+00  0.51100000000E-03 0. -1.
</event>
<event>
 8    1  0.2257781E+004  0.1043930E+01  0.7957747E-01            NaN
         13   -1    0    0    0    0  0.00000000000E+00  0.00000000000E+00  0.74505805969E-08  0.10566000000E+00  0.10566000000E+00 0. -1.
     999900   -1    0    0    0    0 -0.00000000000E+00 -0.00000000000E+00 -0.74505805969E-08  0.93827000000E+00  0.93827000000E+00 0. -1.
     999902    2    1    2    0    0 -0.60145579796E-02  0.11720053819E-01 -0.33634254966E-02  0.10303341477E+01  0.10302444412E+01 0.  0.
     999903    2    3    3    0    0  0.10366296881E+00 -0.79023588504E-01  0.15550066405E-01  0.13869448466E+00  0.44761779080E-01 0.  0.
         14    1    1    2    0    0  0.60145579796E-02 -0.11720053819E-01  0.33634254966E-02  0.13595852319E-01  0.00000000000E+00 0.  1.
     999901    1    3    3    0    0 -0.10967752679E+00  0.90743642323E-01 -0.18913491902E-01  0.89163966303E+00  0.88000000000E+00 0. -1.
        -11    1    4    4    0    0  0.76595579764E-01 -0.35919937821E-01  0.21926230331E-01  0.87396484312E-01  0.51100000000E-03 0.  1.
         11    1    4    4    0    0  0.27067389044E-01 -0.43103650683E-01 -0.63761639261E-02  0.51298000343E-01  0.51100000000E-03 0. -1.
</event>
<event>
 8    1  0.2257781E+004  0.1043930E+01  0.7957747E-01            NaN
         13   -1    0    0    0    0  0.00000000000E+00  0.00000000000E+00  0.74505805969E-08  0.10566000000E+00  0.10566000000E+00 0. -1.
     999900   -1    0    0    0    0 -0.00000000000E+00 -0.00000000000E+00 -0.74505805969E-08  0.93827000000E+00  0.93827000000E+00 0.  1.
     999902    2    1    2    0    0  0.97595420598E-02 -0.16669867533E-03 -0.11567540536E-01  0.10287944642E+01  0.10286831218E+01 0.  0.
     999903    2    3    3    0    0  0.52847973416E-01  0.55843305779E-01  0.10553312254E+00  0.13822930724E+00  0.45373101407E-01 0.  0.
         14    1    1    2    0    0 -0.97595420598E-02  0.16669867533E-03  0.11567540536E-01  0.15135535792E-01  0.00000000000E+00 0. -1.
     999901    1    3    3    0    0 -0.43088431357E-01 -0.56010004455E-01 -0.11710066308E+00  0.89056515697E+00  0.88000000000E+00 0.  1.
        -11    1    4    4    0    0  0.47793552275E-01  0.26285000517E-01  0.45153440725E-01  0.70811151816E-01  0.51100000000E-03 0. -1.
         11    1    4    4    0    0  0.50544211413E-02  0.29558305263E-01  0.60379681817E-01  0.67418155421E-01  0.51100000000E-03 0.  1.
</event>
<event>
 8    1  0.2257781E+004  0.1043930E+01  0.7957747E-01            NaN
         13   -1    0    0    0    0  0.00000000000E+00  0.00000000000E+00  0.74505805969E-08  0.10566000000E+00  0.10566000000E+00 0. -1.
     999900   -1    0    0    0    0 -0.00000000000E+00 -0.00000000000E+00 -0.74505805969E-08  0.93827000000E+00  0.93827000000E+00 0.  1.
     999902    2    1    2    0    0  0.85343843007E-02  0.74815743161E-02 -0.76433417129E-02  0.10302467861E+01  0.10301559154E+01 0.  0.
     999903    2    3    3    0    0  0.58877072150E-01 -0.63261203091E-01 -0.10184456919E+00  0.14097022731E+00  0.45075484173E-01 0.  0.
         14    1    1    2    0    0 -0.85343843007E-02 -0.74815743161E-02  0.76433417129E-02  0.13683213883E-01  0.00000000000E+00 0.  1.
     999901    1    3    3    0    0 -0.50342687849E-01  0.70742777407E-01  0.94201227481E-01  0.88927655880E+00  0.88000000000E+00 0. -1.
        -11    1    4    4    0    0 -0.39364390870E-02 -0.20656812243E-01 -0.28503990443E-01  0.35425104614E-01  0.51100000000E-03 0. -1.
         11    1    4    4    0    0  0.62813511237E-01 -0.42604390848E-01 -0.73340578751E-01  0.10554512270E+00  0.51100000000E-03 0.  1.
</event>
<event>
 8    1  0.2257781E+004  0.1043930E+01  0.7957747E-01            NaN
         13   -1    0    0    0    0  0.00000000000E+00  0.00000000000E+00  0.74505805969E-08  0.10566000000E+00  0.10566000000E+00 0. -1.
     999900   -1    0    0    0    0 -0.00000000000E+00 -0.00000000000E+00 -0.74505805969E-08  0.93827000000E+00  0.93827000000E+00 0. -1.
     999902    2    1    2    0    0 -0.34495395427E-02  0.12003546779E-01 -0.49854135568E-02  0.10304823680E+01  0.10303946195E+01 0.  0.
     999903    2    3    3    0    0  0.11495643052E+00  0.13143954151E-01 -0.65713118264E-01  0.14047723969E+00  0.45032171954E-01 0.  0.
         14    1    1    2    0    0  0.34495395427E-02 -0.12003546779E-01  0.49854135568E-02  0.13447632010E-01  0.00000000000E+00 0. -1.
     999901    1    3    3    0    0 -0.11840597006E+00 -0.11404073723E-02  0.60727704708E-01  0.89000512830E+00  0.88000000000E+00 0.  1.
        -11    1    4    4    0    0  0.35362271189E-01  0.15039143228E-01 -0.43024704882E-01  0.57689274600E-01  0.51100000000E-03 0.  1.
         11    1    4    4    0    0  0.79594159333E-01 -0.18951890764E-02 -0.22688413382E-01  0.82787965093E-01  0.51100000000E-03 0. -1.
</event>
<event>
 8    1  0.2257781E+004  0.1043930E+01  0.7957747E-01            NaN
         13   -1    0    0    0    0  0.00000000000E+00  0.00000000000E+00  0.74505805969E-08  0.10566000000E+00  0.10566000000E+00 0.  1.
     999900   -1    0    0    0    0 -0.00000000000E+00 -0.00000000000E+00 -0.74505805969E-08  0.93827000000E+00  0.93827000000E+00 0. -1.
     999902    2    1    2    0    0 -0.83471482989E-02 -0.12254477361E-01  0.24483826848E-02  0.10289019703E+01  0.10287922155E+01 0.  0.
     999903    2    3    3    0    0 -0.19386985465E-01 -0.13104652505E+00 -0.44370934878E-02  0.14082492496E+00  0.47570208727E-01 0.  0.
         14    1    1    2    0    0  0.83471482989E-02  0.12254477361E-01 -0.24483826848E-02  0.15028029740E-01  0.00000000000E+00 0. -1.
     999901    1    3    3    0    0  0.11039837166E-01  0.11879204769E+00  0.68854761726E-02  0.88807704530E+00  0.88000000000E+00 0. -1.
        -11    1    4    4    0    0 -0.24136467119E-01 -0.30800128981E-01 -0.97291253239E-02  0.40325351713E-01  0.51100000000E-03 0. -1.
         11    1    4    4    0    0  0.47494816542E-02 -0.10024639607E+00  0.52920318362E-02  0.10049957325E+00  0.51100000000E-03 0.  1.
</event>
<event>
 8    1  0.2257781E+004  0.1043930E+01  0.7957747E-01            NaN
         13   -1    0    0    0    0  0.00000000000E+00  0.00000000000E+00  0.74505805969E-08  0.10566000000E+00  0.10566000000E+00 0.  1.
     999900   -1    0    0    0    0 -0.00000000000E+00 -0.00000000000E+00 -0.74505805969E-08  0.93827000000E+00  0.93827000000E+00 0. -1.
     999902    2    1    2    0    0  0.12222203748E-01  0.19808839180E-02 -0.62229200728E-02  0.10300724786E+01  0.10299792620E+01 0.  0.
     999903    2    3    3    0    0 -0.25538454326E-01  0.51440438465E-01 -0.12001416770E+00  0.14056668160E+00  0.45357029970E-01 0.  0.
         14    1    1    2    0    0 -0.12222203748E-01 -0.19808839180E-02  0.62229200728E-02  0.13857521416E-01  0.00000000000E+00 0.  1.
     999901    1    3    3    0    0  0.37760658074E-01 -0.49459554547E-01  0.11379124763E+00  0.88950579699E+00  0.88000000000E+00 0.  1.
        -11    1    4    4    0    0 -0.22495104814E-01  0.95144165446E-03 -0.34031410749E-01  0.40808492013E-01  0.51100000000E-03 0.  1.
         11    1    4    4    0    0 -0.30433495119E-02  0.50488996810E-01 -0.85982756953E-01  0.99758189585E-01  0.51100000000E-03 0. -1.
</event>
<event>
 8    1  0.2257781E+004  0.1043930E+01  0.7957747E-01            NaN
         13   -1    0    0    0    0  0.00000000000E+00  0.00000000000E+00  0.74505805969E-08  0.10566000000E+00  0.10566000000E+00 0. -1.
     999900   -1    0    0    0    0 -0.00000000000E+00 -0.00000000000E+00 -0.74505805969E-08  0.93827000000E+00  0.93827000000E+00 0. -1.
     999902    2    1    2    0    0  0.13113944042E-01  0.20491900170E-02  0.21816256059E-02  0.10304788217E+01  0.10303910266E+01 0.  0.
     999903    2    3    3    0    0  0.10950963612E+00 -0.62802865192E-01 -0.45348723091E-01  0.14157103536E+00  0.45269096405E-01 0.  0.
         14    1    1    2    0    0 -0.13113944042E-01 -0.20491900170E-02 -0.21816256059E-02  0.13451178325E-01  0.00000000000E+00 0. -1.
     999901    1    3    3    0    0 -0.96395692076E-01  0.64852055209E-01  0.47530348697E-01  0.88890778631E+00  0.88000000000E+00 0. -1.
        -11    1    4    4    0    0  0.21555194718E-01 -0.13570298924E-01 -0.30412444539E-01  0.39673131160E-01  0.51100000000E-03 0.  1.
         11    1    4    4    0    0  0.87954441400E-01 -0.49232566268E-01 -0.14936278552E-01  0.10189790420E+00  0.51100000000E-03 0. -1.
</event>
<event>
 8    1  0.2257781E+004  0.1043930E+01  0.7957747E-01            NaN
         13   -1    0    0    0    0  0.00000000000E+00  0.00000000000E+00  0.74505805969E-08  0.10566000000E+00  0.10566000000E+00 0. -1.
     999900   -1    0    0    0    0 -0.00000000000E+00 -0.00000000000E+00 -0.74505805969E-08  0.93827000000E+00  0.93827000000E+00 0.  1.
     999902    2    1    2    0    0 -0.59086861502E-02 -0.10318207765E-01  0.79719690150E-02  0.10296146141E+01  0.10295150913E+01 0.  0.
     999903    2    3    3    0    0 -0.13133587383E+00  0.44146058122E-02  0.20156757341E-01  0.14051534840E+00  0.45493601421E-01 0.  0.
         14    1    1    2    0    0  0.59086861502E-02  0.10318207765E-01 -0.79719690150E-02  0.14315385901E-01  0.00000000000E+00 0.  1.
     999901    1    3    3    0    0  0.12542718768E+00 -0.14732813577E-01 -0.12184788326E-01  0.88909926570E+00  0.88000000000E+00 0.  1.
        -11    1    4    4    0    0 -0.10188036442E+00  0.18798376229E-01  0.26918672048E-01  0.10704141081E+00  0.51100000000E-03 0. -1.
         11    1    4    4    0    0 -0.29455509410E-01 -0.14383770417E-01 -0.67619147070E-02  0.33473937586E-01  0.51100000000E-03 0.  1.
</event>
<event>
 8    1  0.2257781E+004  0.1043930E+01  0.7957747E-01            NaN
         13   -1    0    0    0    0  0.00000000000E+00  0.00000000000E+00  0.74505805969E-08  0.10566000000E+00  0.10566000000E+00 0. -1.
     999900   -1    0    0    0    0 -0.00000000000E+00 -0.00000000000E+00 -0.74505805969E-08  0.93827000000E+00  0.93827000000E+00 0. -1.
     999902    2    1    2    0    0 -0.21281907773E-02  0.24927773748E-02  0.14474590781E-01  0.10290889450E+01  0.10289819240E+01 0.  0.
     999903    2    3    3    0    0 -0.67409538266E-01  0.11167655717E+00 -0.17875295374E-01  0.13935344092E+00  0.45652557878E-01 0.  0.
         14    1    1    2    0    0  0.21281907773E-02 -0.24927773748E-02 -0.14474590781E-01  0.14841054993E-01  0.00000000000E+00 0.  1.
     999901    1    3    3    0    0  0.65281347489E-01 -0.10918377979E+00  0.32349886155E-01  0.88973550409E+00  0.88000000000E+00 0. -1.
        -11    1    4    4    0    0 -0.72147828191E-01  0.94754968107E-01 -0.84251754076E-02  0.11939454676E+00  0.51100000000E-03 0.  1.
         11    1    4    4    0    0  0.47382899246E-02  0.16921589063E-01 -0.94501199664E-02  0.19958894163E-01  0.51100000000E-03 0. -1.
</event>
<event>
 8    1  0.2257781E+004  0.1043930E+01  0.7957747E-01            NaN
         13   -1    0    0    0    0  0.00000000000E+00  0.00000000000E+00  0.74505805969E-08  0.10566000000E+00  0.10566000000E+00 0.  1.
     999900   -1    0    0    0    0 -0.00000000000E+00 -0.00000000000E+00 -0.74505805969E-08  0.93827000000E+00  0.93827000000E+00 0.  1.
     999902    2    1    2    0    0 -0.11179189777E-02  0.93063567852E-02  0.10638197413E-01  0.10297515211E+01  0.10296539059E+01 0.  0.
     999903    2    3    3    0    0  0.49464389072E-01 -0.96509092712E-01  0.75525992266E-01  0.13960214872E+00  0.44987261063E-01 0.  0.
         14    1    1    2    0    0  0.11179189777E-02 -0.93063567852E-02 -0.10638197413E-01  0.14178478890E-01  0.00000000000E+00 0.  1.
     999901    1    3    3    0    0 -0.50582308049E-01  0.10581544950E+00 -0.64887794854E-01  0.89014937239E+00  0.88000000000E+00 0. -1.
        -11    1    4    4    0    0  0.55322513038E-01 -0.74525570222E-01  0.50081153677E-01  0.10546574866E+00  0.51100000000E-03 0.  1.
         11    1    4    4    0    0 -0.58581239657E-02 -0.21983522490E-01  0.25444838589E-01  0.34136400063E-01  0.51100000000E-03 0. -1.
</event>
<event>
 8    1  0.2257781E+004  0.1043930E+01  0.7957747E-01            NaN
         13   -1    0    0    0    0  0.00000000000E+00  0.00000000000E+00  0.74505805969E-08  0.10566000000E+00  0.10566000000E+00 0.  1.
     999900   -1    0    0    0    0 -0.00000000000E+00 -0.00000000000E+00 -0.74505805969E-08  0.93827000000E+00  0.93827000000E+00 0.  1.
     999902    2    1    2    0    0  0.10604513120E-01 -0.61240467197E-02  0.57667650568E-02  0.10303942981E+01  0.10303053889E+01 0.  0.
     999903    2    3    3    0    0  0.82097338729E-02 -0.30141061601E-01 -0.12862426725E+00  0.13986439880E+00  0.45188102443E-01 0.  0.
         14    1    1    2    0    0 -0.10604513120E-01  0.61240467197E-02 -0.57667650568E-02  0.13535701901E-01  0.00000000000E+00 0. -1.
     999901    1    3    3    0    0  0.23947792472E-02  0.24017014881E-01  0.13439103231E+00  0.89052989929E+00  0.88000000000E+00 0. -1.
        -11    1    4    4    0    0 -0.15329941179E-01 -0.23643864674E-02 -0.62276900122E-01  0.64181545866E-01  0.51100000000E-03 0. -1.
         11    1    4    4    0    0  0.23539675052E-01 -0.27776675134E-01 -0.66347367129E-01  0.75682852939E-01  0.51100000000E-03 0.  1.
</event>
<event>
 8    1  0.2257781E+004  0.1043930E+01  0.7957747E-01            NaN
         13   -1    0    0    0    0  0.00000000000E+00  0.00000000000E+00  0.74505805969E-08  0.10566000000E+00  0.10566000000E+00 0. -1.
     999900   -1    0    0    0    0 -0.00000000000E+00 -0.00000000000E+00 -0.74505805969E-08  0.93827000000E+00  0.93827000000E+00 0.  1.
     999902    2    1    2    0    0  0.32851605495E-02 -0.42452663274E-02  0.13921039581E-01  0.10290098824E+01  0.10289017097E+01 0.  0.
     999903    2    3    3    0    0 -0.65214797721E-01 -0.95548985452E-01  0.70329272733E-01  0.13984707269E+00  0.35048804185E-01 0.  0.
         14    1    1    2    0    0 -0.32851605495E-02  0.42452663274E-02 -0.13921039581E-01  0.14920117595E-01  0.00000000000E+00 0.  1.
     999901    1    3    3    0    0  0.68499958271E-01  0.91303719124E-01 -0.56408233152E-01  0.88916280971E+00  0.88000000000E+00 0.  1.
        -11    1    4    4    0    0 -0.14445654892E-01 -0.43017404713E-01  0.40876999337E-01  0.61076707911E-01  0.51100000000E-03 0. -1.
         11    1    4    4    0    0 -0.50769142830E-01 -0.52531580739E-01  0.29452273396E-01  0.78770364781E-01  0.51100000000E-03 0.  1.
</event>
<event>
 8    1  0.2257781E+004  0.1043930E+01  0.7957747E-01            NaN
         13   -1    0    0    0    0  0.00000000000E+00  0.00000000000E+00  0.74505805969E-08  0.10566000000E+00  0.10566000000E+00 0.  1.
     999900   -1    0    0    0    0 -0.00000000000E+00 -0.00000000000E+00 -0.74505805969E-08  0.93827000000E+00  0.93827000000E+00 0.  1.
     999902    2    1    2    0    0 -0.10905905086E-01  0.66092676151E-02 -0.38880655631E-02  0.10305981495E+01  0.10305119153E+01 0.  0.
     999903    2    3    3    0    0 -0.95746592191E-01  0.16007880170E-01  0.91946280869E-01  0.14128914916E+00  0.45660080621E-01 0.  0.
         14    1    1    2    0    0  0.10905905086E-01 -0.66092676151E-02  0.38880655631E-02  0.13331850508E-01  0.00000000000E+00 0.  1.
     999901    1    3    3    0    0  0.84840687106E-01 -0.93986125547E-02 -0.95834346432E-01  0.88930900033E+00  0.88000000000E+00 0.  1.
        -11    1    4    4    0    0 -0.95448093852E-02  0.11813398970E-01  0.34263455265E-01  0.37482065967E-01  0.51100000000E-03 0. -1.
         11    1    4    4    0    0 -0.86201782806E-01  0.41944812003E-02  0.57682825604E-01  0.10380708320E+00  0.51100000000E-03 0.  1.
</event>
<event>
 8    1  0.2257781E+004  0.1043930E+01  0.7957747E-01            NaN
         13   -1    0    0    0    0  0.00000000000E+00  0.00000000000E+00  0.74505805969E-08  0.10566000000E+00  0.10566000000E+00 0.  1.
     999900   -1    0    0    0    0 -0.00000000000E+00 -0.00000000000E+00 -0.74505805969E-08  0.93827000000E+00  0.93827000000E+00 0.  1.
     999902    2    1    2    0    0  0.27294104057E-02 -0.12989455779E-01  0.32613332604E-02  0.10302620837E+01  0.10301714173E+01 0.  0.
     999903    2    3    3    0    0  0.79404164928E-01 -0.93179532048E-01 -0.50398369277E-01  0.14167397323E+00  0.50438799194E-01 0.  0.
         14    1    1    2    0    0 -0.27294104057E-02  0.12989455779E-01 -0.32613332604E-02  0.13667916346E-01  0.00000000000E+00 0. -1.
     999901    1    3    3    0    0 -0.76674754522E-01  0.80190076269E-01  0.53659702537E-01  0.88858811043E+00  0.88000000000E+00 0.  1.
        -11    1    4    4    0    0  0.25557020675E-01 -0.92555146965E-03 -0.10333014334E-01  0.27587139350E-01  0.51100000000E-03 0. -1.
         11    1    4    4    0    0  0.53847144253E-01 -0.92253980579E-01 -0.40065354943E-01  0.11408683388E+00  0.51100000000E-03 0.  1.
</event>
<event>
 8    1  0.2257781E+004  0.1043930E+01  0.7957747E-01            NaN
         13   -1    0    0    0    0  0.00000000000E+00  0.00000000000E+00  0.74505805969E-08  0.10566000000E+00  0.10566000000E+00 0. -1.
     999900   -1    0    0    0    0 -0.00000000000E+00 -0.00000000000E+00 -0.74505805969E-08  0.93827000000E+00  0.93827000000E+00 0. -1.
     999902    2    1    2    0    0  0.51980513975E-02  0.12453568788E-01 -0.39366921351E-02  0.10298726653E+01  0.10297767224E+01 0.  0.
     999903    2    3    3    0    0  0.90318099949E-01  0.98221668500E-01 -0.59904755672E-02  0.14161267655E+00  0.47046881088E-01 0.  0.
         14    1    1    2    0    0 -0.51980513975E-02 -0.12453568788E-01  0.39366921351E-02  0.14057334700E-01  0.00000000000E+00 0. -1.
     999901    1    3    3    0    0 -0.85120048551E-01 -0.85768099712E-01  0.20537834321E-02  0.88825998875E+00  0.88000000000E+00 0. -1.
        -11    1    4    4    0    0  0.45748593508E-01  0.34050097939E-01  0.18126228050E-01  0.59842829495E-01  0.51100000000E-03 0. -1.
         11    1    4    4    0    0  0.44569506440E-01  0.64171570561E-01 -0.24116703617E-01  0.81769847052E-01  0.51100000000E-03 0.  1.
</event>
<event>
 8    1  0.2257781E+004  0.1043930E+01  0.7957747E-01            NaN
         13   -1    0    0    0    0  0.00000000000E+00  0.00000000000E+00  0.74505805969E-08  0.10566000000E+00  0.10566000000E+00 0. -1.
     999900   -1    0    0    0    0 -0.00000000000E+00 -0.00000000000E+00 -0.74505805969E-08  0.93827000000E+00  0.93827000000E+00 0. -1.
     999902    2    1    2    0    0  0.64938229341E-02  0.11862502523E-01 -0.59752330617E-03  0.10303931711E+01  0.10303042470E+01 0.  0.
     999903    2    3    3    0    0  0.13011868684E+00  0.15607573361E-01 -0.28019883115E-01  0.14132111646E+00  0.44856160073E-01 0.  0.
         14    1    1    2    0    0 -0.64938229341E-02 -0.11862502523E-01  0.59752330617E-03  0.13536828894E-01  0.00000000000E+00 0. -1.
     999901    1    3    3    0    0 -0.12362486391E+00 -0.37450708375E-02  0.27422359809E-01  0.88907205464E+00  0.88000000000E+00 0. -1.
        -11    1    4    4    0    0  0.15358320009E-01  0.43179767781E-02 -0.20193632628E-01  0.25740373670E-01  0.51100000000E-03 0. -1.
         11    1    4    4    0    0  0.11476036683E+00  0.11289596582E-01 -0.78262504873E-02  0.11558074279E+00  0.51100000000E-03 0.  1.
</event>
<event>
 8    1  0.2257781E+004  0.1043930E+01  0.7957747E-01            NaN
         13   -1    0    0    0    0  0.00000000000E+00  0.00000000000E+00  0.74505805969E-08  0.10566000000E+00  0.10566000000E+00 0.  1.
     999900   -1    0    0    0    0 -0.00000000000E+00 -0.00000000000E+00 -0.74505805969E-08  0.93827000000E+00  0.93827000000E+00 0.  1.
     999902    2    1    2    0    0  0.15168858133E-01  0.87565653459E-02 -0.99874144319E-03  0.10263866486E+01  0.10262367092E+01 0.  0.
     999903    2    3    3    0    0  0.42461843958E-01 -0.13245777508E-01 -0.12272599994E+00  0.13731604644E+00  0.42609467665E-01 0.  0.
         14    1    1    2    0    0 -0.15168858133E-01 -0.87565653459E-02  0.99874144319E-03  0.17543351396E-01  0.00000000000E+00 0. -1.
     999901    1    3    3    0    0 -0.27292985824E-01  0.22002342854E-01  0.12172725850E+00  0.88907060216E+00  0.88000000000E+00 0. -1.
        -11    1    4    4    0    0  0.13797649893E-02 -0.19528788441E-01 -0.31899791162E-01  0.37431739562E-01  0.51100000000E-03 0. -1.
         11    1    4    4    0    0  0.41082078968E-01  0.62830109333E-02 -0.90826208780E-01  0.99884306881E-01  0.51100000000E-03 0.  1.
</event>
<event>
 8    1  0.2257781E+004  0.1043930E+01  0.7957747E-01            NaN
         13   -1    0    0    0    0  0.00000000000E+00  0.00000000000E+00  0.74505805969E-08  0.10566000000E+00  0.10566000000E+00 0. -1.
     999900   -1    0    0    0    0 -0.00000000000E+00 -0.00000000000E+00 -0.74505805969E-08  0.93827000000E+00  0.93827000000E+00 0.  1.
     999902    2    1    2    0    0  0.29668419290E-02 -0.27836984835E-02  0.12324004445E-01  0.10309518563E+01  0.10308701653E+01 0.  0.
     999903    2    3    3    0    0  0.59276138017E-01 -0.12008048950E+00  0.10422822733E-01  0.14138292221E+00  0.44130612538E-01 0.  0.
         14    1    1    2    0    0 -0.29668419290E-02  0.27836984835E-02 -0.12324004445E-01  0.12978143698E-01  0.00000000000E+00 0.  1.
     999901    1    3    3    0    0 -0.56309296088E-01  0.11729679101E+00  0.19011817128E-02  0.88956893409E+00  0.88000000000E+00 0. -1.
        -11    1    4    4    0    0  0.63485806140E-01 -0.10389261163E+00  0.16590294704E-03  0.12175553777E+00  0.51100000000E-03 0.  1.
         11    1    4    4    0    0 -0.42096681230E-02 -0.16187877867E-01  0.10256919785E-01  0.19627384442E-01  0.51100000000E-03 0. -1.
</event>
<event>
 8    1  0.2257781E+004  0.1043930E+01  0.7957747E-01            NaN
         13   -1    0    0    0    0  0.00000000000E+00  0.00000000000E+00  0.74505805969E-08  0.10566000000E+00  0.10566000000E+00 0. -1.
     999900   -1    0    0    0    0 -0.00000000000E+00 -0.00000000000E+00 -0.74505805969E-08  0.93827000000E+00  0.93827000000E+00 0.  1.
     999902    2    1    2    0    0  0.53506865293E-02 -0.17081139780E-01  0.79514808864E-03  0.10260127613E+01  0.10258563052E+01 0.  0.
     999903    2    3    3    0    0  0.50515174717E-01 -0.11222245698E+00  0.44564444477E-01  0.13865293994E+00  0.45749156450E-01 0.  0.
         14    1    1    2    0    0 -0.53506865293E-02  0.17081139780E-01 -0.79514808864E-03  0.17917238710E-01  0.00000000000E+00 0.  1.
     999901    1    3    3    0    0 -0.45164488187E-01  0.95141317202E-01 -0.43769296388E-01  0.88735982135E+00  0.88000000000E+00 0. -1.
        -11    1    4    4    0    0  0.34830677498E-01 -0.50192419844E-01  0.74212020460E-03  0.61100466186E-01  0.51100000000E-03 0. -1.
         11    1    4    4    0    0  0.15684497219E-01 -0.62030037139E-01  0.43822324272E-01  0.77552473758E-01  0.51100000000E-03 0.  1.
</event>
<event>
 8    1  0.2257781E+004  0.1043930E+01  0.7957747E-01            NaN
         13   -1    0    0    0    0  0.00000000000E+00  0.00000000000E+00  0.74505805969E-08  0.10566000000E+00  0.10566000000E+00 0.  1.
     999900   -1    0    0    0    0 -0.00000000000E+00 -0.00000000000E+00 -0.74505805969E-08  0.93827000000E+00  0.93827000000E+00 0.  1.
     999902    2    1    2    0    0  0.19916239228E-02  0.13491888346E-01 -0.23788965518E-02  0.10300859845E+01  0.10299929508E+01 0.  0.
     999903    2    3    3    0    0 -0.26524998025E-01 -0.12515493041E+00 -0.26201595559E-01  0.13845620757E+00  0.46002887727E-01 0.  0.
         14    1    1    2    0    0 -0.19916239228E-02 -0.13491888346E-01  0.23788965518E-02  0.13844015523E-01  0.00000000000E+00 0.  1.
     999901    1    3    3    0    0  0.28516621947E-01  0.13864681875E+00  0.23822699007E-01  0.89162977691E+00  0.88000000000E+00 0. -1.
        -11    1    4    4    0    0 -0.19911248558E-01 -0.11252336422E+00 -0.37487764261E-01  0.12026453719E+00  0.51100000000E-03 0.  1.
         11    1    4    4    0    0 -0.66137494669E-02 -0.12631566191E-01  0.11286168702E-01  0.18191670386E-01  0.51100000000E-03 0. -1.
</event>
<event>
 8    1  0.2257781E+004  0.1043930E+01  0.7957747E-01            NaN
         13   -1    0    0    0    0  0.00000000000E+00  0.00000000000E+00  0.74505805969E-08  0.10566000000E+00  0.10566000000E+00 0. -1.
     999900   -1    0    0    0    0 -0.00000000000E+00 -0.00000000000E+00 -0.74505805969E-08  0.93827000000E+00  0.93827000000E+00 0.  1.
     999902    2    1    2    0    0 -0.10793824941E-02  0.30092690797E-02  0.13108736649E-01  0.10304370484E+01  0.10303487036E+01 0.  0.
     999903    2    3    3    0    0  0.12836816925E+00  0.33867925172E-01  0.81928446980E-02  0.14041845795E+00  0.44997748793E-01 0.  0.
         14    1    1    2    0    0  0.10793824941E-02 -0.30092690797E-02 -0.13108736649E-01  0.13492951623E-01  0.00000000000E+00 0.  1.
     999901    1    3    3    0    0 -0.12944755175E+00 -0.30858656092E-01  0.49158919513E-02  0.89001859043E+00  0.88000000000E+00 0. -1.
        -11    1    4    4    0    0  0.50168476669E-01  0.13329461903E-02 -0.15393416884E-01  0.52496392269E-01  0.51100000000E-03 0.  1.
         11    1    4    4    0    0  0.78199692583E-01  0.32534978982E-01  0.23586261582E-01  0.87922065683E-01  0.51100000000E-03 0. -1.
</event>
<event>
 8    1  0.2257781E+004  0.1043930E+01  0.7957747E-01            NaN
         13   -1    0    0    0    0  0.00000000000E+00  0.00000000000E+00  0.74505805969E-08  0.10566000000E+00  0.10566000000E+00 0.  1.
     999900   -1    0    0    0    0 -0.00000000000E+00 -0.00000000000E+00 -0.74505805969E-08  0.93827000000E+00  0.93827000000E+00 0. -1.
     999902    2    1    2    0    0 -0.13942619659E-01 -0.73337496328E-03  0.11079584604E-02  0.10299242136E+01  0.10298289779E+01 0.  0.
     999903    2    3    3    0    0 -0.97692289118E-01 -0.79804393871E-01 -0.44771521450E-01  0.14123351380E+00  0.45054318920E-01 0.  0.
         14    1    1    2    0    0  0.13942619659E-01  0.73337496328E-03 -0.11079584604E-02  0.14005786438E-01  0.00000000000E+00 0. -1.
     999901    1    3    3    0    0  0.83749669459E-01  0.79071018908E-01  0.45879479910E-01  0.88869069976E+00  0.88000000000E+00 0. -1.
        -11    1    4    4    0    0 -0.52655601889E-01 -0.16047743232E-01 -0.26340451444E-01  0.61026412122E-01  0.51100000000E-03 0.  1.
         11    1    4    4    0    0 -0.45036687229E-01 -0.63756650639E-01 -0.18431070006E-01  0.80207101679E-01  0.51100000000E-03 0. -1.
</event>
<event>
 8    1  0.2257781E+004  0.1043930E+01  0.7957747E-01            NaN
         13   -1    0    0    0    0  0.00000000000E+00  0.00000000000E+00  0.74505805969E-08  0.10566000000E+00  0.10566000000E+00 0. -1.
     999900   -1    0    0    0    0 -0.00000000000E+00 -0.00000000000E+00 -0.74505805969E-08  0.93827000000E+00  0.93827000000E+00 0.  1.
     999902    2    1    2    0    0 -0.79208982443E-02  0.67756671169E-02  0.84476002122E-02  0.10305131359E+01  0.10304257911E+01 0.  0.
     999903    2    3    3    0    0  0.11199265841E+00  0.36546140648E-01 -0.59851976897E-01  0.13926099736E+00  0.43970334449E-01 0.  0.
         14    1    1    2    0    0  0.79208982443E-02 -0.67756671169E-02 -0.84476002122E-02  0.13416864135E-01  0.00000000000E+00 0.  1.
     999901    1    3    3    0    0 -0.11991355666E+00 -0.29770473532E-01  0.68299577109E-01  0.89125213851E+00  0.88000000000E+00 0. -1.
        -11    1    4    4    0    0  0.12161499221E-01 -0.19776606599E-04 -0.24261531412E-01  0.27143792694E-01  0.51100000000E-03 0.  1.
         11    1    4    4    0    0  0.99831159191E-01  0.36565917255E-01 -0.35590445486E-01  0.11211720466E+00  0.51100000000E-03 0. -1.
</event>
<event>
 8    1  0.2257781E+004  0.1043930E+01  0.7957747E-01            NaN
         13   -1    0    0    0    0  0.00000000000E+00  0.00000000000E+00  0.74505805969E-08  0.10566000000E+00  0.10566000000E+00 0. -1.
     999900   -1    0    0    0    0 -0.00000000000E+00 -0.00000000000E+00 -0.74505805969E-08  0.93827000000E+00  0.93827000000E+00 0.  1.
     999902    2    1    2    0    0  0.43838582568E-02 -0.91360313434E-02 -0.96719818080E-02  0.10299216984E+01  0.10298264282E+01 0.  0.
     999903    2    3    3    0    0 -0.51576686074E-01  0.11260929211E+00 -0.44828377437E-01  0.13908530575E+00  0.44655701020E-01 0.  0.
         14    1    1    2    0    0 -0.43838582568E-02  0.91360313434E-02  0.96719818080E-02  0.14008301611E-01  0.00000000000E+00 0. -1.
     999901    1    3    3    0    0  0.55960544330E-01 -0.12174532346E+00  0.35156395629E-01  0.89083639264E+00  0.88000000000E+00 0. -1.
        -11    1    4    4    0    0 -0.14030019413E-01  0.15843698276E-02 -0.79796354720E-02  0.16226132495E-01  0.51100000000E-03 0.  1.
         11    1    4    4    0    0 -0.37546666661E-01  0.11102492229E+00 -0.36848741965E-01  0.12285917325E+00  0.51100000000E-03 0. -1.
</event>
<event>
 8    1  0.2257781E+004  0.1043930E+01  0.7957747E-01            NaN
         13   -1    0    0    0    0  0.00000000000E+00  0.00000000000E+00  0.74505805969E-08  0.10566000000E+00  0.10566000000E+00 0. -1.
     999900   -1    0    0    0    0 -0.00000000000E+00 -0.00000000000E+00 -0.74505805969E-08  0.93827000000E+00  0.93827000000E+00 0.  1.
     999902    2    1    2    0    0 -0.13256049931E-01  0.25138430098E-02  0.97543411879E-03  0.10304024822E+01  0.10303136811E+01 0.  0.
     999903    2    3    3    0    0 -0.24505174265E-01  0.11867413064E+00  0.57099536588E-01  0.14092529299E+00  0.43766748525E-01 0.  0.
         14    1    1    2    0    0  0.13256049931E-01 -0.25138430098E-02 -0.97543411879E-03  0.13527517812E-01  0.00000000000E+00 0. -1.
     999901    1    3    3    0    0  0.11249124335E-01 -0.11616028763E+00 -0.56124102469E-01  0.88947718920E+00  0.88000000000E+00 0.  1.
        -11    1    4    4    0    0 -0.12790003006E-01  0.45956214202E-01 -0.36417882533E-04  0.47705557831E-01  0.51100000000E-03 0.  1.
         11    1    4    4    0    0 -0.11715171259E-01  0.72717916442E-01  0.57135954471E-01  0.93219735161E-01  0.51100000000E-03 0. -1.
</event>
<event>
 8    1  0.2257781E+004  0.1043930E+01  0.7957747E-01            NaN
         13   -1    0    0    0    0  0.00000000000E+00  0.00000000000E+00  0.74505805969E-08  0.10566000000E+00  0.10566000000E+00 0.  1.
     999900   -1    0    0    0    0 -0.00000000000E+00 -0.00000000000E+00 -0.74505805969E-08  0.93827000000E+00  0.93827000000E+00 0.  1.
     999902    2    1    2    0    0 -0.12531712222E-01  0.55953936690E-02  0.22971360778E-02  0.10300149335E+01  0.10299209359E+01 0.  0.
     999903    2    3    3    0    0 -0.12527123669E+00 -0.47780607007E-01 -0.52670397759E-02  0.14118625789E+00  0.43931179828E-01 0.  0.
         14    1    1    2    0    0  0.12531712222E-01 -0.55953936690E-02 -0.22971360778E-02  0.13915066499E-01  0.00000000000E+00 0.  1.
     999901    1    3    3    0    0  0.11273952447E+00  0.53376000676E-01  0.75641758537E-02  0.88882867561E+00  0.88000000000E+00 0. -1.
        -11    1    4    4    0    0 -0.16852167940E-01  0.70282435102E-02 -0.73306242254E-02  0.19682249456E-01  0.51100000000E-03 0.  1.
         11    1    4    4    0    0 -0.10841906875E+00 -0.54808850517E-01  0.20635844495E-02  0.12150400844E+00  0.51100000000E-03 0. -1.
</event>
<event>
 8    1  0.2257781E+004  0.1043930E+01  0.7957747E-01            NaN
         13   -1    0    0    0    0  0.00000000000E+00  0.00000000000E+00  0.74505805969E-08  0.10566000000E+00  0.10566000000E+00 0. -1.
     999900   -1    0    0    0    0 -0.00000000000E+00 -0.00000000000E+00 -0.74505805969E-08  0.93827000000E+00  0.93827000000E+00 0.  1.
     999902    2    1    2    0    0  0.10886491468E-02 -0.47544233358E-02  0.12773818527E-01  0.10302566632E+01  0.10301659245E+01 0.  0.
     999903    2    3    3    0    0 -0.14439836745E-01  0.92683834745E-01 -0.91687357621E-01  0.13860231018E+00  0.44779758069E-01 0.  0.
         14    1    1    2    0    0 -0.10886491468E-02  0.47544233358E-02 -0.12773818527E-01  0.13673336753E-01  0.00000000000E+00 0.  1.
     999901    1    3    3    0    0  0.15528485891E-01 -0.97438258081E-01  0.10446117615E+00  0.89165435306E+00  0.88000000000E+00 0. -1.
        -11    1    4    4    0    0 -0.25306196385E-01  0.33661571816E-01 -0.50770224180E-01  0.65965004183E-01  0.51100000000E-03 0.  1.
         11    1    4    4    0    0  0.10866359640E-01  0.59022262930E-01 -0.40917133441E-01  0.72637306002E-01  0.51100000000E-03 0. -1.
</event>
<event>
 8    1  0.2257781E+004  0.1043930E+01  0.7957747E-01            NaN
         13   -1    0    0    0    0  0.00000000000E+00  0.00000000000E+00  0.74505805969E-08  0.10566000000E+00  0.10566000000E+00 0.  1.
     999900   -1    0    0    0    0 -0.00000000000E+00 -0.00000000000E+00 -0.74505805969E-08  0.93827000000E+00  0.93827000000E+00 0. -1.
     999902    2    1    2    0    0  0.14033684335E-02 -0.24969612904E-02  0.80627500046E-02  0.10353735874E+01  0.10353382314E+01 0.  0.
     999903    2    3    3    0    0 -0.11519701564E+00  0.74561027008E-01 -0.41237588767E-02  0.14426074713E+00  0.44322213568E-01 0.  0.
         14    1    1    2    0    0 -0.14033684335E-02  0.24969612904E-02 -0.80627500046E-02  0.85564125825E-02  0.00000000000E+00 0. -1.
     999901    1    3    3    0    0  0.11660038407E+00 -0.77057988298E-01  0.12186508881E-01  0.89111284029E+00  0.88000000000E+00 0.  1.
        -11    1    4    4    0    0 -0.90079155585E-01  0.73271566280E-01  0.78860778873E-02  0.11638482737E+00  0.51100000000E-03 0. -1.
         11    1    4    4    0    0 -0.25117860051E-01  0.12894607274E-02 -0.12009836764E-01  0.27875919762E-01  0.51100000000E-03 0.  1.
</event>
<event>
 8    1  0.2257781E+004  0.1043930E+01  0.7957747E-01            NaN
         13   -1    0    0    0    0  0.00000000000E+00  0.00000000000E+00  0.74505805969E-08  0.10566000000E+00  0.10566000000E+00 0. -1.
     999900   -1    0    0    0    0 -0.00000000000E+00 -0.00000000000E+00 -0.74505805969E-08  0.93827000000E+00  0.93827000000E+00 0.  1.
     999902    2    1    2    0    0  0.78307971362E-03  0.80538908655E-02  0.11119493949E-01  0.10301778541E+01  0.10300860593E+01 0.  0.
     999903    2    3    3    0    0 -0.33895973365E-01 -0.18687485624E-01  0.12830244563E+00  0.14133052067E+00  0.44884734468E-01 0.  0.
         14    1    1    2    0    0 -0.78307971362E-03 -0.80538908655E-02 -0.11119493949E-01  0.13752145927E-01  0.00000000000E+00 0.  1.
     999901    1    3    3    0    0  0.34679053079E-01  0.26741376490E-01 -0.11718295168E+00  0.88884733341E+00  0.88000000000E+00 0.  1.
        -11    1    4    4    0    0 -0.44861761786E-01 -0.17597425484E-01  0.10220311499E+00  0.11299550827E+00  0.51100000000E-03 0.  1.
         11    1    4    4    0    0  0.10965788421E-01 -0.10900601400E-02  0.26099330642E-01  0.28335012401E-01  0.51100000000E-03 0. -1.
</event>
<event>
 8    1  0.2257781E+004  0.1043930E+01  0.7957747E-01            NaN
         13   -1    0    0    0    0  0.00000000000E+00  0.00000000000E+00  0.74505805969E-08  0.10566000000E+00  0.10566000000E+00 0.  1.
     999900   -1    0    0    0    0 -0.00000000000E+00 -0.00000000000E+00 -0.74505805969E-08  0.93827000000E+00  0.93827000000E+00 0. -1.
     999902    2    1    2    0    0  0.13178644046E-01  0.45392235592E-02 -0.57422175302E-02  0.10288550449E+01  0.10287445986E+01 0.  0.
     999903    2    3    3    0    0  0.62959822445E-01 -0.10150511205E+00 -0.56830685434E-01  0.13962301758E+00  0.44694890277E-01 0.  0.
         14    1    1    2    0    0 -0.13178644046E-01 -0.45392235592E-02  0.57422175302E-02  0.15074955110E-01  0.00000000000E+00 0.  1.
     999901    1    3    3    0    0 -0.49781178399E-01  0.10604433561E+00  0.51088467904E-01  0.88923202731E+00  0.88000000000E+00 0. -1.
        -11    1    4    4    0    0  0.35819121241E-01 -0.25642219736E-01 -0.34661638868E-01  0.56055536832E-01  0.51100000000E-03 0. -1.
         11    1    4    4    0    0  0.27140701204E-01 -0.75862892315E-01 -0.22169046566E-01  0.83567480750E-01  0.51100000000E-03 0.  1.
</event>
<event>
 8    1  0.2257781E+004  0.1043930E+01  0.7957747E-01            NaN
         13   -1    0    0    0    0  0.00000000000E+00  0.00000000000E+00  0.74505805969E-08  0.10566000000E+00  0.10566000000E+00 0.  1.
     999900   -1    0    0    0    0 -0.00000000000E+00 -0.00000000000E+00 -0.74505805969E-08  0.93827000000E+00  0.93827000000E+00 0. -1.
     999902    2    1    2    0    0 -0.10251918512E-01 -0.57157889277E-02  0.68191470322E-02  0.10303552867E+01  0.10302658608E+01 0.  0.
     999903    2    3    3    0    0 -0.49686781884E-01  0.12286274193E+00  0.29655021431E-02  0.14012924927E+00  0.45424471938E-01 0.  0.
         14    1    1    2    0    0  0.10251918512E-01  0.57157889277E-02 -0.68191470322E-02  0.13574713348E-01  0.00000000000E+00 0. -1.
     999901    1    3    3    0    0  0.39434863372E-01 -0.12857853086E+00  0.38536448891E-02  0.89022603738E+00  0.88000000000E+00 0.  1.
        -11    1    4    4    0    0 -0.52918865507E-01  0.91849369810E-01  0.14264257035E-01  0.10696000753E+00  0.51100000000E-03 0.  1.
         11    1    4    4    0    0  0.32320836234E-02  0.31013372119E-01 -0.11298754892E-01  0.33169241744E-01  0.51100000000E-03 0. -1.
</event>
<event>
 8    1  0.2257781E+004  0.1043930E+01  0.7957747E-01            NaN
         13   -1    0    0    0    0  0.00000000000E+00  0.00000000000E+00  0.74505805969E-08  0.10566000000E+00  0.10566000000E+00 0.  1.
     999900   -1    0    0    0    0 -0.00000000000E+00 -0.00000000000E+00 -0.74505805969E-08  0.93827000000E+00  0.93827000000E+00 0. -1.
     999902    2    1    2    0    0 -0.12371141095E-01  0.10349332418E-02  0.74062090654E-02  0.10294742692E+01  0.10293727716E+01 0.  0.
     999903    2    3    3    0    0  0.25632992908E-01  0.15936002687E-01 -0.12734044923E+00  0.13828236063E+00  0.44670065413E-01 0.  0.
         14    1    1    2    0    0  0.12371141095E-01 -0.10349332418E-02 -0.74062090654E-02  0.14455730750E-01  0.00000000000E+00 0. -1.
     999901    1    3    3    0    0 -0.38004134003E-01 -0.14901069445E-01  0.13474665829E+00  0.89119190862E+00  0.88000000000E+00 0.  1.
        -11    1    4    4    0    0 -0.40928301244E-03  0.17854459781E-01 -0.16210301212E-01  0.24124349381E-01  0.51100000000E-03 0.  1.
         11    1    4    4    0    0  0.26042275920E-01 -0.19184570946E-02 -0.11113014802E+00  0.11415801125E+00  0.51100000000E-03 0. -1.
</event>
<event>
 7    1  0.2257781E+004  0.1043930E+01  0.7957747E-01            NaN
         13   -1    0    0    0    0  0.00000000000E+00  0.00000000000E+00  0.74505805969E-08  0.10566000000E+00  0.10566000000E+00 0.  1.
     999900   -1    0    0    0    0 -0.00000000000E+00 -0.00000000000E+00 -0.74505805969E-08  0.93827000000E+00  0.93827000000E+00 0. -1.
     999903    2    1    2    0    0  0.21228685481E-01 -0.73218692379E-01  0.78747417408E-01  0.11867709286E+00  0.45513323545E-01 0.  0.
         14    1    1    2    0    0  0.32006761692E-01  0.75805091929E-02  0.15184228113E-01  0.36227858024E-01  0.00000000000E+00 0.  1.
     999901    1    1    2    0    0 -0.53235447173E-01  0.65638183186E-01 -0.93931645521E-01  0.88902504912E+00  0.88000000000E+00 0. -1.
        -11    1    3    3    0    0  0.67649291816E-03 -0.29171522506E-01  0.59734320813E-01  0.66482219969E-01  0.51100000000E-03 0.  1.
         11    1    3    3    0    0  0.20552192563E-01 -0.44047169872E-01  0.19013096595E-01  0.52194872890E-01  0.51100000000E-03 0. -1.
</event>
<event>
 8    1  0.2257781E+004  0.1043930E+01  0.7957747E-01            NaN
         13   -1    0    0    0    0  0.00000000000E+00  0.00000000000E+00  0.74505805969E-08  0.10566000000E+00  0.10566000000E+00 0.  1.
     999900   -1    0    0    0    0 -0.00000000000E+00 -0.00000000000E+00 -0.74505805969E-08  0.93827000000E+00  0.93827000000E+00 0.  1.
     999902    2    1    2    0    0 -0.74026878934E-02 -0.10829991524E-01  0.36458652020E-02  0.10303145368E+01  0.10302245697E+01 0.  0.
     999903    2    3    3    0    0  0.88481767365E-01  0.87072664789E-01 -0.41722052282E-01  0.13855391490E+00  0.45230361245E-01 0.  0.
         14    1    1    2    0    0  0.74026878934E-02  0.10829991524E-01 -0.36458652020E-02  0.13615463177E-01  0.00000000000E+00 0.  1.
     999901    1    3    3    0    0 -0.95884455259E-01 -0.97902656313E-01  0.45367917484E-01  0.89176062192E+00  0.88000000000E+00 0.  1.
        -11    1    4    4    0    0 -0.35836145035E-02  0.13885962274E-01 -0.24449892220E-02  0.14556831197E-01  0.51100000000E-03 0.  1.
         11    1    4    4    0    0  0.92065381869E-01  0.73186702514E-01 -0.39277063060E-01  0.12399708370E+00  0.51100000000E-03 0. -1.
</event>
<event>
 7    1  0.2257781E+004  0.1043930E+01  0.7957747E-01            NaN
         13   -1    0    0    0    0  0.00000000000E+00  0.00000000000E+00  0.74505805969E-08  0.10566000000E+00  0.10566000000E+00 0.  1.
     999900   -1    0    0    0    0 -0.00000000000E+00 -0.00000000000E+00 -0.74505805969E-08  0.93827000000E+00  0.93827000000E+00 0. -1.
     999903    2    1    2    0    0  0.10471276903E+00 -0.24706203866E-01 -0.37606433370E-01  0.12247186739E+00  0.44832510142E-01 0.  0.
         14    1    1    2    0    0  0.12955248506E-01 -0.23102816652E-01  0.18182565802E-01  0.32127625188E-01  0.00000000000E+00 0.  1.
     999901    1    1    2    0    0 -0.11766801753E+00  0.47809020518E-01  0.19423867568E-01  0.88933050742E+00  0.88000000000E+00 0. -1.
        -11    1    3    3    0    0  0.96630163946E-01 -0.29370284100E-01 -0.44987575928E-01  0.11056285670E+00  0.51100000000E-03 0. -1.
         11    1    3    3    0    0  0.80826050795E-02  0.46640802338E-02  0.73811425578E-02  0.11909010696E-01  0.51100000000E-03 0.  1.
</event>
<event>
 8    1  0.2257781E+004  0.1043930E+01  0.7957747E-01            NaN
         13   -1    0    0    0    0  0.00000000000E+00  0.00000000000E+00  0.74505805969E-08  0.10566000000E+00  0.10566000000E+00 0.  1.
     999900   -1    0    0    0    0 -0.00000000000E+00 -0.00000000000E+00 -0.74505805969E-08  0.93827000000E+00  0.93827000000E+00 0. -1.
     999902    2    1    2    0    0  0.13841637304E-01  0.67943240626E-02 -0.20342514025E-02  0.10283771243E+01  0.10282595090E+01 0.  0.
     999903    2    3    3    0    0 -0.44034774475E-01  0.16735791687E-01  0.12156100721E+00  0.13780186094E+00  0.44644443304E-01 0.  0.
         14    1    1    2    0    0 -0.13841637304E-01 -0.67943240626E-02  0.20342514025E-02  0.15552875666E-01  0.00000000000E+00 0. -1.
     999901    1    3    3    0    0  0.57876411779E-01 -0.99414676248E-02 -0.12359525861E+00  0.89057526339E+00  0.88000000000E+00 0. -1.
        -11    1    4    4    0    0 -0.35394509006E-01  0.15863327682E-01  0.39788741419E-01  0.55568169824E-01  0.51100000000E-03 0.  1.
         11    1    4    4    0    0 -0.86402654696E-02  0.87246400548E-03  0.81772265791E-01  0.82233691115E-01  0.51100000000E-03 0. -1.
</event>
<event>
 8    1  0.2257781E+004  0.1043930E+01  0.7957747E-01            NaN
         13   -1    0    0    0    0  0.00000000000E+00  0.00000000000E+00  0.74505805969E-08  0.10566000000E+00  0.10566000000E+00 0. -1.
     999900   -1    0    0    0    0 -0.00000000000E+00 -0.00000000000E+00 -0.74505805969E-08  0.93827000000E+00  0.93827000000E+00 0. -1.
     999902    2    1    2    0    0  0.66975077187E-03 -0.72834784599E-02  0.12410354484E-01  0.10295246356E+01  0.10294238490E+01 0.  0.
     999903    2    3    3    0    0  0.89832049199E-01  0.81047180139E-01  0.53571273583E-01  0.13966709535E+00  0.44705410172E-01 0.  0.
         14    1    1    2    0    0 -0.66975077187E-03  0.72834784599E-02 -0.12410354484E-01  0.14405364382E-01  0.00000000000E+00 0.  1.
     999901    1    3    3    0    0 -0.89162298427E-01 -0.88330658599E-01 -0.41160919099E-01  0.88985754027E+00  0.88000000000E+00 0. -1.
        -11    1    4    4    0    0  0.47508369816E-01  0.68543688049E-01  0.24902801547E-01  0.87038457131E-01  0.51100000000E-03 0.  1.
         11    1    4    4    0    0  0.42323679383E-01  0.12503492090E-01  0.28668472036E-01  0.52628638220E-01  0.51100000000E-03 0. -1.
</event>
<event>
 8    1  0.2257781E+004  0.1043930E+01  0.7957747E-01            NaN
         13   -1    0    0    0    0  0.00000000000E+00  0.00000000000E+00  0.74505805969E-08  0.10566000000E+00  0.10566000000E+00 0. -1.
     999900   -1    0    0    0    0 -0.00000000000E+00 -0.00000000000E+00 -0.74505805969E-08  0.93827000000E+00  0.93827000000E+00 0.  1.
     999902    2    1    2    0    0  0.10939925296E-01  0.35279469785E-02  0.80917884420E-02  0.10298727807E+01  0.10297768394E+01 0.  0.
     999903    2    3    3    0    0 -0.82222965234E-01  0.34293952587E-01 -0.95385975736E-01  0.13839450333E+00  0.46020245422E-01 0.  0.
         14    1    1    2    0    0 -0.10939925296E-01 -0.35279469785E-02 -0.80917884420E-02  0.14057219339E-01  0.00000000000E+00 0.  1.
     999901    1    3    3    0    0  0.93162890531E-01 -0.30766005609E-01  0.10347776418E+00  0.89147827733E+00  0.88000000000E+00 0. -1.
        -11    1    4    4    0    0 -0.57702648429E-01  0.19369367201E-02 -0.42362022187E-01  0.71611098332E-01  0.51100000000E-03 0. -1.
         11    1    4    4    0    0 -0.24520316805E-01  0.32357015867E-01 -0.53023953550E-01  0.66783404998E-01  0.51100000000E-03 0.  1.
</event>
<event>
 8    1  0.2257781E+004  0.1043930E+01  0.7957747E-01            NaN
         13   -1    0    0    0    0  0.00000000000E+00  0.00000000000E+00  0.74505805969E-08  0.10566000000E+00  0.10566000000E+00 0.  1.
     999900   -1    0    0    0    0 -0.00000000000E+00 -0.00000000000E+00 -0.74505805969E-08  0.93827000000E+00  0.93827000000E+00 0. -1.
     999902    2    1    2    0    0  0.64375500085E-02  0.10588102289E-01  0.67500702232E-02  0.10298192449E+01  0.10297225664E+01 0.  0.
     999903    2    3    3    0    0  0.26804615734E-01 -0.19192458229E-02  0.13071056223E+00  0.14080999038E+00  0.44944759251E-01 0.  0.
         14    1    1    2    0    0 -0.64375500085E-02 -0.10588102289E-01 -0.67500702232E-02  0.14110755055E-01  0.00000000000E+00 0. -1.
     999901    1    3    3    0    0 -0.20367065725E-01  0.12507348112E-01 -0.12396049200E+00  0.88900925456E+00  0.88000000000E+00 0. -1.
        -11    1    4    4    0    0  0.18944374494E-01  0.19623687309E-01  0.50666561017E-01  0.57544243455E-01  0.51100000000E-03 0.  1.
         11    1    4    4    0    0  0.78602412395E-02 -0.21542933132E-01  0.80044001211E-01  0.83265746926E-01  0.51100000000E-03 0. -1.
</event>
<event>
 8    1  0.2257781E+004  0.1043930E+01  0.7957747E-01            NaN
         13   -1    0    0    0    0  0.00000000000E+00  0.00000000000E+00  0.74505805969E-08  0.10566000000E+00  0.10566000000E+00 0.  1.
     999900   -1    0    0    0    0 -0.00000000000E+00 -0.00000000000E+00 -0.74505805969E-08  0.93827000000E+00  0.93827000000E+00 0. -1.
     999902    2    1    2    0    0 -0.13785086268E-01 -0.32180956850E-02  0.21292198664E-02  0.10296150316E+01  0.10295155147E+01 0.  0.
     999903    2    3    3    0    0  0.60592710531E-01  0.11602425319E+00 -0.48636194233E-03  0.13845980623E+00  0.45141748923E-01 0.  0.
         14    1    1    2    0    0  0.13785086268E-01  0.32180956850E-02 -0.21292198664E-02  0.14314968407E-01  0.00000000000E+00 0. -1.
     999901    1    3    3    0    0 -0.74377796799E-01 -0.11924234887E+00  0.26155818088E-02  0.89115522536E+00  0.88000000000E+00 0. -1.
        -11    1    4    4    0    0  0.46548602962E-01  0.40720713217E-01 -0.90975043390E-03  0.61854973037E-01  0.51100000000E-03 0. -1.
         11    1    4    4    0    0  0.14044107570E-01  0.75303539973E-01  0.42338849157E-03  0.76604833194E-01  0.51100000000E-03 0.  1.
</event>
<event>
 8    1  0.2257781E+004  0.1043930E+01  0.7957747E-01            NaN
         13   -1    0    0    0    0  0.00000000000E+00  0.00000000000E+00  0.74505805969E-08  0.10566000000E+00  0.10566000000E+00 0.  1.
     999900   -1    0    0    0    0 -0.00000000000E+00 -0.00000000000E+00 -0.74505805969E-08  0.93827000000E+00  0.93827000000E+00 0. -1.
     999902    2    1    2    0    0 -0.13791948024E-01  0.15932193516E-02 -0.14840660845E-02  0.10299672413E+01  0.10298725938E+01 0.  0.
     999903    2    3    3    0    0  0.32643888810E-01 -0.78651519444E-01 -0.10284038012E+00  0.13931096224E+00  0.39745634079E-01 0.  0.
         14    1    1    2    0    0  0.13791948024E-01 -0.15932193516E-02  0.14840660845E-02  0.13962758693E-01  0.00000000000E+00 0.  1.
     999901    1    3    3    0    0 -0.46435836833E-01  0.80244738796E-01  0.10135631404E+00  0.89065627907E+00  0.88000000000E+00 0.  1.
        -11    1    4    4    0    0  0.28132816186E-01 -0.40796018658E-01 -0.32386642792E-01  0.59202417495E-01  0.51100000000E-03 0. -1.
         11    1    4    4    0    0  0.45110726239E-02 -0.37855500786E-01 -0.70453737332E-01  0.80108544744E-01  0.51100000000E-03 0.  1.
</event>
<event>
 8    1  0.2257781E+004  0.1043930E+01  0.7957747E-01            NaN
         13   -1    0    0    0    0  0.00000000000E+00  0.00000000000E+00  0.74505805969E-08  0.10566000000E+00  0.10566000000E+00 0. -1.
     999900   -1    0    0    0    0 -0.00000000000E+00 -0.00000000000E+00 -0.74505805969E-08  0.93827000000E+00  0.93827000000E+00 0.  1.
     999902    2    1    2    0    0  0.11469754993E-01 -0.85571998879E-02  0.30109004208E-03  0.10296166634E+01  0.10295171693E+01 0.  0.
     999903    2    3    3    0    0 -0.98065937208E-01 -0.70844295601E-01 -0.52219931247E-01  0.13909085926E+00  0.44536542863E-01 0.  0.
         14    1    1    2    0    0 -0.11469754993E-01  0.85571998879E-02 -0.30109004208E-03  0.14313336604E-01  0.00000000000E+00 0.  1.
     999901    1    3    3    0    0  0.10953569220E+00  0.62287095713E-01  0.52521021289E-01  0.89052580414E+00  0.88000000000E+00 0.  1.
        -11    1    4    4    0    0 -0.75981431723E-01 -0.35227666488E-01 -0.49054140356E-01  0.97060477332E-01  0.51100000000E-03 0.  1.
         11    1    4    4    0    0 -0.22084505485E-01 -0.35616629113E-01 -0.31657908907E-02  0.42030381926E-01  0.51100000000E-03 0. -1.
</event>
<event>
 7    1  0.4920193E+004  0.1043930E+01  0.7957747E-01            NaN
         13   -1    0    0    0    0  0.00000000000E+00  0.00000000000E+00  0.74505805969E-08  0.10566000000E+00  0.10566000000E+00 0. -1.
     999900   -1    0    0    0    0 -0.00000000000E+00 -0.00000000000E+00 -0.74505805969E-08  0.93827000000E+00  0.93827000000E+00 0. -1.
     999903    2    1    2    0    0  0.73251697737E-01  0.62345757451E-02  0.39726297973E-01  0.94849200497E-01  0.44872162063E-01 0.  0.
         14    1    1    2    0    0  0.37089778848E-02 -0.44246417281E-01 -0.47295653583E-01  0.64872034090E-01  0.00000000000E+00 0.  1.
     999901    1    1    2    0    0 -0.76960675621E-01  0.38011841536E-01  0.75693556097E-02  0.88420876541E+00  0.88000000000E+00 0.  1.
        -11    1    3    3    0    0  0.43566598618E-01  0.13545612921E-01  0.44696436577E-01  0.63871470221E-01  0.51100000000E-03 0. -1.
         11    1    3    3    0    0  0.29685099119E-01 -0.73110371755E-02 -0.49701386038E-02  0.30977730276E-01  0.51100000000E-03 0.  1.
</event>
<event>
 7    1  0.2257781E+004  0.1043930E+01  0.7957747E-01            NaN
         13   -1    0    0    0    0  0.00000000000E+00  0.00000000000E+00  0.74505805969E-08  0.10566000000E+00  0.10566000000E+00 0. -1.
     999900   -1    0    0    0    0 -0.00000000000E+00 -0.00000000000E+00 -0.74505805969E-08  0.93827000000E+00  0.93827000000E+00 0. -1.
     999902    2    1    2    0    0 -0.11487750789E-01  0.85143517795E-02 -0.37849857243E-02  0.10291384916E+01  0.10290321891E+01 0.  0.
         14    1    1    2    0    0  0.11487750789E-01 -0.85143517795E-02  0.37849857243E-02  0.14791508420E-01  0.00000000000E+00 0. -1.
     999901    1    3    3    0    0  0.10162843569E+00  0.66714099850E-01 -0.57799097228E-01  0.89023583712E+00  0.88000000000E+00 0. -1.
        -11    1    3    3    0    0 -0.11012555575E+00 -0.53776918746E-01  0.52520464469E-01  0.13333512413E+00  0.51100000000E-03 0.  1.
         11    1    3    3    0    0 -0.29906307333E-02 -0.44228293241E-02  0.14936470348E-02  0.55675303212E-02  0.51100000000E-03 0. -1.
</event>
<event>
 8    1  0.2257781E+004  0.1043930E+01  0.7957747E-01            NaN
         13   -1    0    0    0    0  0.00000000000E+00  0.00000000000E+00  0.74505805969E-08  0.10566000000E+00  0.10566000000E+00 0.  1.
     999900   -1    0    0    0    0 -0.00000000000E+00 -0.00000000000E+00 -0.74505805969E-08  0.93827000000E+00  0.93827000000E+00 0. -1.
     999902    2    1    2    0    0 -0.15563195291E-01 -0.92570591953E-03 -0.17139849088E-02  0.10282453666E+01  0.10281257347E+01 0.  0.
     999903    2    3    3    0    0 -0.76466108932E-01  0.10584781660E+00  0.22448374395E-01  0.13937328946E+00  0.43245325834E-01 0.  0.
         14    1    1    2    0    0  0.15563195291E-01  0.92570591953E-03  0.17139849088E-02  0.15684633351E-01  0.00000000000E+00 0. -1.
     999901    1    3    3    0    0  0.60902913641E-01 -0.10677352252E+00 -0.24162359304E-01  0.88887207719E+00  0.88000000000E+00 0. -1.
        -11    1    4    4    0    0 -0.54456381582E-02  0.26870823789E-01 -0.85567604266E-02  0.28725866672E-01  0.51100000000E-03 0.  1.
         11    1    4    4    0    0 -0.71020470773E-01  0.78976992814E-01  0.31005134821E-01  0.11064742279E+00  0.51100000000E-03 0. -1.
</event>
<event>
 8    1  0.2257781E+004  0.1043930E+01  0.7957747E-01            NaN
         13   -1    0    0    0    0  0.00000000000E+00  0.00000000000E+00  0.74505805969E-08  0.10566000000E+00  0.10566000000E+00 0.  1.
     999900   -1    0    0    0    0 -0.00000000000E+00 -0.00000000000E+00 -0.74505805969E-08  0.93827000000E+00  0.93827000000E+00 0.  1.
     999902    2    1    2    0    0 -0.13896888382E-01 -0.28341417833E-02 -0.47955779679E-02  0.10289582454E+01  0.10288493172E+01 0.  0.
     999903    2    3    3    0    0  0.81275306666E-01 -0.53255908849E-01  0.86558913396E-01  0.13769748428E+00  0.45014268714E-01 0.  0.
         14    1    1    2    0    0  0.13896888382E-01  0.28341417833E-02  0.47955779679E-02  0.14971754553E-01  0.00000000000E+00 0. -1.
     999901    1    3    3    0    0 -0.95172195048E-01  0.50421767065E-01 -0.91354491364E-01  0.89126076117E+00  0.88000000000E+00 0.  1.
        -11    1    4    4    0    0  0.81120983609E-01 -0.35322786664E-01  0.65826764636E-01  0.11028026706E+00  0.51100000000E-03 0. -1.
         11    1    4    4    0    0  0.15432305732E-03 -0.17933122185E-01  0.20732148760E-01  0.27417217220E-01  0.51100000000E-03 0.  1.
</event>
<event>
 8    1  0.2257781E+004  0.1043930E+01  0.7957747E-01            NaN
         13   -1    0    0    0    0  0.00000000000E+00  0.00000000000E+00  0.74505805969E-08  0.10566000000E+00  0.10566000000E+00 0. -1.
     999900   -1    0    0    0    0 -0.00000000000E+00 -0.00000000000E+00 -0.74505805969E-08  0.93827000000E+00  0.93827000000E+00 0.  1.
     999902    2    1    2    0    0 -0.54551689625E-03  0.56844759523E-02  0.12198254646E-01  0.10304612112E+01  0.10303731846E+01 0.  0.
     999903    2    3    3    0    0  0.12104418958E+00  0.71416417820E-02 -0.54836257642E-01  0.13957412189E+00  0.42085882076E-01 0.  0.
         14    1    1    2    0    0  0.54551689625E-03 -0.56844759523E-02 -0.12198254646E-01  0.13468788808E-01  0.00000000000E+00 0.  1.
     999901    1    3    3    0    0 -0.12158970648E+00 -0.14571658297E-02  0.67034512289E-01  0.89088708931E+00  0.88000000000E+00 0.  1.
        -11    1    4    4    0    0  0.51283828731E-01 -0.70684287868E-02 -0.36713530038E-02  0.51901191978E-01  0.51100000000E-03 0. -1.
         11    1    4    4    0    0  0.69760360848E-01  0.14210070569E-01 -0.51164904639E-01  0.87672929909E-01  0.51100000000E-03 0.  1.
</event>
<event>
 8    1  0.2257781E+004  0.1043930E+01  0.7957747E-01            NaN
         13   -1    0    0    0    0  0.00000000000E+00  0.00000000000E+00  0.74505805969E-08  0.10566000000E+00  0.10566000000E+00 0.  1.
     999900   -1    0    0    0    0 -0.00000000000E+00 -0.00000000000E+00 -0.74505805969E-08  0.93827000000E+00  0.93827000000E+00 0.  1.
     999902    2    1    2    0    0 -0.17498739039E-02  0.11886900053E-01 -0.13107384314E-01  0.10261489996E+01  0.10259949344E+01 0.  0.
     999903    2    3    3    0    0 -0.94893377904E-02 -0.57759369069E-01 -0.11589781275E+00  0.13739910549E+00  0.44944620852E-01 0.  0.
         14    1    1    2    0    0  0.17498739039E-02 -0.11886900053E-01  0.13107384314E-01  0.17781000396E-01  0.00000000000E+00 0.  1.
     999901    1    3    3    0    0  0.77394638865E-02  0.69646269122E-01  0.10279042843E+00  0.88874989411E+00  0.88000000000E+00 0.  1.
        -11    1    4    4    0    0 -0.17110702137E-01 -0.17681186871E-02 -0.24429328867E-01  0.29882362711E-01  0.51100000000E-03 0.  1.
         11    1    4    4    0    0  0.76213643470E-02 -0.55991250382E-01 -0.91468483881E-01  0.10751674278E+00  0.51100000000E-03 0. -1.
</event>
<event>
 8    1  0.2257781E+004  0.1043930E+01  0.7957747E-01            NaN
         13   -1    0    0    0    0  0.00000000000E+00  0.00000000000E+00  0.74505805969E-08  0.10566000000E+00  0.10566000000E+00 0.  1.
     999900   -1    0    0    0    0 -0.00000000000E+00 -0.00000000000E+00 -0.74505805969E-08  0.93827000000E+00  0.93827000000E+00 0. -1.
     999902    2    1    2    0    0 -0.30382008025E-02 -0.80505170917E-02 -0.11062704313E-01  0.10299148326E+01  0.10298194684E+01 0.  0.
     999903    2    3    3    0    0 -0.23278783220E-02  0.12187051494E+00 -0.51301680899E-01  0.13946598269E+00  0.44283816856E-01 0.  0.
         14    1    1    2    0    0  0.30382008025E-02  0.80505170917E-02  0.11062704313E-01  0.14015167366E-01  0.00000000000E+00 0.  1.
     999901    1    3    3    0    0 -0.71032248056E-03 -0.12992103204E+00  0.40238976585E-01  0.89044884994E+00  0.88000000000E+00 0. -1.
        -11    1    4    4    0    0  0.11874646107E-01  0.75673577627E-01 -0.49292597572E-01  0.91090717790E-01  0.51100000000E-03 0. -1.
         11    1    4    4    0    0 -0.14202524429E-01  0.46196937318E-01 -0.20090833264E-02  0.48375264904E-01  0.51100000000E-03 0.  1.
</event>
<event>
 8    1  0.2257781E+004  0.1043930E+01  0.7957747E-01            NaN
         13   -1    0    0    0    0  0.00000000000E+00  0.00000000000E+00  0.74505805969E-08  0.10566000000E+00  0.10566000000E+00 0. -1.
     999900   -1    0    0    0    0 -0.00000000000E+00 -0.00000000000E+00 -0.74505805969E-08  0.93827000000E+00  0.93827000000E+00 0.  1.
     999902    2    1    2    0    0 -0.29033052875E-02 -0.17169857540E-02  0.14175003997E-01  0.10293592087E+01  0.10292560772E+01 0.  0.
     999903    2    3    3    0    0 -0.99714896504E-01 -0.31484887699E-01 -0.78737218925E-01  0.13869019419E+00  0.45837338308E-01 0.  0.
         14    1    1    2    0    0  0.29033052875E-02  0.17169857540E-02 -0.14175003997E-01  0.14570791330E-01  0.00000000000E+00 0.  1.
     999901    1    3    3    0    0  0.96811591216E-01  0.29767901945E-01  0.92912222922E-01  0.89066901448E+00  0.88000000000E+00 0. -1.
        -11    1    4    4    0    0 -0.97105268757E-01 -0.16092564460E-01 -0.70093708835E-01  0.12083787896E+00  0.51100000000E-03 0. -1.
         11    1    4    4    0    0 -0.26096277466E-02 -0.15392323239E-01 -0.86435100896E-02  0.17852315237E-01  0.51100000000E-03 0.  1.
</event>
<event>
 8    1  0.2257781E+004  0.1043930E+01  0.7957747E-01            NaN
         13   -1    0    0    0    0  0.00000000000E+00  0.00000000000E+00  0.74505805969E-08  0.10566000000E+00  0.10566000000E+00 0. -1.
     999900   -1    0    0    0    0 -0.00000000000E+00 -0.00000000000E+00 -0.74505805969E-08  0.93827000000E+00  0.93827000000E+00 0.  1.
     999902    2    1    2    0    0 -0.13856034559E-01  0.46753380081E-03  0.85219444709E-03  0.10300399130E+01  0.10299462548E+01 0.  0.
     999903    2    3    3    0    0  0.94177890763E-02 -0.13077049010E+00 -0.16902035639E-01  0.13982628556E+00  0.45564190925E-01 0.  0.
         14    1    1    2    0    0  0.13856034559E-01 -0.46753380081E-03 -0.85219444709E-03  0.13890087002E-01  0.00000000000E+00 0. -1.
     999901    1    3    3    0    0 -0.23273823635E-01  0.13123802390E+00  0.17754230086E-01  0.89021362743E+00  0.88000000000E+00 0.  1.
        -11    1    4    4    0    0  0.10679664074E-02 -0.15745037858E-01 -0.18711016469E-01  0.24482851707E-01  0.51100000000E-03 0.  1.
         11    1    4    4    0    0  0.83498226689E-02 -0.11502545224E+00  0.18089808301E-02  0.11534343386E+00  0.51100000000E-03 0. -1.
</event>
<event>
 8    1  0.2257781E+004  0.1043930E+01  0.7957747E-01            NaN
         13   -1    0    0    0    0  0.00000000000E+00  0.00000000000E+00  0.74505805969E-08  0.10566000000E+00  0.10566000000E+00 0.  1.
     999900   -1    0    0    0    0 -0.00000000000E+00 -0.00000000000E+00 -0.74505805969E-08  0.93827000000E+00  0.93827000000E+00 0.  1.
     999902    2    1    2    0    0  0.12820795659E-01 -0.40244410443E-02  0.35460495160E-03  0.10304877282E+01  0.10304000501E+01 0.  0.
     999903    2    3    3    0    0 -0.11214270749E+00 -0.30807156914E-02 -0.68592573720E-01  0.13898872022E+00  0.45027164320E-01 0.  0.
         14    1    1    2    0    0 -0.12820795659E-01  0.40244410443E-02 -0.35460495160E-03  0.13442271821E-01  0.00000000000E+00 0. -1.
     999901    1    3    3    0    0  0.12496350315E+00 -0.94372535292E-03  0.68947178672E-01  0.89149900795E+00  0.88000000000E+00 0. -1.
        -11    1    4    4    0    0 -0.66263601497E-01 -0.10961364611E-01 -0.63020809253E-01  0.92102659665E-01  0.51100000000E-03 0. -1.
         11    1    4    4    0    0 -0.45879105996E-01  0.78806489199E-02 -0.55717644673E-02  0.46886060558E-01  0.51100000000E-03 0.  1.
</event>
<event>
 8    1  0.2257781E+004  0.1043930E+01  0.7957747E-01            NaN
         13   -1    0    0    0    0  0.00000000000E+00  0.00000000000E+00  0.74505805969E-08  0.10566000000E+00  0.10566000000E+00 0. -1.
     999900   -1    0    0    0    0 -0.00000000000E+00 -0.00000000000E+00 -0.74505805969E-08  0.93827000000E+00  0.93827000000E+00 0.  1.
     999902    2    1    2    0    0  0.88943474432E-02  0.83570845823E-02  0.35340381228E-03  0.10317203655E+01  0.10316481171E+01 0.  0.
     999903    2    3    3    0    0  0.94415519705E-01 -0.66747469846E-01  0.67777112386E-01  0.14183243919E+00  0.46402464930E-01 0.  0.
         14    1    1    2    0    0 -0.88943474432E-02 -0.83570845823E-02 -0.35340381228E-03  0.12209634450E-01  0.00000000000E+00 0. -1.
     999901    1    3    3    0    0 -0.85521172262E-01  0.75104554428E-01 -0.67423708574E-01  0.88988792636E+00  0.88000000000E+00 0. -1.
        -11    1    4    4    0    0  0.28587652621E-01 -0.14965217734E-01  0.44375002249E-01  0.54869058401E-01  0.51100000000E-03 0. -1.
         11    1    4    4    0    0  0.65827867084E-01 -0.51782252112E-01  0.23402110137E-01  0.86963380791E-01  0.51100000000E-03 0.  1.
</event>
<event>
 8    1  0.2257781E+004  0.1043930E+01  0.7957747E-01            NaN
         13   -1    0    0    0    0  0.00000000000E+00  0.00000000000E+00  0.74505805969E-08  0.10566000000E+00  0.10566000000E+00 0. -1.
     999900   -1    0    0    0    0 -0.00000000000E+00 -0.00000000000E+00 -0.74505805969E-08  0.93827000000E+00  0.93827000000E+00 0. -1.
     999902    2    1    2    0    0  0.14494981137E-01 -0.11130247033E-01 -0.40098161002E-02  0.10252199625E+01  0.10250492213E+01 0.  0.
     999903    2    3    3    0    0  0.43614739889E-01 -0.15902541140E-02 -0.12181710268E+00  0.13684080440E+00  0.44510951467E-01 0.  0.
         14    1    1    2    0    0 -0.14494981137E-01  0.11130247033E-01  0.40098161002E-02  0.18710037476E-01  0.00000000000E+00 0.  1.
     999901    1    3    3    0    0 -0.29119758752E-01 -0.95399929193E-02  0.11780728658E+00  0.88837915812E+00  0.88000000000E+00 0.  1.
        -11    1    4    4    0    0  0.14587834883E-01  0.78472804627E-02 -0.94291185843E-01  0.95736479912E-01  0.51100000000E-03 0.  1.
         11    1    4    4    0    0  0.29026905006E-01 -0.94375345768E-02 -0.27525916837E-01  0.41104324490E-01  0.51100000000E-03 0. -1.
</event>
<event>
 7    1  0.2257781E+004  0.1043930E+01  0.7957747E-01            NaN
         13   -1    0    0    0    0  0.00000000000E+00  0.00000000000E+00  0.74505805969E-08  0.10566000000E+00  0.10566000000E+00 0. -1.
     999900   -1    0    0    0    0 -0.00000000000E+00 -0.00000000000E+00 -0.74505805969E-08  0.93827000000E+00  0.93827000000E+00 0. -1.
     999903    2    1    2    0    0 -0.25117018825E-01  0.87366190468E-01  0.59702347042E-01  0.11788041559E+00  0.45472038284E-01 0.  0.
         14    1    1    2    0    0 -0.34708305141E-01  0.11495406961E-01 -0.30304507936E-02  0.36687797139E-01  0.00000000000E+00 0. -1.
     999901    1    1    2    0    0  0.59825323966E-01 -0.98861597428E-01 -0.56671896249E-01  0.88936178727E+00  0.88000000000E+00 0. -1.
        -11    1    3    3    0    0  0.33695708839E-02  0.27210505950E-01 -0.14919062706E-02  0.27463658666E-01  0.51100000000E-03 0.  1.
         11    1    3    3    0    0 -0.28486589709E-01  0.60155684518E-01  0.61194253313E-01  0.90416756924E-01  0.51100000000E-03 0. -1.
</event>
<event>
 8    1  0.2257781E+004  0.1043930E+01  0.7957747E-01            NaN
         13   -1    0    0    0    0  0.00000000000E+00  0.00000000000E+00  0.74505805969E-08  0.10566000000E+00  0.10566000000E+00 0. -1.
     999900   -1    0    0    0    0 -0.00000000000E+00 -0.00000000000E+00 -0.74505805969E-08  0.93827000000E+00  0.93827000000E+00 0.  1.
     999902    2    1    2    0    0 -0.92470363150E-02 -0.87941223307E-02  0.63430561606E-02  0.10296794341E+01  0.10295808168E+01 0.  0.
     999903    2    3    3    0    0  0.29006097325E-01  0.11805769907E+00 -0.49836101782E-01  0.13798958629E+00  0.42172442319E-01 0.  0.
         14    1    1    2    0    0  0.92470363150E-02  0.87941223307E-02 -0.63430561606E-02  0.14250565941E-01  0.00000000000E+00 0.  1.
     999901    1    3    3    0    0 -0.38253133640E-01 -0.12685182140E+00  0.56179157943E-01  0.89168984777E+00  0.88000000000E+00 0. -1.
        -11    1    4    4    0    0 -0.27105313313E-02  0.59475195124E-01 -0.10013090815E-01  0.60375234358E-01  0.51100000000E-03 0.  1.
         11    1    4    4    0    0  0.31716628656E-01  0.58582503950E-01 -0.39823010967E-01  0.77614351932E-01  0.51100000000E-03 0. -1.
</event>
<event>
 8    1  0.2257781E+004  0.1043930E+01  0.7957747E-01            NaN
         13   -1    0    0    0    0  0.00000000000E+00  0.00000000000E+00  0.74505805969E-08  0.10566000000E+00  0.10566000000E+00 0. -1.
     999900   -1    0    0    0    0 -0.00000000000E+00 -0.00000000000E+00 -0.74505805969E-08  0.93827000000E+00  0.93827000000E+00 0. -1.
     999902    2    1    2    0    0 -0.16896645061E-01 -0.60874120128E-02 -0.90741113158E-02  0.10238080544E+01  0.10236102967E+01 0.  0.
     999903    2    3    3    0    0  0.55607134448E-01  0.11000158040E+00 -0.19804528352E-01  0.13316301058E+00  0.46342927726E-01 0.  0.
         14    1    1    2    0    0  0.16896645061E-01  0.60874120128E-02  0.90741113158E-02  0.20121945619E-01  0.00000000000E+00 0.  1.
     999901    1    3    3    0    0 -0.72503779509E-01 -0.11608899241E+00  0.10730417036E-01  0.89064504380E+00  0.88000000000E+00 0.  1.
        -11    1    4    4    0    0  0.40912636735E-01  0.95602652241E-01  0.86720334011E-03  0.10399386579E+00  0.51100000000E-03 0.  1.
         11    1    4    4    0    0  0.14694497714E-01  0.14398928160E-01 -0.20671731692E-01  0.29169144783E-01  0.51100000000E-03 0. -1.
</event>
<event>
 8    1  0.2257781E+004  0.1043930E+01  0.7957747E-01            NaN
         13   -1    0    0    0    0  0.00000000000E+00  0.00000000000E+00  0.74505805969E-08  0.10566000000E+00  0.10566000000E+00 0.  1.
     999900   -1    0    0    0    0 -0.00000000000E+00 -0.00000000000E+00 -0.74505805969E-08  0.93827000000E+00  0.93827000000E+00 0.  1.
     999902    2    1    2    0    0  0.26072959371E-02 -0.12517190085E-01  0.45572892112E-02  0.10303562413E+01  0.10302668281E+01 0.  0.
     999903    2    3    3    0    0 -0.87006365515E-01 -0.10183481197E+00 -0.18281420424E-03  0.14129453678E+00  0.44985287970E-01 0.  0.
         14    1    1    2    0    0 -0.26072959371E-02  0.12517190085E-01 -0.45572892112E-02  0.13573758679E-01  0.00000000000E+00 0. -1.
     999901    1    3    3    0    0  0.89613661452E-01  0.89317621887E-01  0.47401034154E-02  0.88906170454E+00  0.88000000000E+00 0.  1.
        -11    1    4    4    0    0 -0.20189025665E-01 -0.38773215016E-01  0.18610823691E-01  0.47514027817E-01  0.51100000000E-03 0.  1.
         11    1    4    4    0    0 -0.66817339849E-01 -0.63061596957E-01 -0.18793637895E-01  0.93780508964E-01  0.51100000000E-03 0. -1.
</event>
<event>
 8    1  0.2257781E+004  0.1043930E+01  0.7957747E-01            NaN
         13   -1    0    0    0    0  0.00000000000E+00  0.00000000000E+00  0.74505805969E-08  0.10566000000E+00  0.10566000000E+00 0. -1.
     999900   -1    0    0    0    0 -0.00000000000E+00 -0.00000000000E+00 -0.74505805969E-08  0.93827000000E+00  0.93827000000E+00 0.  1.
     999902    2    1    2    0    0 -0.13257509747E-01 -0.33542623760E-02 -0.63666264755E-03  0.10302399313E+01  0.10301489689E+01 0.  0.
     999903    2    3    3    0    0  0.29567650739E-01 -0.41808581031E-01  0.12229963486E+00  0.13983212463E+00  0.44425431624E-01 0.  0.
         14    1    1    2    0    0  0.13257509747E-01  0.33542623760E-02  0.63666264755E-03  0.13690068667E-01  0.00000000000E+00 0.  1.
     999901    1    3    3    0    0 -0.42825160486E-01  0.38454318655E-01 -0.12293629750E+00  0.89040780670E+00  0.88000000000E+00 0.  1.
        -11    1    4    4    0    0 -0.10255647202E-01 -0.26743244042E-02  0.31492228790E-01  0.33231790589E-01  0.51100000000E-03 0.  1.
         11    1    4    4    0    0  0.39823297941E-01 -0.39134256627E-01  0.90807406065E-01  0.10660033404E+00  0.51100000000E-03 0. -1.
</event>
<event>
 8    1  0.2257781E+004  0.1043930E+01  0.7957747E-01            NaN
         13   -1    0    0    0    0  0.00000000000E+00  0.00000000000E+00  0.74505805969E-08  0.10566000000E+00  0.10566000000E+00 0. -1.
     999900   -1    0    0    0    0 -0.00000000000E+00 -0.00000000000E+00 -0.74505805969E-08  0.93827000000E+00  0.93827000000E+00 0. -1.
     999902    2    1    2    0    0  0.10288256128E-01 -0.28165407298E-02  0.10395705669E-01  0.10290353093E+01  0.10289275076E+01 0.  0.
     999903    2    3    3    0    0  0.79732991200E-01 -0.32276465195E-02 -0.10429908906E+00  0.13887934755E+00  0.45181916823E-01 0.  0.
         14    1    1    2    0    0 -0.10288256128E-01  0.28165407298E-02 -0.10395705669E-01  0.14894690738E-01  0.00000000000E+00 0.  1.
     999901    1    3    3    0    0 -0.69444735071E-01  0.41110578972E-03  0.11469479473E+00  0.89015596171E+00  0.88000000000E+00 0.  1.
        -11    1    4    4    0    0  0.31440803073E-01 -0.11890769579E-01 -0.73827972896E-01  0.81121792399E-01  0.51100000000E-03 0. -1.
         11    1    4    4    0    0  0.48292188127E-01  0.86631230596E-02 -0.30471116168E-01  0.57757555149E-01  0.51100000000E-03 0.  1.
</event>
<event>
 8    1  0.2257781E+004  0.1043930E+01  0.7957747E-01            NaN
         13   -1    0    0    0    0  0.00000000000E+00  0.00000000000E+00  0.74505805969E-08  0.10566000000E+00  0.10566000000E+00 0.  1.
     999900   -1    0    0    0    0 -0.00000000000E+00 -0.00000000000E+00 -0.74505805969E-08  0.93827000000E+00  0.93827000000E+00 0.  1.
     999902    2    1    2    0    0 -0.52936275859E-02 -0.78556287333E-02  0.80803835088E-02  0.10314790565E+01  0.10314039064E+01 0.  0.
     999903    2    3    3    0    0 -0.74648319585E-02 -0.11781708762E+00  0.66555438441E-01  0.14270711242E+00  0.44711337481E-01 0.  0.
         14    1    1    2    0    0  0.52936275859E-02  0.78556287333E-02 -0.80803835088E-02  0.12450943477E-01  0.00000000000E+00 0. -1.
     999901    1    3    3    0    0  0.21712043726E-02  0.10996145888E+00 -0.58475054932E-01  0.88877194410E+00  0.88000000000E+00 0. -1.
        -11    1    4    4    0    0 -0.24347693998E-01 -0.59803170237E-01  0.24380187860E-01  0.69020895781E-01  0.51100000000E-03 0. -1.
         11    1    4    4    0    0  0.16882862039E-01 -0.58013917382E-01  0.42175250580E-01  0.73686216643E-01  0.51100000000E-03 0.  1.
</event>
<event>
 8    1  0.2257781E+004  0.1043930E+01  0.7957747E-01            NaN
         13   -1    0    0    0    0  0.00000000000E+00  0.00000000000E+00  0.74505805969E-08  0.10566000000E+00  0.10566000000E+00 0.  1.
     999900   -1    0    0    0    0 -0.00000000000E+00 -0.00000000000E+00 -0.74505805969E-08  0.93827000000E+00  0.93827000000E+00 0. -1.
     999902    2    1    2    0    0  0.26950612684E-02  0.10971664193E-01  0.75484205256E-02  0.10303425270E+01  0.10302529318E+01 0.  0.
     999903    2    3    3    0    0  0.29156991141E-01  0.13115534839E+00 -0.23319651121E-02  0.14172451361E+00  0.45039362279E-01 0.  0.
         14    1    1    2    0    0 -0.26950612684E-02 -0.10971664193E-01 -0.75484205256E-02  0.13587473011E-01  0.00000000000E+00 0. -1.
     999901    1    3    3    0    0 -0.26461929872E-01 -0.12018368419E+00  0.98803856377E-02  0.88861801338E+00  0.88000000000E+00 0.  1.
        -11    1    4    4    0    0  0.84954823424E-02  0.86135363444E-01 -0.20519496859E-01  0.88953835939E-01  0.51100000000E-03 0. -1.
         11    1    4    4    0    0  0.20661508798E-01  0.45019984941E-01  0.18187531747E-01  0.52770677672E-01  0.51100000000E-03 0.  1.
</event>
<event>
 8    1  0.2257781E+004  0.1043930E+01  0.7957747E-01            NaN
         13   -1    0    0    0    0  0.00000000000E+00  0.00000000000E+00  0.74505805969E-08  0.10566000000E+00  0.10566000000E+00 0.  1.
     999900   -1    0    0    0    0 -0.00000000000E+00 -0.00000000000E+00 -0.74505805969E-08  0.93827000000E+00  0.93827000000E+00 0. -1.
     999902    2    1    2    0    0 -0.93327620623E-03  0.12396748210E-01  0.64595324694E-02  0.10299201488E+01  0.10298248574E+01 0.  0.
     999903    2    3    3    0    0 -0.80223984806E-01 -0.32338626516E-01  0.10054724781E+00  0.14023437934E+00  0.45544018297E-01 0.  0.
         14    1    1    2    0    0  0.93327620623E-03 -0.12396748210E-01 -0.64595324694E-02  0.14009851190E-01  0.00000000000E+00 0. -1.
     999901    1    3    3    0    0  0.79290708600E-01  0.44735374726E-01 -0.94087715342E-01  0.88968576947E+00  0.88000000000E+00 0. -1.
        -11    1    4    4    0    0 -0.24335209547E-01  0.98814708231E-02  0.38810336242E-01  0.46865223883E-01  0.51100000000E-03 0. -1.
         11    1    4    4    0    0 -0.55888775259E-01 -0.42220097339E-01  0.61736911570E-01  0.93369155455E-01  0.51100000000E-03 0.  1.
</event>
<event>
 8    1  0.2257781E+004  0.1043930E+01  0.7957747E-01            NaN
         13   -1    0    0    0    0  0.00000000000E+00  0.00000000000E+00  0.74505805969E-08  0.10566000000E+00  0.10566000000E+00 0.  1.
     999900   -1    0    0    0    0 -0.00000000000E+00 -0.00000000000E+00 -0.74505805969E-08  0.93827000000E+00  0.93827000000E+00 0.  1.
     999902    2    1    2    0    0  0.18159127505E-02  0.90497369184E-02  0.10460189196E-01  0.10299797012E+01  0.10298852238E+01 0.  0.
     999903    2    3    3    0    0  0.94669101651E-02  0.17623373807E-01 -0.12933342023E+00  0.13887123520E+00  0.46452994374E-01 0.  0.
         14    1    1    2    0    0 -0.18159127505E-02 -0.90497369184E-02 -0.10460189196E-01  0.13950298758E-01  0.00000000000E+00 0. -1.
     999901    1    3    3    0    0 -0.76509974146E-02 -0.85736368890E-02  0.13979360942E+00  0.89110846604E+00  0.88000000000E+00 0. -1.
        -11    1    4    4    0    0  0.12484311273E-02 -0.15845180691E-01 -0.46886328791E-01  0.49509769540E-01  0.51100000000E-03 0. -1.
         11    1    4    4    0    0  0.82184790378E-02  0.33468554498E-01 -0.82447091438E-01  0.89361465664E-01  0.51100000000E-03 0.  1.
</event>
<event>
 8    1  0.2257781E+004  0.1043930E+01  0.7957747E-01            NaN
         13   -1    0    0    0    0  0.00000000000E+00  0.00000000000E+00  0.74505805969E-08  0.10566000000E+00  0.10566000000E+00 0.  1.
     999900   -1    0    0    0    0 -0.00000000000E+00 -0.00000000000E+00 -0.74505805969E-08  0.93827000000E+00  0.93827000000E+00 0.  1.
     999902    2    1    2    0    0 -0.21475850040E-02 -0.31708582917E-02 -0.13559389557E-01  0.10298401629E+01  0.10297437728E+01 0.  0.
     999903    2    3    3    0    0 -0.68453290225E-01  0.27500123060E-01  0.10811067955E+00  0.13847000336E+00  0.45209657003E-01 0.  0.
         14    1    1    2    0    0  0.21475850040E-02  0.31708582917E-02  0.13559389557E-01  0.14089837076E-01  0.00000000000E+00 0.  1.
     999901    1    3    3    0    0  0.66305705221E-01 -0.30670981352E-01 -0.12167006911E+00  0.89137015956E+00  0.88000000000E+00 0.  1.
        -11    1    4    4    0    0 -0.32493301760E-01  0.33439862128E-01  0.79360132235E-01  0.92045264668E-01  0.51100000000E-03 0.  1.
         11    1    4    4    0    0 -0.35959988465E-01 -0.59397390683E-02  0.28750547318E-01  0.46424738693E-01  0.51100000000E-03 0. -1.
</event>
<event>
 8    1  0.2257781E+004  0.1043930E+01  0.7957747E-01            NaN
         13   -1    0    0    0    0  0.00000000000E+00  0.00000000000E+00  0.74505805969E-08  0.10566000000E+00  0.10566000000E+00 0. -1.
     999900   -1    0    0    0    0 -0.00000000000E+00 -0.00000000000E+00 -0.74505805969E-08  0.93827000000E+00  0.93827000000E+00 0. -1.
     999902    2    1    2    0    0 -0.42594615883E-02 -0.24998205574E-02  0.12900157063E-01  0.10301167394E+01  0.10300241214E+01 0.  0.
     999903    2    3    3    0    0 -0.91058323348E-01 -0.70809691108E-01  0.67903061497E-01  0.14150793892E+00  0.45913401206E-01 0.  0.
         14    1    1    2    0    0  0.42594615883E-02  0.24998205574E-02 -0.12900157063E-01  0.13813260589E-01  0.00000000000E+00 0.  1.
     999901    1    3    3    0    0  0.86798861760E-01  0.68309870551E-01 -0.55002904434E-01  0.88860880049E+00  0.88000000000E+00 0.  1.
        -11    1    4    4    0    0 -0.45368831346E-01 -0.62806453158E-01  0.47059461335E-01  0.90652277622E-01  0.51100000000E-03 0. -1.
         11    1    4    4    0    0 -0.45689492002E-01 -0.80032379503E-02  0.20843600163E-01  0.50855661296E-01  0.51100000000E-03 0.  1.
</event>
<event>
 8    1  0.2257781E+004  0.1043930E+01  0.7957747E-01            NaN
         13   -1    0    0    0    0  0.00000000000E+00  0.00000000000E+00  0.74505805969E-08  0.10566000000E+00  0.10566000000E+00 0.  1.
     999900   -1    0    0    0    0 -0.00000000000E+00 -0.00000000000E+00 -0.74505805969E-08  0.93827000000E+00  0.93827000000E+00 0.  1.
     999902    2    1    2    0    0  0.11918244542E-01 -0.47818066868E-02 -0.53726507968E-02  0.10300096694E+01  0.10299156001E+01 0.  0.
     999903    2    3    3    0    0 -0.61563904726E-01 -0.11454865855E+00 -0.24471635723E-01  0.13994609903E+00  0.45547119976E-01 0.  0.
         14    1    1    2    0    0 -0.11918244542E-01  0.47818066868E-02  0.53726507968E-02  0.13920330626E-01  0.00000000000E+00 0. -1.
     999901    1    3    3    0    0  0.73482149267E-01  0.10976685186E+00  0.19098984926E-01  0.89006357034E+00  0.88000000000E+00 0.  1.
        -11    1    4    4    0    0 -0.18359152026E-01 -0.55898037473E-01 -0.31536071227E-01  0.66756527515E-01  0.51100000000E-03 0. -1.
         11    1    4    4    0    0 -0.43204752700E-01 -0.58650621077E-01  0.70644355040E-02  0.73189571515E-01  0.51100000000E-03 0.  1.
</event>
<event>
 8    1  0.2257781E+004  0.1043930E+01  0.7957747E-01            NaN
         13   -1    0    0    0    0  0.00000000000E+00  0.00000000000E+00  0.74505805969E-08  0.10566000000E+00  0.10566000000E+00 0. -1.
     999900   -1    0    0    0    0 -0.00000000000E+00 -0.00000000000E+00 -0.74505805969E-08  0.93827000000E+00  0.93827000000E+00 0.  1.
     999902    2    1    2    0    0 -0.44386144782E-02 -0.11882099244E-01  0.57290123417E-02  0.10300121279E+01  0.10299180921E+01 0.  0.
     999903    2    3    3    0    0 -0.52999594937E-01  0.45251531362E-01  0.11324316746E+00  0.14030334740E+00  0.44770036436E-01 0.  0.
         14    1    1    2    0    0  0.44386144782E-02  0.11882099244E-01 -0.57290123417E-02  0.13917872084E-01  0.00000000000E+00 0. -1.
     999901    1    3    3    0    0  0.48560980459E-01 -0.57133630607E-01 -0.10751415512E+00  0.88970878051E+00  0.88000000000E+00 0.  1.
        -11    1    4    4    0    0 -0.28350175801E-01 -0.13693988022E-02  0.26784910404E-01  0.39029479466E-01  0.51100000000E-03 0. -1.
         11    1    4    4    0    0 -0.24649419136E-01  0.46620930165E-01  0.86458257055E-01  0.10127386794E+00  0.51100000000E-03 0.  1.
</event>
<event>
 8    1  0.2257781E+004  0.1043930E+01  0.7957747E-01            NaN
         13   -1    0    0    0    0  0.00000000000E+00  0.00000000000E+00  0.74505805969E-08  0.10566000000E+00  0.10566000000E+00 0. -1.
     999900   -1    0    0    0    0 -0.00000000000E+00 -0.00000000000E+00 -0.74505805969E-08  0.93827000000E+00  0.93827000000E+00 0. -1.
     999902    2    1    2    0    0  0.54748735965E-02 -0.83514812095E-02 -0.10118478416E-01  0.10297136332E+01  0.10296154920E+01 0.  0.
     999903    2    3    3    0    0  0.99888865022E-01  0.66540010568E-01 -0.56914365123E-01  0.14026852960E+00  0.45062812581E-01 0.  0.
         14    1    1    2    0    0 -0.54748735965E-02  0.83514812095E-02  0.10118478416E-01  0.14216366791E-01  0.00000000000E+00 0. -1.
     999901    1    3    3    0    0 -0.94413991425E-01 -0.74891491778E-01  0.46795886707E-01  0.88944510361E+00  0.88000000000E+00 0.  1.
        -11    1    4    4    0    0  0.37889945946E-01  0.19880236527E-01  0.20035930554E-02  0.42838619426E-01  0.51100000000E-03 0.  1.
         11    1    4    4    0    0  0.61998919075E-01  0.46659774042E-01 -0.58917958178E-01  0.97429910177E-01  0.51100000000E-03 0. -1.
</event>
<event>
 8    1  0.2257781E+004  0.1043930E+01  0.7957747E-01            NaN
         13   -1    0    0    0    0  0.00000000000E+00  0.00000000000E+00  0.74505805969E-08  0.10566000000E+00  0.10566000000E+00 0. -1.
     999900   -1    0    0    0    0 -0.00000000000E+00 -0.00000000000E+00 -0.74505805969E-08  0.93827000000E+00  0.93827000000E+00 0. -1.
     999902    2    1    2    0    0  0.24255598648E-02  0.13558715692E-01 -0.19194211393E-02  0.10300229410E+01  0.10299290523E+01 0.  0.
     999903    2    3    3    0    0 -0.13003171524E+00  0.14001443229E-02 -0.20787227732E-01  0.13982703297E+00  0.47003009901E-01 0.  0.
         14    1    1    2    0    0 -0.24255598648E-02 -0.13558715692E-01  0.19194211393E-02  0.13907058977E-01  0.00000000000E+00 0. -1.
     999901    1    3    3    0    0  0.13245727511E+00  0.12158571370E-01  0.18867806593E-01  0.89019590805E+00  0.88000000000E+00 0. -1.
        -11    1    4    4    0    0 -0.58245881435E-01 -0.15904863156E-01 -0.26125864651E-01  0.65790343524E-01  0.51100000000E-03 0.  1.
         11    1    4    4    0    0 -0.71785833807E-01  0.17305007479E-01  0.53386369190E-02  0.74036689447E-01  0.51100000000E-03 0. -1.
</event>
<event>
 8    1  0.2257781E+004  0.1043930E+01  0.7957747E-01            NaN
         13   -1    0    0    0    0  0.00000000000E+00  0.00000000000E+00  0.74505805969E-08  0.10566000000E+00  0.10566000000E+00 0. -1.
     999900   -1    0    0    0    0 -0.00000000000E+00 -0.00000000000E+00 -0.74505805969E-08  0.93827000000E+00  0.93827000000E+00 0. -1.
     999902    2    1    2    0    0  0.42201194527E-02 -0.12730451920E-01 -0.44455133663E-02  0.10298007253E+01  0.10297037911E+01 0.  0.
     999903    2    3    3    0    0 -0.33932742371E-02 -0.36471418817E-01  0.12687627841E+00  0.13970690426E+00  0.45593315019E-01 0.  0.
         14    1    1    2    0    0 -0.42201194527E-02  0.12730451920E-01  0.44455133663E-02  0.14129274694E-01  0.00000000000E+00 0. -1.
     999901    1    3    3    0    0  0.76133936898E-02  0.23740966896E-01 -0.13132179177E+00  0.89009382105E+00  0.88000000000E+00 0. -1.
        -11    1    4    4    0    0  0.68777595255E-02 -0.44750065059E-01  0.97537530081E-01  0.10753465857E+00  0.51100000000E-03 0.  1.
         11    1    4    4    0    0 -0.10271033763E-01  0.82786462422E-02  0.29338748326E-01  0.32172245686E-01  0.51100000000E-03 0. -1.
</event>
<event>
 8    1  0.2257781E+004  0.1043930E+01  0.7957747E-01            NaN
         13   -1    0    0    0    0  0.00000000000E+00  0.00000000000E+00  0.74505805969E-08  0.10566000000E+00  0.10566000000E+00 0.  1.
     999900   -1    0    0    0    0 -0.00000000000E+00 -0.00000000000E+00 -0.74505805969E-08  0.93827000000E+00  0.93827000000E+00 0. -1.
     999902    2    1    2    0    0  0.15766343431E-01  0.16916282153E-02  0.36764092164E-02  0.10276525562E+01  0.10275236353E+01 0.  0.
     999903    2    3    3    0    0  0.12875419956E+00  0.34154523226E-01 -0.15892178754E-01  0.13961932215E+00  0.38688737510E-01 0.  0.
         14    1    1    2    0    0 -0.15766343431E-01 -0.16916282153E-02 -0.36764092164E-02  0.16277443777E-01  0.00000000000E+00 0. -1.
     999901    1    3    3    0    0 -0.11298785613E+00 -0.32462895010E-01  0.19568587970E-01  0.88803323407E+00  0.88000000000E+00 0. -1.
        -11    1    4    4    0    0  0.56654293920E-01  0.25495553013E-02 -0.21600691460E-01  0.60688221628E-01  0.51100000000E-03 0.  1.
         11    1    4    4    0    0  0.72099905642E-01  0.31604967924E-01  0.57085127067E-02  0.78931100521E-01  0.51100000000E-03 0. -1.
</event>
<event>
 8    1  0.2257781E+004  0.1043930E+01  0.7957747E-01            NaN
         13   -1    0    0    0    0  0.00000000000E+00  0.00000000000E+00  0.74505805969E-08  0.10566000000E+00  0.10566000000E+00 0.  1.
     999900   -1    0    0    0    0 -0.00000000000E+00 -0.00000000000E+00 -0.74505805969E-08  0.93827000000E+00  0.93827000000E+00 0. -1.
     999902    2    1    2    0    0  0.11237898539E-01 -0.99765081784E-03  0.71041893801E-02  0.10305975142E+01  0.10305112717E+01 0.  0.
     999903    2    3    3    0    0  0.58071271012E-01 -0.11706021460E+00  0.29830717740E-01  0.14145164396E+00  0.45203202285E-01 0.  0.
         14    1    1    2    0    0 -0.11237898539E-01  0.99765081784E-03 -0.71041893801E-02  0.13332485795E-01  0.00000000000E+00 0.  1.
     999901    1    3    3    0    0 -0.46833372473E-01  0.11606256379E+00 -0.22726528360E-01  0.88914587025E+00  0.88000000000E+00 0.  1.
        -11    1    4    4    0    0  0.35791118200E-01 -0.71474583617E-01  0.40483904839E-01  0.89603727140E-01  0.51100000000E-03 0.  1.
         11    1    4    4    0    0  0.22280152812E-01 -0.45585630987E-01 -0.10653187100E-01  0.51847916816E-01  0.51100000000E-03 0. -1.
</event>
<event>
 8    1  0.2257781E+004  0.1043930E+01  0.7957747E-01            NaN
         13   -1    0    0    0    0  0.00000000000E+00  0.00000000000E+00  0.74505805969E-08  0.10566000000E+00  0.10566000000E+00 0. -1.
     999900   -1    0    0    0    0 -0.00000000000E+00 -0.00000000000E+00 -0.74505805969E-08  0.93827000000E+00  0.93827000000E+00 0.  1.
     999902    2    1    2    0    0 -0.75368798643E-03 -0.10215971915E-02  0.12177289671E-01  0.10316867124E+01  0.10316140628E+01 0.  0.
     999903    2    3    3    0    0  0.12572671699E+00  0.99011226342E-02  0.46701871806E-01  0.14190665792E+00  0.45290121858E-01 0.  0.
         14    1    1    2    0    0  0.75368798643E-03  0.10215971915E-02 -0.12177289671E-01  0.12243287554E-01  0.00000000000E+00 0.  1.
     999901    1    3    3    0    0 -0.12648040498E+00 -0.10922719826E-01 -0.34524582135E-01  0.88978005452E+00  0.88000000000E+00 0.  1.
        -11    1    4    4    0    0  0.35151582465E-01  0.22002750688E-01  0.61307963031E-02  0.41923770965E-01  0.51100000000E-03 0. -1.
         11    1    4    4    0    0  0.90575134528E-01 -0.12101628053E-01  0.40571075503E-01  0.99982886959E-01  0.51100000000E-03 0.  1.
</event>
<event>
 8    1  0.2257781E+004  0.1043930E+01  0.7957747E-01            NaN
         13   -1    0    0    0    0  0.00000000000E+00  0.00000000000E+00  0.74505805969E-08  0.10566000000E+00  0.10566000000E+00 0.  1.
     999900   -1    0    0    0    0 -0.00000000000E+00 -0.00000000000E+00 -0.74505805969E-08  0.93827000000E+00  0.93827000000E+00 0.  1.
     999902    2    1    2    0    0 -0.34009373357E-02  0.14157173966E-01 -0.24435077460E-02  0.10291664408E+01  0.10290605426E+01 0.  0.
     999903    2    3    3    0    0 -0.15125219350E-01 -0.69797930098E-01 -0.10957931530E+00  0.13862503272E+00  0.45921128564E-01 0.  0.
         14    1    1    2    0    0  0.34009373357E-02 -0.14157173966E-01  0.24435077460E-02  0.14763559177E-01  0.00000000000E+00 0.  1.
     999901    1    3    3    0    0  0.11724282015E-01  0.83955104065E-01  0.10713580755E+00  0.89054140810E+00  0.88000000000E+00 0. -1.
        -11    1    4    4    0    0 -0.11739923447E-01 -0.58480402853E-02 -0.48067585835E-01  0.49827495489E-01  0.51100000000E-03 0.  1.
         11    1    4    4    0    0 -0.33852959036E-02 -0.63949889813E-01 -0.61511729464E-01  0.88797537230E-01  0.51100000000E-03 0. -1.
</event>
<event>
 8    1  0.2257781E+004  0.1043930E+01  0.7957747E-01            NaN
         13   -1    0    0    0    0  0.00000000000E+00  0.00000000000E+00  0.74505805969E-08  0.10566000000E+00  0.10566000000E+00 0.  1.
     999900   -1    0    0    0    0 -0.00000000000E+00 -0.00000000000E+00 -0.74505805969E-08  0.93827000000E+00  0.93827000000E+00 0. -1.
     999902    2    1    2    0    0  0.99941408862E-02  0.75666103305E-02  0.40736557691E-02  0.10307492900E+01  0.10306650124E+01 0.  0.
     999903    2    3    3    0    0 -0.85103175904E-02  0.11793403301E+00 -0.62262399246E-01  0.14118543332E+00  0.45561590990E-01 0.  0.
         14    1    1    2    0    0 -0.99941408862E-02 -0.75666103305E-02 -0.40736557691E-02  0.13180709968E-01  0.00000000000E+00 0. -1.
     999901    1    3    3    0    0  0.18504458477E-01 -0.11036742268E+00  0.66336055015E-01  0.88956385671E+00  0.88000000000E+00 0. -1.
        -11    1    4    4    0    0 -0.60857912612E-02  0.12046368291E+00 -0.53918308640E-01  0.13212108417E+00  0.51100000000E-03 0. -1.
         11    1    4    4    0    0 -0.24245263292E-02 -0.25296498916E-02 -0.83440906054E-02  0.90643491507E-02  0.51100000000E-03 0.  1.
</event>
<event>
 8    1  0.2257781E+004  0.1043930E+01  0.7957747E-01            NaN
         13   -1    0    0    0    0  0.00000000000E+00  0.00000000000E+00  0.74505805969E-08  0.10566000000E+00  0.10566000000E+00 0. -1.
     999900   -1    0    0    0    0 -0.00000000000E+00 -0.00000000000E+00 -0.74505805969E-08  0.93827000000E+00  0.93827000000E+00 0. -1.
     999902    2    1    2    0    0 -0.11105882372E-01 -0.74702029610E-02  0.36763433444E-03  0.10305404626E+01  0.10304534756E+01 0.  0.
     999903    2    3    3    0    0  0.10925694354E+00 -0.36357115440E-01  0.64461249210E-01  0.13956927622E+00  0.45446789335E-01 0.  0.
         14    1    1    2    0    0  0.11105882372E-01  0.74702029610E-02 -0.36763433444E-03  0.13389537353E-01  0.00000000000E+00 0.  1.
     999901    1    3    3    0    0 -0.12036282591E+00  0.28886912479E-01 -0.64093614876E-01  0.89097118643E+00  0.88000000000E+00 0.  1.
        -11    1    4    4    0    0  0.43884790563E-01  0.55256111233E-02  0.35448747188E-01  0.56685818502E-01  0.51100000000E-03 0. -1.
         11    1    4    4    0    0  0.65372152974E-01 -0.41882726563E-01  0.29012502022E-01  0.82883457719E-01  0.51100000000E-03 0.  1.
</event>
<event>
 8    1  0.2257781E+004  0.1043930E+01  0.7957747E-01            NaN
         13   -1    0    0    0    0  0.00000000000E+00  0.00000000000E+00  0.74505805969E-08  0.10566000000E+00  0.10566000000E+00 0.  1.
     999900   -1    0    0    0    0 -0.00000000000E+00 -0.00000000000E+00 -0.74505805969E-08  0.93827000000E+00  0.93827000000E+00 0. -1.
     999902    2    1    2    0    0 -0.47616122006E-02  0.12117710835E-01 -0.34863693554E-02  0.10304516233E+01  0.10303634705E+01 0.  0.
     999903    2    3    3    0    0  0.10612873710E+00  0.56625305419E-01  0.56525701627E-01  0.14035104237E+00  0.45094634921E-01 0.  0.
         14    1    1    2    0    0  0.47616122006E-02 -0.12117710835E-01  0.34863693554E-02  0.13478376679E-01  0.00000000000E+00 0.  1.
     999901    1    3    3    0    0 -0.11089034930E+00 -0.44507594584E-01 -0.60012070982E-01  0.89010058095E+00  0.88000000000E+00 0. -1.
        -11    1    4    4    0    0  0.80136605266E-01  0.62194623923E-01  0.49374384577E-01  0.11281904858E+00  0.51100000000E-03 0.  1.
         11    1    4    4    0    0  0.25992131831E-01 -0.55693185042E-02  0.71513170497E-02  0.27531993794E-01  0.51100000000E-03 0. -1.
</event>
<event>
 8    1  0.2257781E+004  0.1043930E+01  0.7957747E-01            NaN
         13   -1    0    0    0    0  0.00000000000E+00  0.00000000000E+00  0.74505805969E-08  0.10566000000E+00  0.10566000000E+00 0. -1.
     999900   -1    0    0    0    0 -0.00000000000E+00 -0.00000000000E+00 -0.74505805969E-08  0.93827000000E+00  0.93827000000E+00 0. -1.
     999902    2    1    2    0    0  0.10370325693E-01  0.96194099035E-02 -0.42057772384E-02  0.10291731282E+01  0.10290673266E+01 0.  0.
     999903    2    3    3    0    0 -0.71078698361E-01  0.23732381684E-01 -0.10943518474E+00  0.13905721012E+00  0.41778472033E-01 0.  0.
         14    1    1    2    0    0 -0.10370325693E-01 -0.96194099035E-02  0.42057772384E-02  0.14756871757E-01  0.00000000000E+00 0.  1.
     999901    1    3    3    0    0  0.81449024054E-01 -0.14112971781E-01  0.10522940751E+00  0.89011591812E+00  0.88000000000E+00 0. -1.
        -11    1    4    4    0    0 -0.49145334353E-01 -0.40516142360E-02 -0.74325647035E-01  0.89197771243E-01  0.51100000000E-03 0. -1.
         11    1    4    4    0    0 -0.21933364008E-01  0.27783995920E-01 -0.35109537709E-01  0.49859438877E-01  0.51100000000E-03 0.  1.
</event>
<event>
 8    1  0.2257781E+004  0.1043930E+01  0.7957747E-01            NaN
         13   -1    0    0    0    0  0.00000000000E+00  0.00000000000E+00  0.74505805969E-08  0.10566000000E+00  0.10566000000E+00 0.  1.
     999900   -1    0    0    0    0 -0.00000000000E+00 -0.00000000000E+00 -0.74505805969E-08  0.93827000000E+00  0.93827000000E+00 0. -1.
     999902    2    1    2    0    0 -0.26434004035E-02  0.13914049892E-01  0.32111377402E-02  0.10294076119E+01  0.10293051694E+01 0.  0.
     999903    2    3    3    0    0  0.12131531555E+00  0.14531151671E-01  0.50462940342E-01  0.13946442445E+00  0.44443865519E-01 0.  0.
         14    1    1    2    0    0  0.26434004035E-02 -0.13914049892E-01 -0.32111377402E-02  0.14522388084E-01  0.00000000000E+00 0. -1.
     999901    1    3    3    0    0 -0.12395871595E+00 -0.61710177945E-03 -0.47251802602E-01  0.88994318747E+00  0.88000000000E+00 0. -1.
        -11    1    4    4    0    0  0.10839716151E+00 -0.26955990128E-02  0.40732579190E-01  0.11583011269E+00  0.51100000000E-03 0. -1.
         11    1    4    4    0    0  0.12918154036E-01  0.17226750684E-01  0.97303611517E-02  0.23634311751E-01  0.51100000000E-03 0.  1.
</event>
<event>
 8    1  0.2257781E+004  0.1043930E+01  0.7957747E-01            NaN
         13   -1    0    0    0    0  0.00000000000E+00  0.00000000000E+00  0.74505805969E-08  0.10566000000E+00  0.10566000000E+00 0. -1.
     999900   -1    0    0    0    0 -0.00000000000E+00 -0.00000000000E+00 -0.74505805969E-08  0.93827000000E+00  0.93827000000E+00 0.  1.
     999902    2    1    2    0    0  0.21238068594E-02 -0.60382402046E-02 -0.12221311366E-01  0.10301339371E+01  0.10300415511E+01 0.  0.
     999903    2    3    3    0    0  0.73291285180E-01  0.36376080602E-02 -0.11198123708E+00  0.14158991748E+00  0.46076703424E-01 0.  0.
         14    1    1    2    0    0 -0.21238068594E-02  0.60382402046E-02  0.12221311366E-01  0.13796062912E-01  0.00000000000E+00 0. -1.
     999901    1    3    3    0    0 -0.71167478321E-01 -0.96758482649E-02  0.99759925709E-01  0.88854401961E+00  0.88000000000E+00 0.  1.
        -11    1    4    4    0    0  0.75669435795E-02 -0.11506295596E-01 -0.41332875361E-02  0.14387448013E-01  0.51100000000E-03 0.  1.
         11    1    4    4    0    0  0.65724341601E-01  0.15143903656E-01 -0.10784794954E+00  0.12720246946E+00  0.51100000000E-03 0. -1.
</event>
<event>
 8    1  0.2257781E+004  0.1043930E+01  0.7957747E-01            NaN
         13   -1    0    0    0    0  0.00000000000E+00  0.00000000000E+00  0.74505805969E-08  0.10566000000E+00  0.10566000000E+00 0.  1.
     999900   -1    0    0    0    0 -0.00000000000E+00 -0.00000000000E+00 -0.74505805969E-08  0.93827000000E+00  0.93827000000E+00 0.  1.
     999902    2    1    2    0    0 -0.29227360341E-02 -0.91631560364E-02  0.10486684835E-01  0.10297005807E+01  0.10296022579E+01 0.  0.
     999903    2    3    3    0    0  0.11523944974E+00  0.10714337778E-01 -0.61896750625E-01  0.13863561190E+00  0.44650838049E-01 0.  0.
         14    1    1    2    0    0  0.29227360341E-02  0.91631560364E-02 -0.10486684835E-01  0.14229419289E-01  0.00000000000E+00 0. -1.
     999901    1    3    3    0    0 -0.11816218578E+00 -0.19877493815E-01  0.72383435460E-01  0.89106496881E+00  0.88000000000E+00 0.  1.
        -11    1    4    4    0    0  0.23943562031E-01  0.16226500698E-01 -0.13747072288E-02  0.28961084728E-01  0.51100000000E-03 0.  1.
         11    1    4    4    0    0  0.91295887712E-01 -0.55121629193E-02 -0.60522043396E-01  0.10967452717E+00  0.51100000000E-03 0. -1.
</event>
<event>
 8    1  0.2257781E+004  0.1043930E+01  0.7957747E-01            NaN
         13   -1    0    0    0    0  0.00000000000E+00  0.00000000000E+00  0.74505805969E-08  0.10566000000E+00  0.10566000000E+00 0.  1.
     999900   -1    0    0    0    0 -0.00000000000E+00 -0.00000000000E+00 -0.74505805969E-08  0.93827000000E+00  0.93827000000E+00 0. -1.
     999902    2    1    2    0    0  0.11548275816E-01 -0.45342759776E-02  0.58541039127E-02  0.10302116595E+01  0.10301203185E+01 0.  0.
     999903    2    3    3    0    0  0.59040751353E-01  0.56558708080E-02  0.12021663657E+00  0.14148326276E+00  0.45251240190E-01 0.  0.
         14    1    1    2    0    0 -0.11548275816E-01  0.45342759776E-02 -0.58541039127E-02  0.13718340482E-01  0.00000000000E+00 0.  1.
     999901    1    3    3    0    0 -0.47492475537E-01 -0.10190146786E-01 -0.11436253266E+00  0.88872839676E+00  0.88000000000E+00 0. -1.
        -11    1    4    4    0    0  0.54716397155E-02 -0.10958890424E-01  0.50697488069E-01  0.52158724467E-01  0.51100000000E-03 0.  1.
         11    1    4    4    0    0  0.53569111637E-01  0.16614761232E-01  0.69519148501E-01  0.89324538295E-01  0.51100000000E-03 0. -1.
</event>
<event>
 8    1  0.2257781E+004  0.1043930E+01  0.7957747E-01            NaN
         13   -1    0    0    0    0  0.00000000000E+00  0.00000000000E+00  0.74505805969E-08  0.10566000000E+00  0.10566000000E+00 0. -1.
     999900   -1    0    0    0    0 -0.00000000000E+00 -0.00000000000E+00 -0.74505805969E-08  0.93827000000E+00  0.93827000000E+00 0. -1.
     999902    2    1    2    0    0  0.42282349754E-02 -0.31358724071E-02  0.13148966390E-01  0.10297664205E+01  0.10296690118E+01 0.  0.
     999903    2    3    3    0    0 -0.92859117371E-01 -0.30255817691E-01  0.90528186256E-01  0.14063820193E+00  0.45227438038E-01 0.  0.
         14    1    1    2    0    0 -0.42282349754E-02  0.31358724071E-02 -0.13148966390E-01  0.14163579487E-01  0.00000000000E+00 0.  1.
     999901    1    3    3    0    0  0.97087352346E-01  0.27119945284E-01 -0.77379219866E-01  0.88912821859E+00  0.88000000000E+00 0. -1.
        -11    1    4    4    0    0 -0.24370875002E-01 -0.69434494976E-02  0.53864238222E-01  0.59529558368E-01  0.51100000000E-03 0. -1.
         11    1    4    4    0    0 -0.68488242369E-01 -0.23312368194E-01  0.36663948034E-01  0.81108643559E-01  0.51100000000E-03 0.  1.
</event>
<event>
 8    1  0.2257781E+004  0.1043930E+01  0.7957747E-01            NaN
         13   -1    0    0    0    0  0.00000000000E+00  0.00000000000E+00  0.74505805969E-08  0.10566000000E+00  0.10566000000E+00 0. -1.
     999900   -1    0    0    0    0 -0.00000000000E+00 -0.00000000000E+00 -0.74505805969E-08  0.93827000000E+00  0.93827000000E+00 0.  1.
     999902    2    1    2    0    0  0.10085702283E-02  0.13356158952E-01  0.65689230843E-02  0.10290117244E+01  0.10289035786E+01 0.  0.
     999903    2    3    3    0    0  0.87321030027E-01  0.85684574723E-01 -0.50818030871E-01  0.13998163329E+00  0.45228052874E-01 0.  0.
         14    1    1    2    0    0 -0.10085702283E-02 -0.13356158952E-01 -0.65689230843E-02  0.14918275582E-01  0.00000000000E+00 0. -1.
     999901    1    3    3    0    0 -0.86312459799E-01 -0.72328415771E-01  0.57386953955E-01  0.88903009113E+00  0.88000000000E+00 0. -1.
        -11    1    4    4    0    0  0.62296933412E-01  0.29972663901E-01 -0.31044172649E-01  0.75784366926E-01  0.51100000000E-03 0. -1.
         11    1    4    4    0    0  0.25024096616E-01  0.55711910822E-01 -0.19773858221E-01  0.64197266365E-01  0.51100000000E-03 0.  1.
</event>
<event>
 8    1  0.2257781E+004  0.1043930E+01  0.7957747E-01            NaN
         13   -1    0    0    0    0  0.00000000000E+00  0.00000000000E+00  0.74505805969E-08  0.10566000000E+00  0.10566000000E+00 0.  1.
     999900   -1    0    0    0    0 -0.00000000000E+00 -0.00000000000E+00 -0.74505805969E-08  0.93827000000E+00  0.93827000000E+00 0.  1.
     999902    2    1    2    0    0 -0.25710088121E-02  0.42890699243E-02  0.94858851615E-02  0.10332067438E+01  0.10331510960E+01 0.  0.
     999903    2    3    3    0    0 -0.83786340735E-01  0.49185054288E-01 -0.93669142035E-01  0.14233495770E+00  0.45232859252E-01 0.  0.
         14    1    1    2    0    0  0.25710088121E-02 -0.42890699243E-02 -0.94858851615E-02  0.10723256242E-01  0.00000000000E+00 0. -1.
     999901    1    3    3    0    0  0.81215331923E-01 -0.44895984364E-01  0.10315502720E+00  0.89087178605E+00  0.88000000000E+00 0.  1.
        -11    1    4    4    0    0 -0.42763689998E-01  0.31304022148E-01 -0.21036418842E-01  0.57021636451E-01  0.51100000000E-03 0.  1.
         11    1    4    4    0    0 -0.41022650737E-01  0.17881032141E-01 -0.72632723192E-01  0.85313321253E-01  0.51100000000E-03 0. -1.
</event>
<event>
 8    1  0.2257781E+004  0.1043930E+01  0.7957747E-01            NaN
         13   -1    0    0    0    0  0.00000000000E+00  0.00000000000E+00  0.74505805969E-08  0.10566000000E+00  0.10566000000E+00 0.  1.
     999900   -1    0    0    0    0 -0.00000000000E+00 -0.00000000000E+00 -0.74505805969E-08  0.93827000000E+00  0.93827000000E+00 0.  1.
     999902    2    1    2    0    0  0.75613494758E-02  0.14666786093E-01 -0.12041861334E-01  0.10235021992E+01  0.10232983225E+01 0.  0.
     999903    2    3    3    0    0  0.11949102192E+00 -0.22526071355E-01 -0.39708110242E-01  0.13520214769E+00  0.43787652511E-01 0.  0.
         14    1    1    2    0    0 -0.75613494758E-02 -0.14666786093E-01  0.12041861334E-01  0.20427800777E-01  0.00000000000E+00 0.  1.
     999901    1    3    3    0    0 -0.11192967244E+00  0.37192857448E-01  0.27666248908E-01  0.88830005153E+00  0.88000000000E+00 0.  1.
        -11    1    4    4    0    0  0.79989338130E-01 -0.32376919330E-01 -0.15034950930E-01  0.87594919888E-01  0.51100000000E-03 0. -1.
         11    1    4    4    0    0  0.39501683788E-01  0.98508479752E-02 -0.24673159312E-01  0.47607227806E-01  0.51100000000E-03 0.  1.
</event>
<event>
 8    1  0.2257781E+004  0.1043930E+01  0.7957747E-01            NaN
         13   -1    0    0    0    0  0.00000000000E+00  0.00000000000E+00  0.74505805969E-08  0.10566000000E+00  0.10566000000E+00 0.  1.
     999900   -1    0    0    0    0 -0.00000000000E+00 -0.00000000000E+00 -0.74505805969E-08  0.93827000000E+00  0.93827000000E+00 0.  1.
     999902    2    1    2    0    0 -0.70309672317E-02  0.26593531333E-02  0.10555863829E-01  0.10309711065E+01  0.10308896592E+01 0.  0.
     999903    2    3    3    0    0 -0.10366083953E+00  0.57290394810E-01 -0.58111113436E-01  0.14134363577E+00  0.50728324218E-01 0.  0.
         14    1    1    2    0    0  0.70309672317E-02 -0.26593531333E-02 -0.10555863829E-01  0.12958893490E-01  0.00000000000E+00 0.  1.
     999901    1    3    3    0    0  0.96629872296E-01 -0.54631041676E-01  0.68666977265E-01  0.88962747074E+00  0.88000000000E+00 0. -1.
        -11    1    4    4    0    0 -0.45296395279E-01 -0.21710036266E-02 -0.17001815894E-01  0.48433454829E-01  0.51100000000E-03 0.  1.
         11    1    4    4    0    0 -0.58364444249E-01  0.59461398436E-01 -0.41109297542E-01  0.92910180938E-01  0.51100000000E-03 0. -1.
</event>
<event>
 8    1  0.2257781E+004  0.1043930E+01  0.7957747E-01            NaN
         13   -1    0    0    0    0  0.00000000000E+00  0.00000000000E+00  0.74505805969E-08  0.10566000000E+00  0.10566000000E+00 0. -1.
     999900   -1    0    0    0    0 -0.00000000000E+00 -0.00000000000E+00 -0.74505805969E-08  0.93827000000E+00  0.93827000000E+00 0.  1.
     999902    2    1    2    0    0 -0.82498099880E-02 -0.70978527796E-02  0.64454506067E-02  0.10312815727E+01  0.10312040048E+01 0.  0.
     999903    2    3    3    0    0  0.65702672918E-01  0.10329844515E+00 -0.49342641739E-01  0.13955929333E+00  0.45328689166E-01 0.  0.
         14    1    1    2    0    0  0.82498099880E-02  0.70978527796E-02 -0.64454506067E-02  0.12648427272E-01  0.00000000000E+00 0. -1.
     999901    1    3    3    0    0 -0.73952482906E-01 -0.11039629793E+00  0.55788092345E-01  0.89172227940E+00  0.88000000000E+00 0. -1.
        -11    1    4    4    0    0  0.24792504930E-01  0.51317813613E-01 -0.46141570991E-01  0.73331384749E-01  0.51100000000E-03 0.  1.
         11    1    4    4    0    0  0.40910167988E-01  0.51980631542E-01 -0.32010707480E-02  0.66227908582E-01  0.51100000000E-03 0. -1.
</event>
<event>
 8    1  0.2257781E+004  0.1043930E+01  0.7957747E-01            NaN
         13   -1    0    0    0    0  0.00000000000E+00  0.00000000000E+00  0.74505805969E-08  0.10566000000E+00  0.10566000000E+00 0.  1.
     999900   -1    0    0    0    0 -0.00000000000E+00 -0.00000000000E+00 -0.74505805969E-08  0.93827000000E+00  0.93827000000E+00 0. -1.
     999902    2    1    2    0    0  0.32859493465E-02  0.15949286584E-02  0.13064670675E-01  0.10303643492E+01  0.10302750435E+01 0.  0.
     999903    2    3    3    0    0 -0.88483111301E-01 -0.77306165335E-01 -0.58024977834E-01  0.13924107986E+00  0.47070968571E-01 0.  0.
         14    1    1    2    0    0 -0.32859493465E-02 -0.15949286584E-02 -0.13064670675E-01  0.13565650754E-01  0.00000000000E+00 0. -1.
     999901    1    3    3    0    0  0.91769060648E-01  0.78901093993E-01  0.71089648509E-01  0.89112326939E+00  0.88000000000E+00 0. -1.
        -11    1    4    4    0    0 -0.48427482445E-01 -0.67995767914E-01 -0.27044595954E-01  0.87751449000E-01  0.51100000000E-03 0. -1.
         11    1    4    4    0    0 -0.40055628856E-01 -0.93103974209E-02 -0.30980381880E-01  0.51489630856E-01  0.51100000000E-03 0.  1.
</event>
<event>
 8    1  0.2257781E+004  0.1043930E+01  0.7957747E-01            NaN
         13   -1    0    0    0    0  0.00000000000E+00  0.00000000000E+00  0.74505805969E-08  0.10566000000E+00  0.10566000000E+00 0.  1.
     999900   -1    0    0    0    0 -0.00000000000E+00 -0.00000000000E+00 -0.74505805969E-08  0.93827000000E+00  0.93827000000E+00 0.  1.
     999902    2    1    2    0    0 -0.56684903404E-02  0.12472389600E-01  0.19300529457E-03  0.10302285572E+01  0.10301374425E+01 0.  0.
     999903    2    3    3    0    0 -0.13378751225E+00  0.91094364177E-02 -0.11329277551E-01  0.14087004888E+00  0.41640579687E-01 0.  0.
         14    1    1    2    0    0  0.56684903404E-02 -0.12472389600E-01 -0.19300529457E-03  0.13701442848E-01  0.00000000000E+00 0.  1.
     999901    1    3    3    0    0  0.12811902191E+00  0.33629531821E-02  0.11522282846E-01  0.88935850827E+00  0.88000000000E+00 0. -1.
        -11    1    4    4    0    0 -0.12141375758E+00  0.37558871753E-02 -0.22272707530E-01  0.12349794265E+00  0.51100000000E-03 0.  1.
         11    1    4    4    0    0 -0.12373754670E-01  0.53535492424E-02  0.10943429979E-01  0.17372106229E-01  0.51100000000E-03 0. -1.
</event>
<event>
 8    1  0.2257781E+004  0.1043930E+01  0.7957747E-01            NaN
         13   -1    0    0    0    0  0.00000000000E+00  0.00000000000E+00  0.74505805969E-08  0.10566000000E+00  0.10566000000E+00 0.  1.
     999900   -1    0    0    0    0 -0.00000000000E+00 -0.00000000000E+00 -0.74505805969E-08  0.93827000000E+00  0.93827000000E+00 0.  1.
     999902    2    1    2    0    0 -0.67822021603E-02 -0.11874642291E-01 -0.51861080021E-02  0.10293046415E+01  0.10292007306E+01 0.  0.
     999903    2    3    3    0    0 -0.85396801583E-01  0.14641000763E-01  0.98990167563E-01  0.13928439960E+00  0.45761534863E-01 0.  0.
         14    1    1    2    0    0  0.67822021603E-02  0.11874642291E-01  0.51861080021E-02  0.14625358521E-01  0.00000000000E+00 0. -1.
     999901    1    3    3    0    0  0.78614599422E-01 -0.26515643053E-01 -0.10417627556E+00  0.89002024188E+00  0.88000000000E+00 0.  1.
        -11    1    4    4    0    0 -0.56454091541E-01  0.14278172712E-01  0.32323125795E-01  0.66603124926E-01  0.51100000000E-03 0.  1.
         11    1    4    4    0    0 -0.28942710042E-01  0.36282805063E-03  0.66667041767E-01  0.72681274671E-01  0.51100000000E-03 0. -1.
</event>
<event>
 8    1  0.2257781E+004  0.1043930E+01  0.7957747E-01            NaN
         13   -1    0    0    0    0  0.00000000000E+00  0.00000000000E+00  0.74505805969E-08  0.10566000000E+00  0.10566000000E+00 0.  1.
     999900   -1    0    0    0    0 -0.00000000000E+00 -0.00000000000E+00 -0.74505805969E-08  0.93827000000E+00  0.93827000000E+00 0. -1.
     999902    2    1    2    0    0 -0.27579020442E-02  0.12786389477E-01  0.29624842366E-04  0.10308495315E+01  0.10307665390E+01 0.  0.
     999903    2    3    3    0    0 -0.20357667950E-01 -0.86051460927E-01 -0.98300884435E-01  0.13969995845E+00  0.45096850631E-01 0.  0.
         14    1    1    2    0    0  0.27579020442E-02 -0.12786389477E-01 -0.29624842366E-04  0.13080468538E-01  0.00000000000E+00 0.  1.
     999901    1    3    3    0    0  0.17599765906E-01  0.98837850404E-01  0.98330509278E-01  0.89114957302E+00  0.88000000000E+00 0. -1.
        -11    1    4    4    0    0 -0.22348718758E-01 -0.29646498710E-01 -0.62999671875E-01  0.73127285559E-01  0.51100000000E-03 0.  1.
         11    1    4    4    0    0  0.19910508080E-02 -0.56404962217E-01 -0.35301212560E-01  0.66572672886E-01  0.51100000000E-03 0. -1.
</event>
<event>
 8    1  0.2257781E+004  0.1043930E+01  0.7957747E-01            NaN
         13   -1    0    0    0    0  0.00000000000E+00  0.00000000000E+00  0.74505805969E-08  0.10566000000E+00  0.10566000000E+00 0.  1.
     999900   -1    0    0    0    0 -0.00000000000E+00 -0.00000000000E+00 -0.74505805969E-08  0.93827000000E+00  0.93827000000E+00 0.  1.
     999902    2    1    2    0    0 -0.72136709646E-02 -0.68343338966E-02 -0.35783826546E-02  0.10333682771E+01  0.10333143017E+01 0.  0.
     999903    2    3    3    0    0  0.47103888483E-01  0.10910016537E+00 -0.62230972778E-01  0.14217170409E+00  0.47100712075E-01 0.  0.
         14    1    1    2    0    0  0.72136709646E-02  0.68343338966E-02  0.35783826546E-02  0.10561722919E-01  0.00000000000E+00 0. -1.
     999901    1    3    3    0    0 -0.54317559447E-01 -0.11593449926E+00  0.58652590124E-01  0.89119657299E+00  0.88000000000E+00 0. -1.
        -11    1    4    4    0    0  0.40956965464E-01  0.46272484605E-01 -0.45857632209E-01  0.76953228681E-01  0.51100000000E-03 0.  1.
         11    1    4    4    0    0  0.61469230185E-02  0.62827680760E-01 -0.16373340569E-01  0.65218475409E-01  0.51100000000E-03 0. -1.
</event>
<event>
 8    1  0.2257781E+004  0.1043930E+01  0.7957747E-01            NaN
         13   -1    0    0    0    0  0.00000000000E+00  0.00000000000E+00  0.74505805969E-08  0.10566000000E+00  0.10566000000E+00 0.  1.
     999900   -1    0    0    0    0 -0.00000000000E+00 -0.00000000000E+00 -0.74505805969E-08  0.93827000000E+00  0.93827000000E+00 0. -1.
     999902    2    1    2    0    0 -0.53049400936E-02  0.79528447402E-02  0.11048783848E-01  0.10293195327E+01  0.10292158349E+01 0.  0.
     999903    2    3    3    0    0 -0.11476805585E+00 -0.64421545843E-01 -0.10669985629E-01  0.13932406586E+00  0.44446648065E-01 0.  0.
         14    1    1    2    0    0  0.53049400936E-02 -0.79528447402E-02 -0.11048783848E-01  0.14610467254E-01  0.00000000000E+00 0. -1.
     999901    1    3    3    0    0  0.10946311575E+00  0.72374390583E-01  0.21718769478E-01  0.88999546688E+00  0.88000000000E+00 0. -1.
        -11    1    4    4    0    0 -0.66536465570E-01 -0.58458839661E-01 -0.17384938984E-01  0.90260924046E-01  0.51100000000E-03 0. -1.
         11    1    4    4    0    0 -0.48231590276E-01 -0.59627061812E-02  0.67149533546E-02  0.49063141818E-01  0.51100000000E-03 0.  1.
</event>
<event>
 8    1  0.2257781E+004  0.1043930E+01  0.7957747E-01            NaN
         13   -1    0    0    0    0  0.00000000000E+00  0.00000000000E+00  0.74505805969E-08  0.10566000000E+00  0.10566000000E+00 0. -1.
     999900   -1    0    0    0    0 -0.00000000000E+00 -0.00000000000E+00 -0.74505805969E-08  0.93827000000E+00  0.93827000000E+00 0. -1.
     999902    2    1    2    0    0 -0.57302319767E-02  0.11028208326E-02  0.11337398098E-01  0.10311789856E+01  0.10311001464E+01 0.  0.
     999903    2    3    3    0    0 -0.12015305076E+00 -0.30194006106E-01 -0.51605072219E-01  0.14099146188E+00  0.43209665955E-01 0.  0.
         14    1    1    2    0    0  0.57302319767E-02 -0.11028208326E-02 -0.11337398098E-01  0.12751014388E-01  0.00000000000E+00 0.  1.
     999901    1    3    3    0    0  0.11442281879E+00  0.31296826939E-01  0.62942470317E-01  0.89018752373E+00  0.88000000000E+00 0.  1.
        -11    1    4    4    0    0 -0.52652600352E-01 -0.35488387465E-01 -0.24825191369E-01  0.68178245916E-01  0.51100000000E-03 0. -1.
         11    1    4    4    0    0 -0.67500450412E-01  0.52943813589E-02 -0.26779880850E-01  0.72813215965E-01  0.51100000000E-03 0.  1.
</event>
<event>
 8    1  0.2257781E+004  0.1043930E+01  0.7957747E-01            NaN
         13   -1    0    0    0    0  0.00000000000E+00  0.00000000000E+00  0.74505805969E-08  0.10566000000E+00  0.10566000000E+00 0.  1.
     999900   -1    0    0    0    0 -0.00000000000E+00 -0.00000000000E+00 -0.74505805969E-08  0.93827000000E+00  0.93827000000E+00 0.  1.
     999902    2    1    2    0    0 -0.94478791039E-02 -0.12220684852E-01 -0.58324780515E-02  0.10274186294E+01  0.10272859459E+01 0.  0.
     999903    2    3    3    0    0 -0.48191095661E-01 -0.36433249215E-01 -0.11719323885E+00  0.13922467305E+00  0.44715668455E-01 0.  0.
         14    1    1    2    0    0  0.94478791039E-02  0.12220684852E-01  0.58324780515E-02  0.16511370568E-01  0.00000000000E+00 0.  1.
     999901    1    3    3    0    0  0.38743216557E-01  0.24212564363E-01  0.11136076080E+00  0.88819395638E+00  0.88000000000E+00 0. -1.
        -11    1    4    4    0    0 -0.17842829176E-01 -0.24286670377E-01 -0.95111733082E-01  0.99773302050E-01  0.51100000000E-03 0.  1.
         11    1    4    4    0    0 -0.30348266485E-01 -0.12146578838E-01 -0.22081505767E-01  0.39451371003E-01  0.51100000000E-03 0. -1.
</event>
<event>
 8    1  0.2257781E+004  0.1043930E+01  0.7957747E-01            NaN
         13   -1    0    0    0    0  0.00000000000E+00  0.00000000000E+00  0.74505805969E-08  0.10566000000E+00  0.10566000000E+00 0. -1.
     999900   -1    0    0    0    0 -0.00000000000E+00 -0.00000000000E+00 -0.74505805969E-08  0.93827000000E+00  0.93827000000E+00 0.  1.
     999902    2    1    2    0    0  0.46744715379E-02 -0.18891567963E-01  0.10544822358E-01  0.10217955178E+01  0.10215557473E+01 0.  0.
     999903    2    3    3    0    0  0.71917053599E-01  0.41388987325E-01 -0.91157658470E-01  0.13134692028E+00  0.45356189217E-01 0.  0.
         14    1    1    2    0    0 -0.46744715379E-02  0.18891567963E-01 -0.10544822358E-01  0.22134482213E-01  0.00000000000E+00 0. -1.
     999901    1    3    3    0    0 -0.67242582061E-01 -0.60280555289E-01  0.10170248083E+00  0.89044859750E+00  0.88000000000E+00 0. -1.
        -11    1    4    4    0    0 -0.29733825328E-02  0.72706772040E-02 -0.23579862668E-01  0.24859098840E-01  0.51100000000E-03 0.  1.
         11    1    4    4    0    0  0.74890436131E-01  0.34118310121E-01 -0.67577795802E-01  0.10648782144E+00  0.51100000000E-03 0. -1.
</event>
<event>
 7    1  0.2257781E+004  0.1043930E+01  0.7957747E-01            NaN
         13   -1    0    0    0    0  0.00000000000E+00  0.00000000000E+00  0.74505805969E-08  0.10566000000E+00  0.10566000000E+00 0. -1.
     999900   -1    0    0    0    0 -0.00000000000E+00 -0.00000000000E+00 -0.74505805969E-08  0.93827000000E+00  0.93827000000E+00 0.  1.
     999903    2    1    2    0    0 -0.50094579733E-01  0.17184400924E-01  0.10612052597E+00  0.12686206293E+00  0.45029395125E-01 0.  0.
         14    1    1    2    0    0 -0.81386111509E-02  0.22252554654E-01 -0.18234035683E-01  0.29898047385E-01  0.00000000000E+00 0. -1.
     999901    1    1    2    0    0  0.58233190884E-01 -0.39436955579E-01 -0.87886490288E-01  0.88716988968E+00  0.88000000000E+00 0.  1.
        -11    1    3    3    0    0 -0.12885043553E-01 -0.12148714103E-01  0.11736157991E-01  0.21251214721E-01  0.51100000000E-03 0.  1.
         11    1    3    3    0    0 -0.37209536180E-01  0.29333115027E-01  0.94384367980E-01  0.10561084821E+00  0.51100000000E-03 0. -1.
</event>
<event>
 8    1  0.2257781E+004  0.1043930E+01  0.7957747E-01            NaN
         13   -1    0    0    0    0  0.00000000000E+00  0.00000000000E+00  0.74505805969E-08  0.10566000000E+00  0.10566000000E+00 0. -1.
     999900   -1    0    0    0    0 -0.00000000000E+00 -0.00000000000E+00 -0.74505805969E-08  0.93827000000E+00  0.93827000000E+00 0. -1.
     999902    2    1    2    0    0 -0.96499009449E-02 -0.91445096349E-02 -0.48471162776E-02  0.10297794812E+01  0.10296822533E+01 0.  0.
     999903    2    3    3    0    0 -0.84911969327E-01  0.68881602795E-01 -0.75470855617E-01  0.14031887745E+00  0.45153289821E-01 0.  0.
         14    1    1    2    0    0  0.96499009449E-02  0.91445096349E-02  0.48471162776E-02  0.14150518751E-01  0.00000000000E+00 0.  1.
     999901    1    3    3    0    0  0.75262068383E-01 -0.78026112430E-01  0.70623739340E-01  0.88946060380E+00  0.88000000000E+00 0.  1.
        -11    1    4    4    0    0 -0.61449678731E-01  0.29921223805E-01 -0.26025634601E-01  0.73136430235E-01  0.51100000000E-03 0. -1.
         11    1    4    4    0    0 -0.23462290597E-01  0.38960378989E-01 -0.49445221016E-01  0.67182447212E-01  0.51100000000E-03 0.  1.
</event>
<event>
 8    1  0.2257781E+004  0.1043930E+01  0.7957747E-01            NaN
         13   -1    0    0    0    0  0.00000000000E+00  0.00000000000E+00  0.74505805969E-08  0.10566000000E+00  0.10566000000E+00 0. -1.
     999900   -1    0    0    0    0 -0.00000000000E+00 -0.00000000000E+00 -0.74505805969E-08  0.93827000000E+00  0.93827000000E+00 0.  1.
     999902    2    1    2    0    0  0.82980833547E-02  0.76281719946E-02 -0.82161462124E-02  0.10299818011E+01  0.10298873522E+01 0.  0.
     999903    2    3    3    0    0  0.16970898028E-02 -0.53637435849E-01 -0.12231474760E+00  0.14047882823E+00  0.43514929176E-01 0.  0.
         14    1    1    2    0    0 -0.82980833547E-02 -0.76281719946E-02  0.82161462124E-02  0.13948198949E-01  0.00000000000E+00 0. -1.
     999901    1    3    3    0    0  0.66009935518E-02  0.61265607843E-01  0.11409860139E+00  0.88950297282E+00  0.88000000000E+00 0. -1.
        -11    1    4    4    0    0  0.17830324032E-01 -0.24567193739E-01 -0.31412598494E-01  0.43686152594E-01  0.51100000000E-03 0.  1.
         11    1    4    4    0    0 -0.16133234229E-01 -0.29070242109E-01 -0.90902149108E-01  0.96792675634E-01  0.51100000000E-03 0. -1.
</event>
<event>
 8    1  0.2257781E+004  0.1043930E+01  0.7957747E-01            NaN
         13   -1    0    0    0    0  0.00000000000E+00  0.00000000000E+00  0.74505805969E-08  0.10566000000E+00  0.10566000000E+00 0.  1.
     999900   -1    0    0    0    0 -0.00000000000E+00 -0.00000000000E+00 -0.74505805969E-08  0.93827000000E+00  0.93827000000E+00 0. -1.
     999902    2    1    2    0    0  0.74523420156E-02 -0.83722124151E-02 -0.82752947068E-02  0.10299975973E+01  0.10299033637E+01 0.  0.
     999903    2    3    3    0    0 -0.98317870123E-01  0.64364936211E-01 -0.59106399882E-01  0.13923285181E+00  0.45639587181E-01 0.  0.
         14    1    1    2    0    0 -0.74523420156E-02  0.83722124151E-02  0.82752947068E-02  0.13932402690E-01  0.00000000000E+00 0.  1.
     999901    1    3    3    0    0  0.10577021214E+00 -0.72737148626E-01  0.50831105175E-01  0.89076474550E+00  0.88000000000E+00 0.  1.
        -11    1    4    4    0    0 -0.53851848503E-01  0.29753828676E-01 -0.55345156628E-01  0.82756627477E-01  0.51100000000E-03 0.  1.
         11    1    4    4    0    0 -0.44466021620E-01  0.34611107535E-01 -0.37612432537E-02  0.56476224336E-01  0.51100000000E-03 0. -1.
</event>
<event>
 8    1  0.2257781E+004  0.1043930E+01  0.7957747E-01            NaN
         13   -1    0    0    0    0  0.00000000000E+00  0.00000000000E+00  0.74505805969E-08  0.10566000000E+00  0.10566000000E+00 0. -1.
     999900   -1    0    0    0    0 -0.00000000000E+00 -0.00000000000E+00 -0.74505805969E-08  0.93827000000E+00  0.93827000000E+00 0. -1.
     999902    2    1    2    0    0 -0.10585346688E-01 -0.22116904654E-02  0.10877176865E-01  0.10285920042E+01  0.10284776405E+01 0.  0.
     999903    2    3    3    0    0 -0.63134612753E-01 -0.10383037823E+00 -0.50235952975E-01  0.13908506339E+00  0.45324133932E-01 0.  0.
         14    1    1    2    0    0  0.10585346688E-01  0.22116904654E-02 -0.10877176865E-01  0.15337995820E-01  0.00000000000E+00 0.  1.
     999901    1    3    3    0    0  0.52549266065E-01  0.10161868777E+00  0.61113129840E-01  0.88950694079E+00  0.88000000000E+00 0.  1.
        -11    1    4    4    0    0 -0.42450998514E-01 -0.45985684263E-01 -0.45678635506E-01  0.77482703197E-01  0.51100000000E-03 0.  1.
         11    1    4    4    0    0 -0.20683614240E-01 -0.57844693969E-01 -0.45573174688E-02  0.61602360197E-01  0.51100000000E-03 0. -1.
</event>
<event>
 8    1  0.2257781E+004  0.1043930E+01  0.7957747E-01            NaN
         13   -1    0    0    0    0  0.00000000000E+00  0.00000000000E+00  0.74505805969E-08  0.10566000000E+00  0.10566000000E+00 0.  1.
     999900   -1    0    0    0    0 -0.00000000000E+00 -0.00000000000E+00 -0.74505805969E-08  0.93827000000E+00  0.93827000000E+00 0. -1.
     999902    2    1    2    0    0 -0.55246115082E-02  0.11295082428E-01 -0.21304220055E-02  0.10311770036E+01  0.10310981398E+01 0.  0.
     999903    2    3    3    0    0 -0.86883198472E-01  0.44326032347E-01  0.93333855706E-01  0.14166944790E+00  0.42959708172E-01 0.  0.
         14    1    1    2    0    0  0.55246115082E-02 -0.11295082428E-01  0.21304220055E-02  0.12752996404E-01  0.00000000000E+00 0. -1.
     999901    1    3    3    0    0  0.81358586964E-01 -0.33030949919E-01 -0.95464277711E-01  0.88950755570E+00  0.88000000000E+00 0. -1.
        -11    1    4    4    0    0 -0.15221744965E-01  0.13231479801E-01  0.28608703130E-03  0.20177129239E-01  0.51100000000E-03 0.  1.
         11    1    4    4    0    0 -0.71661453507E-01  0.31094552546E-01  0.93047768675E-01  0.12149231866E+00  0.51100000000E-03 0. -1.
</event>
<event>
 8    1  0.2257781E+004  0.1043930E+01  0.7957747E-01            NaN
         13   -1    0    0    0    0  0.00000000000E+00  0.00000000000E+00  0.74505805969E-08  0.10566000000E+00  0.10566000000E+00 0.  1.
     999900   -1    0    0    0    0 -0.00000000000E+00 -0.00000000000E+00 -0.74505805969E-08  0.93827000000E+00  0.93827000000E+00 0. -1.
     999902    2    1    2    0    0  0.68271303592E-02  0.10866104849E-01  0.48032979002E-02  0.10302276785E+01  0.10301365521E+01 0.  0.
     999903    2    3    3    0    0 -0.25915548175E-01 -0.26081360064E-01  0.12776489211E+00  0.14030815866E+00  0.44840369656E-01 0.  0.
         14    1    1    2    0    0 -0.68271303592E-02 -0.10866104849E-01 -0.48032979002E-02  0.13702321491E-01  0.00000000000E+00 0. -1.
     999901    1    3    3    0    0  0.32742678535E-01  0.36947464913E-01 -0.12296159421E+00  0.88991951985E+00  0.88000000000E+00 0. -1.
        -11    1    4    4    0    0 -0.21754891783E-01 -0.38112831880E-01  0.11012656642E+00  0.11854950453E+00  0.51100000000E-03 0.  1.
         11    1    4    4    0    0 -0.41606563922E-02  0.12031471816E-01  0.17638325683E-01  0.21758654131E-01  0.51100000000E-03 0. -1.
</event>
<event>
 8    1  0.2257781E+004  0.1043930E+01  0.7957747E-01            NaN
         13   -1    0    0    0    0  0.00000000000E+00  0.00000000000E+00  0.74505805969E-08  0.10566000000E+00  0.10566000000E+00 0. -1.
     999900   -1    0    0    0    0 -0.00000000000E+00 -0.00000000000E+00 -0.74505805969E-08  0.93827000000E+00  0.93827000000E+00 0. -1.
     999902    2    1    2    0    0  0.90790985285E-02 -0.69725338245E-02  0.89413171295E-02  0.10294043878E+01  0.10293018994E+01 0.  0.
     999903    2    3    3    0    0 -0.77035850784E-01 -0.58749489179E-01 -0.87845090949E-01  0.13841378942E+00  0.45338640389E-01 0.  0.
         14    1    1    2    0    0 -0.90790985285E-02  0.69725338245E-02 -0.89413171295E-02  0.14525612209E-01  0.00000000000E+00 0.  1.
     999901    1    3    3    0    0  0.86114949313E-01  0.51776955355E-01  0.96786408078E-01  0.89099059837E+00  0.88000000000E+00 0.  1.
        -11    1    4    4    0    0 -0.76395276445E-01 -0.46567629964E-01 -0.88939097794E-01  0.12615548605E+00  0.51100000000E-03 0.  1.
         11    1    4    4    0    0 -0.64057433926E-03 -0.12181859216E-01  0.10940068452E-02  0.12258303366E-01  0.51100000000E-03 0. -1.
</event>
<event>
 8    1  0.2257781E+004  0.1043930E+01  0.7957747E-01            NaN
         13   -1    0    0    0    0  0.00000000000E+00  0.00000000000E+00  0.74505805969E-08  0.10566000000E+00  0.10566000000E+00 0.  1.
     999900   -1    0    0    0    0 -0.00000000000E+00 -0.00000000000E+00 -0.74505805969E-08  0.93827000000E+00  0.93827000000E+00 0. -1.
     999902    2    1    2    0    0  0.35645737026E-02  0.53779885070E-02  0.12376452554E-01  0.10299727251E+01  0.10298781524E+01 0.  0.
     999903    2    3    3    0    0 -0.12249158830E+00 -0.41234486386E-01 -0.24840449086E-01  0.13899125692E+00  0.44688359969E-01 0.  0.
         14    1    1    2    0    0 -0.35645737026E-02 -0.53779885070E-02 -0.12376452554E-01  0.13957274945E-01  0.00000000000E+00 0. -1.
     999901    1    3    3    0    0  0.12605616200E+00  0.46612474893E-01  0.37216901640E-01  0.89098146814E+00  0.88000000000E+00 0.  1.
        -11    1    4    4    0    0 -0.10375632015E+00 -0.20210787915E-01 -0.31002241775E-01  0.11016011091E+00  0.51100000000E-03 0.  1.
         11    1    4    4    0    0 -0.18735268153E-01 -0.21023698471E-01  0.61617926897E-02  0.28831146011E-01  0.51100000000E-03 0. -1.
</event>
<event>
 8    1  0.2257781E+004  0.1043930E+01  0.7957747E-01            NaN
         13   -1    0    0    0    0  0.00000000000E+00  0.00000000000E+00  0.74505805969E-08  0.10566000000E+00  0.10566000000E+00 0.  1.
     999900   -1    0    0    0    0 -0.00000000000E+00 -0.00000000000E+00 -0.74505805969E-08  0.93827000000E+00  0.93827000000E+00 0. -1.
     999902    2    1    2    0    0  0.12643965807E-02  0.83751397887E-02  0.10032414577E-01  0.10308002244E+01  0.10307166010E+01 0.  0.
     999903    2    3    3    0    0 -0.71230321348E-01  0.12432195878E-01  0.11356073711E+00  0.14176138531E+00  0.44406431741E-01 0.  0.
         14    1    1    2    0    0 -0.12643965807E-02 -0.83751397887E-02 -0.10032414577E-01  0.13129775605E-01  0.00000000000E+00 0. -1.
     999901    1    3    3    0    0  0.72494717928E-01 -0.40570560893E-02 -0.10352832253E+00  0.88903883908E+00  0.88000000000E+00 0.  1.
        -11    1    4    4    0    0 -0.31061523811E-01  0.83570809413E-02  0.15493380798E-01  0.35706652502E-01  0.51100000000E-03 0.  1.
         11    1    4    4    0    0 -0.40168797536E-01  0.40751149367E-02  0.98067356308E-01  0.10605473281E+00  0.51100000000E-03 0. -1.
</event>
<event>
 8    1  0.2257781E+004  0.1043930E+01  0.7957747E-01            NaN
         13   -1    0    0    0    0  0.00000000000E+00  0.00000000000E+00  0.74505805969E-08  0.10566000000E+00  0.10566000000E+00 0. -1.
     999900   -1    0    0    0    0 -0.00000000000E+00 -0.00000000000E+00 -0.74505805969E-08  0.93827000000E+00  0.93827000000E+00 0.  1.
     999902    2    1    2    0    0 -0.11989799132E-02 -0.24582776593E-02  0.13322051005E-01  0.10303300836E+01  0.10302403232E+01 0.  0.
     999903    2    3    3    0    0 -0.13292237671E+00  0.10633855591E-01 -0.21887269966E-02  0.14029466780E+00  0.43547286631E-01 0.  0.
         14    1    1    2    0    0  0.11989799132E-02  0.24582776593E-02 -0.13322051005E-01  0.13599916355E-01  0.00000000000E+00 0.  1.
     999901    1    3    3    0    0  0.13172339680E+00 -0.13092133250E-01  0.15510778002E-01  0.89003541584E+00  0.88000000000E+00 0.  1.
        -11    1    4    4    0    0 -0.89774279452E-01 -0.13575016710E-01 -0.96722881899E-03  0.90801426103E-01  0.51100000000E-03 0.  1.
         11    1    4    4    0    0 -0.43148097260E-01  0.24208872301E-01 -0.12214981776E-02  0.49493241701E-01  0.51100000000E-03 0. -1.
</event>
<event>
 8    1  0.2257781E+004  0.1043930E+01  0.7957747E-01            NaN
         13   -1    0    0    0    0  0.00000000000E+00  0.00000000000E+00  0.74505805969E-08  0.10566000000E+00  0.10566000000E+00 0.  1.
     999900   -1    0    0    0    0 -0.00000000000E+00 -0.00000000000E+00 -0.74505805969E-08  0.93827000000E+00  0.93827000000E+00 0.  1.
     999902    2    1    2    0    0  0.21784569260E-02 -0.36482447536E-02  0.10699049401E-01  0.10324180487E+01  0.10323538649E+01 0.  0.
     999903    2    3    3    0    0  0.46428674684E-01 -0.56811914489E-01  0.11477822766E+00  0.14358908153E+00  0.45393472331E-01 0.  0.
         14    1    1    2    0    0 -0.21784569260E-02  0.36482447536E-02 -0.10699049401E-01  0.11511951287E-01  0.00000000000E+00 0. -1.
     999901    1    3    3    0    0 -0.44250217758E-01  0.53163669736E-01 -0.10407917826E+00  0.88882896718E+00  0.88000000000E+00 0.  1.
        -11    1    4    4    0    0  0.32424290123E-01 -0.10938155887E-01  0.27123123409E-01  0.43668098065E-01  0.51100000000E-03 0.  1.
         11    1    4    4    0    0  0.14004384561E-01 -0.45873758603E-01  0.87655104249E-01  0.99920983468E-01  0.51100000000E-03 0. -1.
</event>
<event>
 8    1  0.2257781E+004  0.1043930E+01  0.7957747E-01            NaN
         13   -1    0    0    0    0  0.00000000000E+00  0.00000000000E+00  0.74505805969E-08  0.10566000000E+00  0.10566000000E+00 0.  1.
     999900   -1    0    0    0    0 -0.00000000000E+00 -0.00000000000E+00 -0.74505805969E-08  0.93827000000E+00  0.93827000000E+00 0. -1.
     999902    2    1    2    0    0  0.26756502924E-02 -0.44328093686E-02  0.90334604451E-02  0.10335178767E+01  0.10334654272E+01 0.  0.
     999903    2    3    3    0    0 -0.10476692778E+00 -0.57972234825E-01  0.65524321495E-01  0.14357316213E+00  0.44530068615E-01 0.  0.
         14    1    1    2    0    0 -0.26756502924E-02  0.44328093686E-02 -0.90334604451E-02  0.10412123270E-01  0.00000000000E+00 0. -1.
     999901    1    3    3    0    0  0.10744257807E+00  0.53539425457E-01 -0.56490861050E-01  0.88994471460E+00  0.88000000000E+00 0. -1.
        -11    1    4    4    0    0 -0.36941421731E-01  0.21154057951E-02  0.16105238889E-01  0.40358189031E-01  0.51100000000E-03 0. -1.
         11    1    4    4    0    0 -0.67825506044E-01 -0.60087640620E-01  0.49419082606E-01  0.10321497310E+00  0.51100000000E-03 0.  1.
</event>
<event>
 8    1  0.2257781E+004  0.1043930E+01  0.7957747E-01            NaN
         13   -1    0    0    0    0  0.00000000000E+00  0.00000000000E+00  0.74505805969E-08  0.10566000000E+00  0.10566000000E+00 0.  1.
     999900   -1    0    0    0    0 -0.00000000000E+00 -0.00000000000E+00 -0.74505805969E-08  0.93827000000E+00  0.93827000000E+00 0. -1.
     999902    2    1    2    0    0 -0.40171506549E-02 -0.13749134046E-01 -0.75345306441E-03  0.10295862251E+01  0.10294863045E+01 0.  0.
     999903    2    3    3    0    0 -0.37016102983E-01  0.12233205143E+00  0.27858177676E-01  0.13805627873E+00  0.44137686240E-01 0.  0.
         14    1    1    2    0    0  0.40171506549E-02  0.13749134046E-01  0.75345306441E-03  0.14343774883E-01  0.00000000000E+00 0.  1.
     999901    1    3    3    0    0  0.32998952328E-01 -0.13608118547E+00 -0.28611630740E-01  0.89152994639E+00  0.88000000000E+00 0. -1.
        -11    1    4    4    0    0  0.57088909608E-02  0.94003237471E-02  0.11982196125E-01  0.16272420457E-01  0.51100000000E-03 0.  1.
         11    1    4    4    0    0 -0.42724993944E-01  0.11293172768E+00  0.15875981551E-01  0.12178385827E+00  0.51100000000E-03 0. -1.
</event>
<event>
 8    1  0.2257781E+004  0.1043930E+01  0.7957747E-01            NaN
         13   -1    0    0    0    0  0.00000000000E+00  0.00000000000E+00  0.74505805969E-08  0.10566000000E+00  0.10566000000E+00 0.  1.
     999900   -1    0    0    0    0 -0.00000000000E+00 -0.00000000000E+00 -0.74505805969E-08  0.93827000000E+00  0.93827000000E+00 0. -1.
     999902    2    1    2    0    0 -0.78765144640E-02 -0.59578472171E-02 -0.98248006349E-02  0.10299993815E+01  0.10299051722E+01 0.  0.
     999903    2    3    3    0    0 -0.13365301472E-01 -0.83336825750E-01 -0.10450787269E+00  0.14152736889E+00  0.44547086124E-01 0.  0.
         14    1    1    2    0    0  0.78765144640E-02  0.59578472171E-02  0.98248006349E-02  0.13930618474E-01  0.00000000000E+00 0.  1.
     999901    1    3    3    0    0  0.54887870085E-02  0.77378978533E-01  0.94683072052E-01  0.88847201263E+00  0.88000000000E+00 0.  1.
        -11    1    4    4    0    0 -0.25195669520E-01 -0.32236606885E-01 -0.31543740227E-01  0.51665164807E-01  0.51100000000E-03 0.  1.
         11    1    4    4    0    0  0.11830368048E-01 -0.51100218865E-01 -0.72964132460E-01  0.89862204084E-01  0.51100000000E-03 0. -1.
</event>
<event>
 8    1  0.2257781E+004  0.1043930E+01  0.7957747E-01            NaN
         13   -1    0    0    0    0  0.00000000000E+00  0.00000000000E+00  0.74505805969E-08  0.10566000000E+00  0.10566000000E+00 0. -1.
     999900   -1    0    0    0    0 -0.00000000000E+00 -0.00000000000E+00 -0.74505805969E-08  0.93827000000E+00  0.93827000000E+00 0.  1.
     999902    2    1    2    0    0 -0.33351195022E-02  0.11321618764E-01 -0.38883957790E-02  0.10315033474E+01  0.10314284919E+01 0.  0.
     999903    2    3    3    0    0  0.19574733429E-01  0.13371384228E+00  0.98063840672E-02  0.14263200420E+00  0.44555152887E-01 0.  0.
         14    1    1    2    0    0  0.33351195022E-02 -0.11321618764E-01  0.38883957790E-02  0.12426652617E-01  0.00000000000E+00 0. -1.
     999901    1    3    3    0    0 -0.22909852931E-01 -0.12239222351E+00 -0.13694779846E-01  0.88887134318E+00  0.88000000000E+00 0. -1.
        -11    1    4    4    0    0  0.15864654563E-01  0.11465859897E+00 -0.83417456635E-02  0.11605226161E+00  0.51100000000E-03 0. -1.
         11    1    4    4    0    0  0.37100788655E-02  0.19055243304E-01  0.18148129731E-01  0.26579742592E-01  0.51100000000E-03 0.  1.
</event>
<event>
 8    1  0.2257781E+004  0.1043930E+01  0.7957747E-01            NaN
         13   -1    0    0    0    0  0.00000000000E+00  0.00000000000E+00  0.74505805969E-08  0.10566000000E+00  0.10566000000E+00 0.  1.
     999900   -1    0    0    0    0 -0.00000000000E+00 -0.00000000000E+00 -0.74505805969E-08  0.93827000000E+00  0.93827000000E+00 0. -1.
     999902    2    1    2    0    0 -0.16403509189E-02 -0.55157507055E-02  0.13809167979E-01  0.10289698069E+01  0.10288610480E+01 0.  0.
     999903    2    3    3    0    0 -0.61221887008E-01  0.11469679092E+00  0.13469923257E-01  0.13880064900E+00  0.46698051730E-01 0.  0.
         14    1    1    2    0    0  0.16403509189E-02  0.55157507055E-02 -0.13809167979E-01  0.14960193089E-01  0.00000000000E+00 0. -1.
     999901    1    3    3    0    0  0.59581536089E-01 -0.12021254162E+00  0.33924472153E-03  0.89016915791E+00  0.88000000000E+00 0. -1.
        -11    1    4    4    0    0 -0.33814764703E-01  0.10287274170E+00  0.10950031108E-01  0.10884118522E+00  0.51100000000E-03 0.  1.
         11    1    4    4    0    0 -0.27407122305E-01  0.11824049216E-01  0.25198921496E-02  0.29959463786E-01  0.51100000000E-03 0. -1.
</event>
<event>
 8    1  0.2257781E+004  0.1043930E+01  0.7957747E-01            NaN
         13   -1    0    0    0    0  0.00000000000E+00  0.00000000000E+00  0.74505805969E-08  0.10566000000E+00  0.10566000000E+00 0.  1.
     999900   -1    0    0    0    0 -0.00000000000E+00 -0.00000000000E+00 -0.74505805969E-08  0.93827000000E+00  0.93827000000E+00 0.  1.
     999902    2    1    2    0    0  0.10669671971E-01 -0.77455251473E-02  0.16582809152E-02  0.10306414728E+01  0.10305558017E+01 0.  0.
     999903    2    3    3    0    0 -0.11579856835E+00 -0.26655439379E-01  0.57914879920E-01  0.13962149232E+00  0.44946712026E-01 0.  0.
         14    1    1    2    0    0 -0.10669671971E-01  0.77455251473E-02 -0.16582809152E-02  0.13288527209E-01  0.00000000000E+00 0. -1.
     999901    1    3    3    0    0  0.12646824032E+00  0.18909914232E-01 -0.56256599005E-01  0.89101998047E+00  0.88000000000E+00 0.  1.
        -11    1    4    4    0    0 -0.58307049473E-01  0.68537328509E-02  0.15552631324E-01  0.60735748405E-01  0.51100000000E-03 0.  1.
         11    1    4    4    0    0 -0.57491518875E-01 -0.33509172230E-01  0.42362248596E-01  0.78885743916E-01  0.51100000000E-03 0. -1.
</event>
<event>
 8    1  0.2257781E+004  0.1043930E+01  0.7957747E-01            NaN
         13   -1    0    0    0    0  0.00000000000E+00  0.00000000000E+00  0.74505805969E-08  0.10566000000E+00  0.10566000000E+00 0. -1.
     999900   -1    0    0    0    0 -0.00000000000E+00 -0.00000000000E+00 -0.74505805969E-08  0.93827000000E+00  0.93827000000E+00 0. -1.
     999902    2    1    2    0    0  0.69530258895E-02 -0.49679169277E-02  0.11258264793E-01  0.10297958819E+01  0.10296988808E+01 0.  0.
     999903    2    3    3    0    0  0.51249491479E-01 -0.39257894952E-01 -0.11489129890E+00  0.13903682815E+00  0.44311807970E-01 0.  0.
         14    1    1    2    0    0 -0.69530258895E-02  0.49679169277E-02 -0.11258264793E-01  0.14134118076E-01  0.00000000000E+00 0.  1.
     999901    1    3    3    0    0 -0.44296465590E-01  0.34289978024E-01  0.12614956370E+00  0.89075905377E+00  0.88000000000E+00 0.  1.
        -11    1    4    4    0    0  0.11172524762E-01 -0.25078741365E-01 -0.78192216450E-01  0.82873713640E-01  0.51100000000E-03 0. -1.
         11    1    4    4    0    0  0.40076966717E-01 -0.14179153586E-01 -0.36699082454E-01  0.56163114512E-01  0.51100000000E-03 0.  1.
</event>
<event>
 8    1  0.2257781E+004  0.1043930E+01  0.7957747E-01            NaN
         13   -1    0    0    0    0  0.00000000000E+00  0.00000000000E+00  0.74505805969E-08  0.10566000000E+00  0.10566000000E+00 0. -1.
     999900   -1    0    0    0    0 -0.00000000000E+00 -0.00000000000E+00 -0.74505805969E-08  0.93827000000E+00  0.93827000000E+00 0. -1.
     999902    2    1    2    0    0 -0.11715199549E-01 -0.31262211159E-02  0.84898431413E-02  0.10291280881E+01  0.10290216349E+01 0.  0.
     999903    2    3    3    0    0  0.61110942086E-01  0.41584091824E-01 -0.10688950957E+00  0.13749192127E+00  0.44887383785E-01 0.  0.
         14    1    1    2    0    0  0.11715199549E-01  0.31262211159E-02 -0.84898431413E-02  0.14801911886E-01  0.00000000000E+00 0. -1.
     999901    1    3    3    0    0 -0.72826141634E-01 -0.44710312939E-01  0.11537935271E+00  0.89163616684E+00  0.88000000000E+00 0.  1.
        -11    1    4    4    0    0  0.54207868880E-01  0.50928331265E-01 -0.87089649307E-01  0.11452971715E+00  0.51100000000E-03 0.  1.
         11    1    4    4    0    0  0.69030732057E-02 -0.93442394417E-02 -0.19799860265E-01  0.22962204118E-01  0.51100000000E-03 0. -1.
</event>
<event>
 8    1  0.2257781E+004  0.1043930E+01  0.7957747E-01            NaN
         13   -1    0    0    0    0  0.00000000000E+00  0.00000000000E+00  0.74505805969E-08  0.10566000000E+00  0.10566000000E+00 0. -1.
     999900   -1    0    0    0    0 -0.00000000000E+00 -0.00000000000E+00 -0.74505805969E-08  0.93827000000E+00  0.93827000000E+00 0. -1.
     999902    2    1    2    0    0 -0.15597630782E-02 -0.13204029330E-01  0.46918648242E-02  0.10298306083E+01  0.10297340865E+01 0.  0.
     999903    2    3    3    0    0  0.12516512816E+00  0.32651913939E-01 -0.21899821184E-01  0.13917406204E+00  0.46447395898E-01 0.  0.
         14    1    1    2    0    0  0.15597630782E-02  0.13204029330E-01 -0.46918648242E-02  0.14099391722E-01  0.00000000000E+00 0.  1.
     999901    1    3    3    0    0 -0.12672489124E+00 -0.45855943269E-01  0.26591686008E-01  0.89065654624E+00  0.88000000000E+00 0. -1.
        -11    1    4    4    0    0  0.27254786914E-01 -0.11901030500E-01 -0.71942323843E-02  0.30601895975E-01  0.51100000000E-03 0. -1.
         11    1    4    4    0    0  0.97910341246E-01  0.44552944439E-01 -0.14705588799E-01  0.10857216606E+00  0.51100000000E-03 0.  1.
</event>
<event>
 8    1  0.2257781E+004  0.1043930E+01  0.7957747E-01            NaN
         13   -1    0    0    0    0  0.00000000000E+00  0.00000000000E+00  0.74505805969E-08  0.10566000000E+00  0.10566000000E+00 0.  1.
     999900   -1    0    0    0    0 -0.00000000000E+00 -0.00000000000E+00 -0.74505805969E-08  0.93827000000E+00  0.93827000000E+00 0. -1.
     999902    2    1    2    0    0 -0.15776317396E-02 -0.78784434046E-02 -0.10487880104E-01  0.10307180955E+01  0.10306334159E+01 0.  0.
     999903    2    3    3    0    0 -0.35528141312E-02 -0.37992208812E-01 -0.12915541262E+00  0.14224033914E+00  0.45772951094E-01 0.  0.
         14    1    1    2    0    0  0.15776317396E-02  0.78784434046E-02  0.10487880104E-01  0.13211904536E-01  0.00000000000E+00 0. -1.
     999901    1    3    3    0    0  0.19751823916E-02  0.30113765407E-01  0.11866753251E+00  0.88847775633E+00  0.88000000000E+00 0.  1.
        -11    1    4    4    0    0  0.96882137996E-02 -0.41446138313E-01 -0.73605386648E-01  0.85027395187E-01  0.51100000000E-03 0. -1.
         11    1    4    4    0    0 -0.13241027931E-01  0.34539295015E-02 -0.55550025967E-01  0.57212943952E-01  0.51100000000E-03 0.  1.
</event>
<event>
 8    1  0.2257781E+004  0.1043930E+01  0.7957747E-01            NaN
         13   -1    0    0    0    0  0.00000000000E+00  0.00000000000E+00  0.74505805969E-08  0.10566000000E+00  0.10566000000E+00 0.  1.
     999900   -1    0    0    0    0 -0.00000000000E+00 -0.00000000000E+00 -0.74505805969E-08  0.93827000000E+00  0.93827000000E+00 0.  1.
     999902    2    1    2    0    0 -0.21028692923E-02  0.12573645256E-02 -0.13568295413E-01  0.10301422640E+01  0.10300499902E+01 0.  0.
     999903    2    3    3    0    0 -0.77085287620E-01 -0.79900391873E-01 -0.75928310635E-01  0.14104287920E+00  0.42447275847E-01 0.  0.
         14    1    1    2    0    0  0.21028692923E-02 -0.12573645256E-02  0.13568295413E-01  0.13787736045E-01  0.00000000000E+00 0.  1.
     999901    1    3    3    0    0  0.74982418328E-01  0.81157756399E-01  0.62360015222E-01  0.88909938476E+00  0.88000000000E+00 0.  1.
        -11    1    4    4    0    0 -0.37262757574E-01 -0.21689509222E-01 -0.94957376013E-02  0.44151761753E-01  0.51100000000E-03 0.  1.
         11    1    4    4    0    0 -0.39822530046E-01 -0.58210882652E-01 -0.66432573034E-01  0.96891117443E-01  0.51100000000E-03 0. -1.
</event>
<event>
 8    1  0.2257781E+004  0.1043930E+01  0.7957747E-01            NaN
         13   -1    0    0    0    0  0.00000000000E+00  0.00000000000E+00  0.74505805969E-08  0.10566000000E+00  0.10566000000E+00 0.  1.
     999900   -1    0    0    0    0 -0.00000000000E+00 -0.00000000000E+00 -0.74505805969E-08  0.93827000000E+00  0.93827000000E+00 0. -1.
     999902    2    1    2    0    0 -0.82645822066E-02  0.49983034657E-02  0.97447324405E-02  0.10302097170E+01  0.10301183499E+01 0.  0.
     999903    2    3    3    0    0 -0.78450360843E-01  0.14096035633E-01  0.10930378976E+00  0.14177242702E+00  0.42413974929E-01 0.  0.
         14    1    1    2    0    0  0.82645822066E-02 -0.49983034657E-02 -0.97447324405E-02  0.13720283048E-01  0.00000000000E+00 0. -1.
     999901    1    3    3    0    0  0.70185778637E-01 -0.90977321669E-02 -0.99559057319E-01  0.88843728994E+00  0.88000000000E+00 0. -1.
        -11    1    4    4    0    0 -0.10445569114E-01  0.18815159547E-01  0.19661991620E-01  0.29154333784E-01  0.51100000000E-03 0. -1.
         11    1    4    4    0    0 -0.68004791730E-01 -0.47191239145E-02  0.89641798139E-01  0.11261809323E+00  0.51100000000E-03 0.  1.
</event>
<event>
 8    1  0.2257781E+004  0.1043930E+01  0.7957747E-01            NaN
         13   -1    0    0    0    0  0.00000000000E+00  0.00000000000E+00  0.74505805969E-08  0.10566000000E+00  0.10566000000E+00 0. -1.
     999900   -1    0    0    0    0 -0.00000000000E+00 -0.00000000000E+00 -0.74505805969E-08  0.93827000000E+00  0.93827000000E+00 0.  1.
     999902    2    1    2    0    0 -0.75559774777E-02 -0.82174802571E-02  0.74469820959E-02  0.10305107109E+01  0.10304233344E+01 0.  0.
     999903    2    3    3    0    0 -0.89129847495E-01  0.43387863729E-01 -0.90623039278E-01  0.13981708407E+00  0.38854154426E-01 0.  0.
         14    1    1    2    0    0  0.75559774777E-02  0.82174802571E-02 -0.74469820959E-02  0.13419289093E-01  0.00000000000E+00 0.  1.
     999901    1    3    3    0    0  0.81573870018E-01 -0.51605343986E-01  0.98070021374E-01  0.89069362684E+00  0.88000000000E+00 0. -1.
        -11    1    4    4    0    0 -0.97211496447E-02 -0.56806295519E-02 -0.19263871245E-01  0.22318784888E-01  0.51100000000E-03 0. -1.
         11    1    4    4    0    0 -0.79408697851E-01  0.49068493280E-01 -0.71359168033E-01  0.11749829918E+00  0.51100000000E-03 0.  1.
</event>
<event>
 8    1  0.2257781E+004  0.1043930E+01  0.7957747E-01            NaN
         13   -1    0    0    0    0  0.00000000000E+00  0.00000000000E+00  0.74505805969E-08  0.10566000000E+00  0.10566000000E+00 0. -1.
     999900   -1    0    0    0    0 -0.00000000000E+00 -0.00000000000E+00 -0.74505805969E-08  0.93827000000E+00  0.93827000000E+00 0. -1.
     999902    2    1    2    0    0 -0.73148701448E-02 -0.54445092254E-02  0.95920982348E-02  0.10306952596E+01  0.10306102851E+01 0.  0.
     999903    2    3    3    0    0  0.11660388521E+00 -0.58542377549E-01  0.26357555719E-01  0.14027046088E+00  0.44242574924E-01 0.  0.
         14    1    1    2    0    0  0.73148701448E-02  0.54445092254E-02 -0.95920982348E-02  0.13234740439E-01  0.00000000000E+00 0.  1.
     999901    1    3    3    0    0 -0.12391875535E+00  0.53097868323E-01 -0.16765457484E-01  0.89042479869E+00  0.88000000000E+00 0.  1.
        -11    1    4    4    0    0  0.80700267786E-01 -0.33082174677E-01 -0.31521599102E-02  0.87276346940E-01  0.51100000000E-03 0. -1.
         11    1    4    4    0    0  0.35903617423E-01 -0.25460202872E-01  0.29509715629E-01  0.52994113936E-01  0.51100000000E-03 0.  1.
</event>
<event>
 8    1  0.2257781E+004  0.1043930E+01  0.7957747E-01            NaN
         13   -1    0    0    0    0  0.00000000000E+00  0.00000000000E+00  0.74505805969E-08  0.10566000000E+00  0.10566000000E+00 0. -1.
     999900   -1    0    0    0    0 -0.00000000000E+00 -0.00000000000E+00 -0.74505805969E-08  0.93827000000E+00  0.93827000000E+00 0. -1.
     999902    2    1    2    0    0 -0.75978606242E-02 -0.11476609904E-01  0.62708934198E-03  0.10301519993E+01  0.10300598567E+01 0.  0.
     999903    2    3    3    0    0  0.13152077911E+00 -0.94337724288E-02  0.35501976216E-03  0.13922088914E+00  0.44672346415E-01 0.  0.
         14    1    1    2    0    0  0.75978606242E-02  0.11476609904E-01 -0.62708934198E-03  0.13778000653E-01  0.00000000000E+00 0. -1.
     999901    1    3    3    0    0 -0.13911863974E+00 -0.20428374750E-02  0.27206957982E-03  0.89093111020E+00  0.88000000000E+00 0.  1.
        -11    1    4    4    0    0  0.77474934747E-01  0.16151808901E-01 -0.41662642453E-02  0.79251910536E-01  0.51100000000E-03 0.  1.
         11    1    4    4    0    0  0.54045844365E-01 -0.25585581330E-01  0.45212840074E-02  0.59968978607E-01  0.51100000000E-03 0. -1.
</event>
<event>
 8    1  0.2257781E+004  0.1043930E+01  0.7957747E-01            NaN
         13   -1    0    0    0    0  0.00000000000E+00  0.00000000000E+00  0.74505805969E-08  0.10566000000E+00  0.10566000000E+00 0.  1.
     999900   -1    0    0    0    0 -0.00000000000E+00 -0.00000000000E+00 -0.74505805969E-08  0.93827000000E+00  0.93827000000E+00 0.  1.
     999902    2    1    2    0    0  0.47822659619E-02 -0.48263913482E-02  0.11631298716E-01  0.10304596165E+01  0.10303715689E+01 0.  0.
     999903    2    3    3    0    0  0.10531843285E+00 -0.10609453636E-01  0.84226317998E-01  0.14174650112E+00  0.42349322696E-01 0.  0.
         14    1    1    2    0    0 -0.47822659619E-02  0.48263913482E-02 -0.11631298716E-01  0.13470383476E-01  0.00000000000E+00 0. -1.
     999901    1    3    3    0    0 -0.10053616689E+00  0.57830622873E-02 -0.72595019282E-01  0.88871311540E+00  0.88000000000E+00 0.  1.
        -11    1    4    4    0    0  0.66391601572E-01  0.21804083022E-03  0.75251298156E-01  0.10035393015E+00  0.51100000000E-03 0.  1.
         11    1    4    4    0    0  0.38926831277E-01 -0.10827494466E-01  0.89750198415E-02  0.41392570974E-01  0.51100000000E-03 0. -1.
</event>
<event>
 8    1  0.2257781E+004  0.1043930E+01  0.7957747E-01            NaN
         13   -1    0    0    0    0  0.00000000000E+00  0.00000000000E+00  0.74505805969E-08  0.10566000000E+00  0.10566000000E+00 0. -1.
     999900   -1    0    0    0    0 -0.00000000000E+00 -0.00000000000E+00 -0.74505805969E-08  0.93827000000E+00  0.93827000000E+00 0.  1.
     999902    2    1    2    0    0 -0.10070063712E-01 -0.61210854099E-02 -0.87883196344E-02  0.10292293731E+01  0.10291243822E+01 0.  0.
     999903    2    3    3    0    0  0.50987308448E-01  0.10389350279E+00  0.59914902963E-01  0.13762893280E+00  0.44253384083E-01 0.  0.
         14    1    1    2    0    0  0.10070063712E-01  0.61210854099E-02  0.87883196344E-02  0.14700626917E-01  0.00000000000E+00 0. -1.
     999901    1    3    3    0    0 -0.61057372160E-01 -0.11001458820E+00 -0.68703222597E-01  0.89160044028E+00  0.88000000000E+00 0.  1.
        -11    1    4    4    0    0  0.49868840814E-01  0.75293182684E-01  0.60998237012E-01  0.10898169884E+00  0.51100000000E-03 0.  1.
         11    1    4    4    0    0  0.11184676340E-02  0.28600320105E-01 -0.10833340490E-02  0.28647233962E-01  0.51100000000E-03 0. -1.
</event>
<event>
 8    1  0.2257781E+004  0.1043930E+01  0.7957747E-01            NaN
         13   -1    0    0    0    0  0.00000000000E+00  0.00000000000E+00  0.74505805969E-08  0.10566000000E+00  0.10566000000E+00 0. -1.
     999900   -1    0    0    0    0 -0.00000000000E+00 -0.00000000000E+00 -0.74505805969E-08  0.93827000000E+00  0.93827000000E+00 0.  1.
     999902    2    1    2    0    0  0.12280992228E-01 -0.10177694429E-02 -0.64688049302E-02  0.10300122393E+01  0.10299182051E+01 0.  0.
     999903    2    3    3    0    0  0.55597815276E-01  0.83216816571E-01 -0.88480086142E-01  0.14113785963E+00  0.45552323262E-01 0.  0.
         14    1    1    2    0    0 -0.12280992228E-01  0.10177694429E-02  0.64688049302E-02  0.13917760667E-01  0.00000000000E+00 0. -1.
     999901    1    3    3    0    0 -0.43316823048E-01 -0.84234586014E-01  0.82011281212E-01  0.88887437970E+00  0.88000000000E+00 0.  1.
        -11    1    4    4    0    0  0.30971842286E-02  0.37001389125E-01 -0.46697679182E-01  0.59662632437E-01  0.51100000000E-03 0. -1.
         11    1    4    4    0    0  0.52500631048E-01  0.46215427446E-01 -0.41782406961E-01  0.81475227197E-01  0.51100000000E-03 0.  1.
</event>
<event>
 8    1  0.2257781E+004  0.1043930E+01  0.7957747E-01            NaN
         13   -1    0    0    0    0  0.00000000000E+00  0.00000000000E+00  0.74505805969E-08  0.10566000000E+00  0.10566000000E+00 0. -1.
     999900   -1    0    0    0    0 -0.00000000000E+00 -0.00000000000E+00 -0.74505805969E-08  0.93827000000E+00  0.93827000000E+00 0. -1.
     999902    2    1    2    0    0 -0.39989301206E-03 -0.80983587392E-02 -0.13564862738E-01  0.10281265564E+01  0.10280050910E+01 0.  0.
     999903    2    3    3    0    0  0.49410167127E-01 -0.71715816347E-01 -0.10033149105E+00  0.14017572961E+00  0.44702395290E-01 0.  0.
         14    1    1    2    0    0  0.39989301206E-03  0.80983587392E-02  0.13564862738E-01  0.15803443606E-01  0.00000000000E+00 0. -1.
     999901    1    3    3    0    0 -0.49810060139E-01  0.63617457608E-01  0.86766628312E-01  0.88795082679E+00  0.88000000000E+00 0.  1.
        -11    1    4    4    0    0  0.40567507434E-01 -0.20671918609E-01 -0.39554600041E-01  0.60314827230E-01  0.51100000000E-03 0. -1.
         11    1    4    4    0    0  0.88426596933E-02 -0.51043897739E-01 -0.60776891009E-01  0.79860902377E-01  0.51100000000E-03 0.  1.
</event>
<event>
 8    1  0.2257781E+004  0.1043930E+01  0.7957747E-01            NaN
         13   -1    0    0    0    0  0.00000000000E+00  0.00000000000E+00  0.74505805969E-08  0.10566000000E+00  0.10566000000E+00 0.  1.
     999900   -1    0    0    0    0 -0.00000000000E+00 -0.00000000000E+00 -0.74505805969E-08  0.93827000000E+00  0.93827000000E+00 0. -1.
     999902    2    1    2    0    0 -0.93723616482E-02 -0.34107793475E-02  0.84216317517E-02  0.10308763239E+01  0.10307936732E+01 0.  0.
     999903    2    3    3    0    0 -0.13230907244E+00  0.30568827077E-02 -0.23584382839E-01  0.14173086308E+00  0.44904111755E-01 0.  0.
         14    1    1    2    0    0  0.93723616482E-02  0.34107793475E-02 -0.84216317517E-02  0.13053676110E-01  0.00000000000E+00 0. -1.
     999901    1    3    3    0    0  0.12293671079E+00 -0.64676620551E-02  0.32006014591E-01  0.88914546081E+00  0.88000000000E+00 0. -1.
        -11    1    4    4    0    0 -0.57493070899E-01 -0.19437204119E-01 -0.18458409217E-01  0.63436835491E-01  0.51100000000E-03 0.  1.
         11    1    4    4    0    0 -0.74816001544E-01  0.22494086827E-01 -0.51259736219E-02  0.78294027586E-01  0.51100000000E-03 0. -1.
</event>
<event>
 8    1  0.2257781E+004  0.1043930E+01  0.7957747E-01            NaN
         13   -1    0    0    0    0  0.00000000000E+00  0.00000000000E+00  0.74505805969E-08  0.10566000000E+00  0.10566000000E+00 0. -1.
     999900   -1    0    0    0    0 -0.00000000000E+00 -0.00000000000E+00 -0.74505805969E-08  0.93827000000E+00  0.93827000000E+00 0.  1.
     999902    2    1    2    0    0 -0.42456395101E-02 -0.13213243397E-01 -0.42469775790E-02  0.10294161420E+01  0.10293138206E+01 0.  0.
     999903    2    3    3    0    0  0.45684243212E-01 -0.76944948999E-01 -0.99818345058E-01  0.14054685476E+00  0.42215413286E-01 0.  0.
         14    1    1    2    0    0  0.42456395101E-02  0.13213243397E-01  0.42469775790E-02  0.14513858015E-01  0.00000000000E+00 0. -1.
     999901    1    3    3    0    0 -0.49929882722E-01  0.63731705602E-01  0.95571367479E-01  0.88886928722E+00  0.88000000000E+00 0. -1.
        -11    1    4    4    0    0  0.22569486687E-01 -0.10161462874E-01 -0.44012618269E-01  0.50497611280E-01  0.51100000000E-03 0.  1.
         11    1    4    4    0    0  0.23114756525E-01 -0.66783486125E-01 -0.55805726789E-01  0.90049243482E-01  0.51100000000E-03 0. -1.
</event>
<event>
 8    1  0.2257781E+004  0.1043930E+01  0.7957747E-01            NaN
         13   -1    0    0    0    0  0.00000000000E+00  0.00000000000E+00  0.74505805969E-08  0.10566000000E+00  0.10566000000E+00 0.  1.
     999900   -1    0    0    0    0 -0.00000000000E+00 -0.00000000000E+00 -0.74505805969E-08  0.93827000000E+00  0.93827000000E+00 0.  1.
     999902    2    1    2    0    0 -0.96306580078E-02  0.93285797883E-02  0.51781861656E-02  0.10295569145E+01  0.10294565822E+01 0.  0.
     999903    2    3    3    0    0 -0.10239319137E+00  0.86801815295E-01  0.22358112717E-02  0.14129138699E+00  0.44037897395E-01 0.  0.
         14    1    1    2    0    0  0.96306580078E-02 -0.93285797883E-02 -0.51781861656E-02  0.14373085490E-01  0.00000000000E+00 0.  1.
     999901    1    3    3    0    0  0.92762533364E-01 -0.77473235507E-01  0.29423748939E-02  0.88826552752E+00  0.88000000000E+00 0. -1.
        -11    1    4    4    0    0 -0.20188585573E-01  0.43899786287E-01  0.45400857029E-02  0.48534974221E-01  0.51100000000E-03 0. -1.
         11    1    4    4    0    0 -0.82204605799E-01  0.42902029008E-01 -0.23042744312E-02  0.92756412766E-01  0.51100000000E-03 0.  1.
</event>
<event>
 8    1  0.2257781E+004  0.1043930E+01  0.7957747E-01            NaN
         13   -1    0    0    0    0  0.00000000000E+00  0.00000000000E+00  0.74505805969E-08  0.10566000000E+00  0.10566000000E+00 0. -1.
     999900   -1    0    0    0    0 -0.00000000000E+00 -0.00000000000E+00 -0.74505805969E-08  0.93827000000E+00  0.93827000000E+00 0. -1.
     999902    2    1    2    0    0  0.22449258963E-02  0.13201699428E-01  0.17378263047E-02  0.10304264967E+01  0.10303380128E+01 0.  0.
     999903    2    3    3    0    0 -0.39253198060E-01  0.10930178454E+00 -0.66912321233E-01  0.14156758588E+00  0.45567850259E-01 0.  0.
         14    1    1    2    0    0 -0.22449258963E-02 -0.13201699428E-01 -0.17378263047E-02  0.13503503261E-01  0.00000000000E+00 0. -1.
     999901    1    3    3    0    0  0.41498123957E-01 -0.96100085117E-01  0.68650147538E-01  0.88885891086E+00  0.88000000000E+00 0.  1.
        -11    1    4    4    0    0 -0.90213531831E-02  0.67876634996E-01 -0.57520274031E-01  0.89428549341E-01  0.51100000000E-03 0.  1.
         11    1    4    4    0    0 -0.30231844877E-01  0.41425149549E-01 -0.93920472017E-02  0.52139036541E-01  0.51100000000E-03 0. -1.
</event>
<event>
 8    1  0.2257781E+004  0.1043930E+01  0.7957747E-01            NaN
         13   -1    0    0    0    0  0.00000000000E+00  0.00000000000E+00  0.74505805969E-08  0.10566000000E+00  0.10566000000E+00 0.  1.
     999900   -1    0    0    0    0 -0.00000000000E+00 -0.00000000000E+00 -0.74505805969E-08  0.93827000000E+00  0.93827000000E+00 0.  1.
     999902    2    1    2    0    0  0.56455481839E-02 -0.90332306826E-02  0.85710766775E-02  0.10302575889E+01  0.10301668625E+01 0.  0.
     999903    2    3    3    0    0 -0.10113507169E-01 -0.32561656255E-01 -0.12775949018E+00  0.13930980246E+00  0.43842778713E-01 0.  0.
         14    1    1    2    0    0 -0.56455481839E-02  0.90332306826E-02 -0.85710766775E-02  0.13672411136E-01  0.00000000000E+00 0. -1.
     999901    1    3    3    0    0  0.15759055353E-01  0.23528425573E-01  0.13633056686E+00  0.89094778640E+00  0.88000000000E+00 0. -1.
        -11    1    4    4    0    0  0.67309490711E-02 -0.20193878778E-02 -0.79237760074E-01  0.79550407575E-01  0.51100000000E-03 0.  1.
         11    1    4    4    0    0 -0.16844456240E-01 -0.30542268378E-01 -0.48521730107E-01  0.59759394887E-01  0.51100000000E-03 0. -1.
</event>
<event>
 8    1  0.2257781E+004  0.1043930E+01  0.7957747E-01            NaN
         13   -1    0    0    0    0  0.00000000000E+00  0.00000000000E+00  0.74505805969E-08  0.10566000000E+00  0.10566000000E+00 0.  1.
     999900   -1    0    0    0    0 -0.00000000000E+00 -0.00000000000E+00 -0.74505805969E-08  0.93827000000E+00  0.93827000000E+00 0. -1.
     999902    2    1    2    0    0 -0.11164661219E-01  0.40314308082E-02 -0.24542783246E-02  0.10318087139E+01  0.10317375134E+01 0.  0.
     999903    2    3    3    0    0  0.85817499619E-01  0.71451267080E-01  0.72852240883E-01  0.14072956721E+00  0.45027050500E-01 0.  0.
         14    1    1    2    0    0  0.11164661219E-01 -0.40314308082E-02  0.24542783246E-02  0.12121286095E-01  0.00000000000E+00 0.  1.
     999901    1    3    3    0    0 -0.96982160838E-01 -0.67419836272E-01 -0.75306519207E-01  0.89107914670E+00  0.88000000000E+00 0. -1.
        -11    1    4    4    0    0  0.46002229648E-02  0.99009874489E-02  0.26717298965E-01  0.28866360851E-01  0.51100000000E-03 0. -1.
         11    1    4    4    0    0  0.81217276654E-01  0.61550279631E-01  0.46134941918E-01  0.11186320636E+00  0.51100000000E-03 0.  1.
</event>
<event>
 8    1  0.2257781E+004  0.1043930E+01  0.7957747E-01            NaN
         13   -1    0    0    0    0  0.00000000000E+00  0.00000000000E+00  0.74505805969E-08  0.10566000000E+00  0.10566000000E+00 0. -1.
     999900   -1    0    0    0    0 -0.00000000000E+00 -0.00000000000E+00 -0.74505805969E-08  0.93827000000E+00  0.93827000000E+00 0.  1.
     999902    2    1    2    0    0  0.77525810282E-02  0.88108748474E-02 -0.46657780497E-02  0.10313005300E+01  0.10312231958E+01 0.  0.
     999903    2    3    3    0    0  0.24095386614E-01 -0.75708601452E-01 -0.10785666833E+00  0.14109887361E+00  0.44310847883E-01 0.  0.
         14    1    1    2    0    0 -0.77525810282E-02 -0.88108748474E-02  0.46657780497E-02  0.12629470020E-01  0.00000000000E+00 0. -1.
     999901    1    3    3    0    0 -0.16342805586E-01  0.84519476299E-01  0.10319089028E+00  0.89020165637E+00  0.88000000000E+00 0. -1.
        -11    1    4    4    0    0  0.36543936451E-01 -0.60463929871E-01 -0.77052789359E-01  0.10454061209E+00  0.51100000000E-03 0.  1.
         11    1    4    4    0    0 -0.12448549837E-01 -0.15244671581E-01 -0.30803878973E-01  0.36558261521E-01  0.51100000000E-03 0. -1.
</event>
<event>
 8    1  0.2257781E+004  0.1043930E+01  0.7957747E-01            NaN
         13   -1    0    0    0    0  0.00000000000E+00  0.00000000000E+00  0.74505805969E-08  0.10566000000E+00  0.10566000000E+00 0.  1.
     999900   -1    0    0    0    0 -0.00000000000E+00 -0.00000000000E+00 -0.74505805969E-08  0.93827000000E+00  0.93827000000E+00 0.  1.
     999902    2    1    2    0    0 -0.71307101439E-02  0.35375598850E-02 -0.93242430744E-02  0.10316701931E+01  0.10315973461E+01 0.  0.
     999903    2    3    3    0    0 -0.69657520930E-01  0.85722150072E-01 -0.78834227908E-01  0.14290951273E+00  0.44808884193E-01 0.  0.
         14    1    1    2    0    0  0.71307101439E-02 -0.35375598850E-02  0.93242430744E-02  0.12259806932E-01  0.00000000000E+00 0.  1.
     999901    1    3    3    0    0  0.62526810786E-01 -0.82184590187E-01  0.69509984833E-01  0.88876068034E+00  0.88000000000E+00 0. -1.
        -11    1    4    4    0    0 -0.53009395000E-01  0.51957656224E-01 -0.27304097143E-01  0.79090889743E-01  0.51100000000E-03 0. -1.
         11    1    4    4    0    0 -0.16648125930E-01  0.33764493848E-01 -0.51530130764E-01  0.63818622982E-01  0.51100000000E-03 0.  1.
</event>
<event>
 8    1  0.2257781E+004  0.1043930E+01  0.7957747E-01            NaN
         13   -1    0    0    0    0  0.00000000000E+00  0.00000000000E+00  0.74505805969E-08  0.10566000000E+00  0.10566000000E+00 0. -1.
     999900   -1    0    0    0    0 -0.00000000000E+00 -0.00000000000E+00 -0.74505805969E-08  0.93827000000E+00  0.93827000000E+00 0.  1.
     999902    2    1    2    0    0  0.16669013715E-01 -0.41826107939E-03  0.10519249684E-02  0.10272225913E+01  0.10270867123E+01 0.  0.
     999903    2    3    3    0    0  0.13091134383E+00 -0.28159430883E-02 -0.17227233517E-01  0.13964657395E+00  0.45372663165E-01 0.  0.
         14    1    1    2    0    0 -0.16669013715E-01  0.41826107939E-03 -0.10519249684E-02  0.16707408737E-01  0.00000000000E+00 0.  1.
     999901    1    3    3    0    0 -0.11424233012E+00  0.23976820089E-02  0.18279158485E-01  0.88757601731E+00  0.88000000000E+00 0. -1.
        -11    1    4    4    0    0  0.88297305319E-01  0.86152747095E-02  0.75560095947E-02  0.89039269353E-01  0.51100000000E-03 0.  1.
         11    1    4    4    0    0  0.42614038513E-01 -0.11431217798E-01 -0.24783243111E-01  0.50607304600E-01  0.51100000000E-03 0. -1.
</event>
<event>
 8    1  0.2257781E+004  0.1043930E+01  0.7957747E-01            NaN
         13   -1    0    0    0    0  0.00000000000E+00  0.00000000000E+00  0.74505805969E-08  0.10566000000E+00  0.10566000000E+00 0.  1.
     999900   -1    0    0    0    0 -0.00000000000E+00 -0.00000000000E+00 -0.74505805969E-08  0.93827000000E+00  0.93827000000E+00 0. -1.
     999902    2    1    2    0    0 -0.21586166347E-02 -0.94425980074E-02 -0.78543145818E-02  0.10314595333E+01  0.10313841458E+01 0.  0.
     999903    2    3    3    0    0 -0.12930336213E+00 -0.36850587421E-01  0.88224804186E-02  0.14174323035E+00  0.43999794759E-01 0.  0.
         14    1    1    2    0    0  0.21586166347E-02  0.94425980074E-02  0.78543145818E-02  0.12470466730E-01  0.00000000000E+00 0. -1.
     999901    1    3    3    0    0  0.12714474549E+00  0.27407989414E-01 -0.16676795000E-01  0.88971630292E+00  0.88000000000E+00 0.  1.
        -11    1    4    4    0    0 -0.52990670306E-01 -0.11110043283E-01 -0.17676024447E-01  0.56957415342E-01  0.51100000000E-03 0. -1.
         11    1    4    4    0    0 -0.76312691821E-01 -0.25740544138E-01  0.26498504866E-01  0.84785815008E-01  0.51100000000E-03 0.  1.
</event>
<event>
 8    1  0.2257781E+004  0.1043930E+01  0.7957747E-01            NaN
         13   -1    0    0    0    0  0.00000000000E+00  0.00000000000E+00  0.74505805969E-08  0.10566000000E+00  0.10566000000E+00 0. -1.
     999900   -1    0    0    0    0 -0.00000000000E+00 -0.00000000000E+00 -0.74505805969E-08  0.93827000000E+00  0.93827000000E+00 0.  1.
     999902    2    1    2    0    0 -0.18783806244E-03 -0.12240748214E-01  0.62895680180E-02  0.10301666477E+01  0.10300747023E+01 0.  0.
     999903    2    3    3    0    0 -0.72035583763E-01  0.34389661127E-01  0.10611217835E+00  0.14039080676E+00  0.45585196148E-01 0.  0.
         14    1    1    2    0    0  0.18783806244E-03  0.12240748214E-01 -0.62895680180E-02  0.13763352275E-01  0.00000000000E+00 0.  1.
     999901    1    3    3    0    0  0.71847745700E-01 -0.46630409341E-01 -0.99822610329E-01  0.88977584097E+00  0.88000000000E+00 0.  1.
        -11    1    4    4    0    0 -0.16433857637E-01  0.27608246844E-01  0.59059123806E-01  0.67234873364E-01  0.51100000000E-03 0. -1.
         11    1    4    4    0    0 -0.55601726126E-01  0.67814142827E-02  0.47053054542E-01  0.73155933393E-01  0.51100000000E-03 0.  1.
</event>
<event>
 8    1  0.2257781E+004  0.1043930E+01  0.7957747E-01            NaN
         13   -1    0    0    0    0  0.00000000000E+00  0.00000000000E+00  0.74505805969E-08  0.10566000000E+00  0.10566000000E+00 0.  1.
     999900   -1    0    0    0    0 -0.00000000000E+00 -0.00000000000E+00 -0.74505805969E-08  0.93827000000E+00  0.93827000000E+00 0. -1.
     999902    2    1    2    0    0 -0.54980608604E-02 -0.23566188643E-02  0.12073995468E-01  0.10304554428E+01  0.10303673403E+01 0.  0.
     999903    2    3    3    0    0  0.91774391428E-01 -0.90532488251E-01 -0.29444077250E-01  0.13974748600E+00  0.45207696318E-01 0.  0.
         14    1    1    2    0    0  0.54980608604E-02  0.23566188643E-02 -0.12073995468E-01  0.13474557219E-01  0.00000000000E+00 0. -1.
     999901    1    3    3    0    0 -0.97272452288E-01  0.88175869387E-01  0.41518072718E-01  0.89070795678E+00  0.88000000000E+00 0.  1.
        -11    1    4    4    0    0  0.64751947781E-01 -0.35491741390E-01 -0.59492434754E-02  0.74081934824E-01  0.51100000000E-03 0. -1.
         11    1    4    4    0    0  0.27022443647E-01 -0.55040746861E-01 -0.23494833775E-01  0.65665551173E-01  0.51100000000E-03 0.  1.
</event>
<event>
 8    1  0.2257781E+004  0.1043930E+01  0.7957747E-01            NaN
         13   -1    0    0    0    0  0.00000000000E+00  0.00000000000E+00  0.74505805969E-08  0.10566000000E+00  0.10566000000E+00 0.  1.
     999900   -1    0    0    0    0 -0.00000000000E+00 -0.00000000000E+00 -0.74505805969E-08  0.93827000000E+00  0.93827000000E+00 0.  1.
     999902    2    1    2    0    0  0.11219205024E-01 -0.27509664126E-02  0.64001862510E-02  0.10307239119E+01  0.10306393074E+01 0.  0.
     999903    2    3    3    0    0  0.81534929296E-01  0.30792152228E-01 -0.10107760973E+00  0.14076834086E+00  0.44754231813E-01 0.  0.
         14    1    1    2    0    0 -0.11219205024E-01  0.27509664126E-02 -0.64001862510E-02  0.13206088051E-01  0.00000000000E+00 0. -1.
     999901    1    3    3    0    0 -0.70315724272E-01 -0.33543118641E-01  0.10747779598E+00  0.88995557109E+00  0.88000000000E+00 0. -1.
        -11    1    4    4    0    0  0.55308655015E-01  0.20198128317E-02 -0.39817205160E-01  0.68182093772E-01  0.51100000000E-03 0. -1.
         11    1    4    4    0    0  0.26226274281E-01  0.28772339397E-01 -0.61260404568E-01  0.72586247085E-01  0.51100000000E-03 0.  1.
</event>
<event>
 7    1  0.2321309E+004  0.1043930E+01  0.7957747E-01            NaN
         13   -1    0    0    0    0  0.00000000000E+00  0.00000000000E+00  0.74505805969E-08  0.10566000000E+00  0.10566000000E+00 0.  1.
     999900   -1    0    0    0    0 -0.00000000000E+00 -0.00000000000E+00 -0.74505805969E-08  0.93827000000E+00  0.93827000000E+00 0. -1.
     999903    2    1    2    0    0  0.18169872490E-01  0.74504954982E-01 -0.67777045825E-01  0.11159711103E+00  0.44486567270E-01 0.  0.
         14    1    1    2    0    0  0.29574188679E-01 -0.33225891920E-01 -0.13107846182E-01  0.46372493587E-01  0.00000000000E+00 0. -1.
     999901    1    1    2    0    0 -0.47744061169E-01 -0.41279063062E-01  0.80884892007E-01  0.88596039538E+00  0.88000000000E+00 0.  1.
        -11    1    3    3    0    0  0.31982182571E-01  0.53738258478E-01 -0.39868909798E-01  0.74165028927E-01  0.51100000000E-03 0. -1.
         11    1    3    3    0    0 -0.13812310081E-01  0.20766696504E-01 -0.27908136027E-01  0.37432082108E-01  0.51100000000E-03 0.  1.
</event>
<event>
 8    1  0.2257781E+004  0.1043930E+01  0.7957747E-01            NaN
         13   -1    0    0    0    0  0.00000000000E+00  0.00000000000E+00  0.74505805969E-08  0.10566000000E+00  0.10566000000E+00 0. -1.
     999900   -1    0    0    0    0 -0.00000000000E+00 -0.00000000000E+00 -0.74505805969E-08  0.93827000000E+00  0.93827000000E+00 0.  1.
     999902    2    1    2    0    0  0.96136881938E-02  0.79059758514E-02 -0.34060211765E-02  0.10310254103E+01  0.10309446485E+01 0.  0.
     999903    2    3    3    0    0 -0.69527209693E-01 -0.10797156034E+00  0.28374947794E-01  0.13934109672E+00  0.46031650446E-01 0.  0.
         14    1    1    2    0    0 -0.96136881938E-02 -0.79059758514E-02  0.34060211765E-02  0.12904589692E-01  0.00000000000E+00 0. -1.
     999901    1    3    3    0    0  0.79140897886E-01  0.11587753619E+00 -0.31780968971E-01  0.89168431359E+00  0.88000000000E+00 0. -1.
        -11    1    4    4    0    0 -0.10148399792E-01 -0.51365631093E-01 -0.51708527199E-03  0.52363599705E-01  0.51100000000E-03 0.  1.
         11    1    4    4    0    0 -0.59378809901E-01 -0.56605929247E-01  0.28892033066E-01  0.86977497014E-01  0.51100000000E-03 0. -1.
</event>
<event>
 8    1  0.2257781E+004  0.1043930E+01  0.7957747E-01            NaN
         13   -1    0    0    0    0  0.00000000000E+00  0.00000000000E+00  0.74505805969E-08  0.10566000000E+00  0.10566000000E+00 0.  1.
     999900   -1    0    0    0    0 -0.00000000000E+00 -0.00000000000E+00 -0.74505805969E-08  0.93827000000E+00  0.93827000000E+00 0.  1.
     999902    2    1    2    0    0 -0.11324073249E-01  0.67018881955E-02  0.44051262638E-02  0.10300535784E+01  0.10299601056E+01 0.  0.
     999903    2    3    3    0    0  0.85788949198E-01  0.10096381620E+00  0.29915226663E-03  0.13969797006E+00  0.44294439385E-01 0.  0.
         14    1    1    2    0    0  0.11324073249E-01 -0.67018881955E-02 -0.44051262638E-02  0.13876421647E-01  0.00000000000E+00 0. -1.
     999901    1    3    3    0    0 -0.97113022447E-01 -0.94261928003E-01  0.41059739972E-02  0.89035560829E+00  0.88000000000E+00 0.  1.
        -11    1    4    4    0    0  0.12296218152E-01  0.43708107252E-01 -0.82158975805E-02  0.46144964129E-01  0.51100000000E-03 0.  1.
         11    1    4    4    0    0  0.73492731046E-01  0.57255708947E-01  0.85150498471E-02  0.93553005929E-01  0.51100000000E-03 0. -1.
</event>
<event>
 8    1  0.2257781E+004  0.1043930E+01  0.7957747E-01            NaN
         13   -1    0    0    0    0  0.00000000000E+00  0.00000000000E+00  0.74505805969E-08  0.10566000000E+00  0.10566000000E+00 0.  1.
     999900   -1    0    0    0    0 -0.00000000000E+00 -0.00000000000E+00 -0.74505805969E-08  0.93827000000E+00  0.93827000000E+00 0. -1.
     999902    2    1    2    0    0 -0.58231575079E-02  0.30861963775E-02 -0.12693592895E-01  0.10296275152E+01  0.10295281730E+01 0.  0.
     999903    2    3    3    0    0 -0.40534836453E-03  0.64181426328E-01  0.11399766617E+00  0.13844142075E+00  0.45289505361E-01 0.  0.
         14    1    1    2    0    0  0.58231575079E-02 -0.30861963775E-02  0.12693592895E-01  0.14302484820E-01  0.00000000000E+00 0.  1.
     999901    1    3    3    0    0 -0.54178091434E-02 -0.61095229950E-01 -0.12669125906E+00  0.89118609443E+00  0.88000000000E+00 0. -1.
        -11    1    4    4    0    0  0.13963533547E-01  0.53878395917E-01  0.61038706481E-01  0.82606577375E-01  0.51100000000E-03 0.  1.
         11    1    4    4    0    0 -0.14368881912E-01  0.10303030411E-01  0.52958959685E-01  0.55834843377E-01  0.51100000000E-03 0. -1.
</event>
<event>
 8    1  0.2257781E+004  0.1043930E+01  0.7957747E-01            NaN
         13   -1    0    0    0    0  0.00000000000E+00  0.00000000000E+00  0.74505805969E-08  0.10566000000E+00  0.10566000000E+00 0.  1.
     999900   -1    0    0    0    0 -0.00000000000E+00 -0.00000000000E+00 -0.74505805969E-08  0.93827000000E+00  0.93827000000E+00 0. -1.
     999902    2    1    2    0    0  0.47660047233E-03 -0.62642623030E-02 -0.12522754365E-01  0.10299197357E+01  0.10298244386E+01 0.  0.
     999903    2    3    3    0    0 -0.24731963681E-01 -0.10314693886E+00 -0.82263758627E-01  0.14150230426E+00  0.44772928246E-01 0.  0.
         14    1    1    2    0    0 -0.47660047233E-03  0.62642623030E-02  0.12522754365E-01  0.14010264348E-01  0.00000000000E+00 0.  1.
     999901    1    3    3    0    0  0.25208564154E-01  0.96882676559E-01  0.69741004261E-01  0.88841743139E+00  0.88000000000E+00 0.  1.
        -11    1    4    4    0    0  0.12361209343E-01 -0.39835083578E-01 -0.31644106065E-01  0.52356890184E-01  0.51100000000E-03 0. -1.
         11    1    4    4    0    0 -0.37093173024E-01 -0.63311855284E-01 -0.50619652562E-01  0.89145414077E-01  0.51100000000E-03 0.  1.
</event>
<event>
 8    1  0.2257781E+004  0.1043930E+01  0.7957747E-01            NaN
         13   -1    0    0    0    0  0.00000000000E+00  0.00000000000E+00  0.74505805969E-08  0.10566000000E+00  0.10566000000E+00 0.  1.
     999900   -1    0    0    0    0 -0.00000000000E+00 -0.00000000000E+00 -0.74505805969E-08  0.93827000000E+00  0.93827000000E+00 0.  1.
     999902    2    1    2    0    0  0.18750136279E-02 -0.10120215451E-01  0.88149865156E-02  0.10303786745E+01  0.10302895585E+01 0.  0.
     999903    2    3    3    0    0  0.20958893511E-01 -0.91848275042E-01  0.96418201831E-01  0.14205553869E+00  0.44809882644E-01 0.  0.
         14    1    1    2    0    0 -0.18750136279E-02  0.10120215451E-01 -0.88149865156E-02  0.13551325549E-01  0.00000000000E+00 0. -1.
     999901    1    3    3    0    0 -0.19083879883E-01  0.81728059591E-01 -0.87603215315E-01  0.88832313576E+00  0.88000000000E+00 0.  1.
        -11    1    4    4    0    0  0.24109270242E-02 -0.28669002889E-01  0.47125410268E-02  0.29158077092E-01  0.51100000000E-03 0.  1.
         11    1    4    4    0    0  0.18547966486E-01 -0.63179272153E-01  0.91705660804E-01  0.11289746160E+00  0.51100000000E-03 0. -1.
</event>
<event>
 8    1  0.2257781E+004  0.1043930E+01  0.7957747E-01            NaN
         13   -1    0    0    0    0  0.00000000000E+00  0.00000000000E+00  0.74505805969E-08  0.10566000000E+00  0.10566000000E+00 0.  1.
     999900   -1    0    0    0    0 -0.00000000000E+00 -0.00000000000E+00 -0.74505805969E-08  0.93827000000E+00  0.93827000000E+00 0. -1.
     999902    2    1    2    0    0 -0.46479891941E-02  0.12076509282E-01 -0.80169517226E-02  0.10287077336E+01  0.10285951019E+01 0.  0.
     999903    2    3    3    0    0 -0.97739213132E-01 -0.54810430509E-01 -0.70942770899E-01  0.13904515855E+00  0.41755745686E-01 0.  0.
         14    1    1    2    0    0  0.46479891941E-02 -0.12076509282E-01  0.80169517226E-02  0.15222266418E-01  0.00000000000E+00 0.  1.
     999901    1    3    3    0    0  0.93091223938E-01  0.66886939790E-01  0.62925819177E-01  0.88966257503E+00  0.88000000000E+00 0. -1.
        -11    1    4    4    0    0 -0.49187080441E-01 -0.29956765065E-01 -0.60459464118E-01  0.83500805852E-01  0.51100000000E-03 0. -1.
         11    1    4    4    0    0 -0.48552132691E-01 -0.24853665444E-01 -0.10483306781E-01  0.55544352701E-01  0.51100000000E-03 0.  1.
</event>
<event>
 8    1  0.2257781E+004  0.1043930E+01  0.7957747E-01            NaN
         13   -1    0    0    0    0  0.00000000000E+00  0.00000000000E+00  0.74505805969E-08  0.10566000000E+00  0.10566000000E+00 0.  1.
     999900   -1    0    0    0    0 -0.00000000000E+00 -0.00000000000E+00 -0.74505805969E-08  0.93827000000E+00  0.93827000000E+00 0. -1.
     999902    2    1    2    0    0 -0.10820204661E-01 -0.29700354832E-02 -0.10396105259E-01  0.10286336951E+01  0.10285199569E+01 0.  0.
     999903    2    3    3    0    0 -0.10805843669E+00  0.91133309868E-02  0.74689957690E-01  0.13911645544E+00  0.44890086347E-01 0.  0.
         14    1    1    2    0    0  0.10820204661E-01  0.29700354832E-02  0.10396105259E-01  0.15296304921E-01  0.00000000000E+00 0.  1.
     999901    1    3    3    0    0  0.97238232028E-01 -0.12083366470E-01 -0.85086062949E-01  0.88951723964E+00  0.88000000000E+00 0. -1.
        -11    1    4    4    0    0 -0.57148118141E-01  0.27244959758E-01  0.39455502489E-01  0.74600221427E-01  0.51100000000E-03 0.  1.
         11    1    4    4    0    0 -0.50910318547E-01 -0.18131628771E-01  0.35234455201E-01  0.64516234010E-01  0.51100000000E-03 0. -1.
</event>
<event>
 8    1  0.2257781E+004  0.1043930E+01  0.7957747E-01            NaN
         13   -1    0    0    0    0  0.00000000000E+00  0.00000000000E+00  0.74505805969E-08  0.10566000000E+00  0.10566000000E+00 0.  1.
     999900   -1    0    0    0    0 -0.00000000000E+00 -0.00000000000E+00 -0.74505805969E-08  0.93827000000E+00  0.93827000000E+00 0.  1.
     999902    2    1    2    0    0 -0.99392997331E-02 -0.47880955032E-02  0.82734920730E-02  0.10301399235E+01  0.10300476182E+01 0.  0.
     999903    2    3    3    0    0 -0.11032600623E+00  0.62153217828E-01 -0.41569390571E-01  0.14050913314E+00  0.44496652984E-01 0.  0.
         14    1    1    2    0    0  0.99392997331E-02  0.47880955032E-02 -0.82734920730E-02  0.13790076461E-01  0.00000000000E+00 0. -1.
     999901    1    3    3    0    0  0.10038670650E+00 -0.66941313331E-01  0.49842882644E-01  0.88963079040E+00  0.88000000000E+00 0. -1.
        -11    1    4    4    0    0 -0.94165055717E-01  0.63453948005E-01 -0.23007240095E-01  0.11585791062E+00  0.51100000000E-03 0.  1.
         11    1    4    4    0    0 -0.16160950513E-01 -0.13007301774E-02 -0.18562150476E-01  0.24651222521E-01  0.51100000000E-03 0. -1.
</event>
<event>
 8    1  0.2257781E+004  0.1043930E+01  0.7957747E-01            NaN
         13   -1    0    0    0    0  0.00000000000E+00  0.00000000000E+00  0.74505805969E-08  0.10566000000E+00  0.10566000000E+00 0.  1.
     999900   -1    0    0    0    0 -0.00000000000E+00 -0.00000000000E+00 -0.74505805969E-08  0.93827000000E+00  0.93827000000E+00 0. -1.
     999902    2    1    2    0    0  0.17965150065E-02  0.40214942507E-02  0.13058266501E-01  0.10301489185E+01  0.10300567344E+01 0.  0.
     999903    2    3    3    0    0  0.73436921794E-01  0.55944682611E-01 -0.96053997967E-01  0.13900703779E+00  0.39671110825E-01 0.  0.
         14    1    1    2    0    0 -0.17965150065E-02 -0.40214942507E-02 -0.13058266501E-01  0.13781081460E-01  0.00000000000E+00 0. -1.
     999901    1    3    3    0    0 -0.71640406787E-01 -0.51923188361E-01  0.10911226447E+00  0.89114188075E+00  0.88000000000E+00 0.  1.
        -11    1    4    4    0    0  0.23950466107E-01 -0.78877392790E-03 -0.33111795899E-01  0.40876633175E-01  0.51100000000E-03 0.  1.
         11    1    4    4    0    0  0.49486455687E-01  0.56733456539E-01 -0.62942202068E-01  0.98130404613E-01  0.51100000000E-03 0. -1.
</event>
<event>
 8    1  0.2257781E+004  0.1043930E+01  0.7957747E-01            NaN
         13   -1    0    0    0    0  0.00000000000E+00  0.00000000000E+00  0.74505805969E-08  0.10566000000E+00  0.10566000000E+00 0.  1.
     999900   -1    0    0    0    0 -0.00000000000E+00 -0.00000000000E+00 -0.74505805969E-08  0.93827000000E+00  0.93827000000E+00 0.  1.
     999902    2    1    2    0    0 -0.11528555517E-01 -0.91763999135E-02 -0.14501855337E-02  0.10291240233E+01  0.10290175112E+01 0.  0.
     999903    2    3    3    0    0 -0.25073046990E-01 -0.12679480292E+00  0.32711271206E-01  0.14053832283E+00  0.44445620541E-01 0.  0.
         14    1    1    2    0    0  0.11528555517E-01  0.91763999135E-02  0.14501855337E-02  0.14805976690E-01  0.00000000000E+00 0. -1.
     999901    1    3    3    0    0  0.13544491473E-01  0.11761840301E+00 -0.34161456739E-01  0.88858570048E+00  0.88000000000E+00 0.  1.
        -11    1    4    4    0    0 -0.14826703815E-01 -0.43146264082E-01  0.32921202749E-01  0.56262758212E-01  0.51100000000E-03 0.  1.
         11    1    4    4    0    0 -0.10246343175E-01 -0.83648538842E-01 -0.20993154326E-03  0.84275564615E-01  0.51100000000E-03 0. -1.
</event>
<event>
 8    1  0.2257781E+004  0.1043930E+01  0.7957747E-01            NaN
         13   -1    0    0    0    0  0.00000000000E+00  0.00000000000E+00  0.74505805969E-08  0.10566000000E+00  0.10566000000E+00 0.  1.
     999900   -1    0    0    0    0 -0.00000000000E+00 -0.00000000000E+00 -0.74505805969E-08  0.93827000000E+00  0.93827000000E+00 0. -1.
     999902    2    1    2    0    0  0.37585860450E-02  0.11759000074E-01  0.32981218570E-02  0.10311519462E+01  0.10310727702E+01 0.  0.
     999903    2    3    3    0    0  0.10709810904E-01  0.93939789678E-01  0.96773139731E-01  0.14236649362E+00  0.44314713105E-01 0.  0.
         14    1    1    2    0    0 -0.37585860450E-02 -0.11759000074E-01 -0.32981218570E-02  0.12778053826E-01  0.00000000000E+00 0. -1.
     999901    1    3    3    0    0 -0.69512248587E-02 -0.82180789605E-01 -0.93475017874E-01  0.88878545256E+00  0.88000000000E+00 0. -1.
        -11    1    4    4    0    0 -0.11073704074E-01  0.59482693220E-01  0.40237227892E-01  0.72664388417E-01  0.51100000000E-03 0. -1.
         11    1    4    4    0    0  0.21783514978E-01  0.34457096458E-01  0.56535911839E-01  0.69702105202E-01  0.51100000000E-03 0.  1.
</event>
<event>
 8    1  0.2257781E+004  0.1043930E+01  0.7957747E-01            NaN
         13   -1    0    0    0    0  0.00000000000E+00  0.00000000000E+00  0.74505805969E-08  0.10566000000E+00  0.10566000000E+00 0. -1.
     999900   -1    0    0    0    0 -0.00000000000E+00 -0.00000000000E+00 -0.74505805969E-08  0.93827000000E+00  0.93827000000E+00 0. -1.
     999902    2    1    2    0    0 -0.56748377156E-02 -0.46425317284E-02 -0.11992565073E-01  0.10298737380E+01  0.10297778099E+01 0.  0.
     999903    2    3    3    0    0  0.15241695300E-01  0.13022982512E+00  0.16321783214E-01  0.13890249476E+00  0.42841403071E-01 0.  0.
         14    1    1    2    0    0  0.56748377156E-02  0.46425317284E-02  0.11992565073E-01  0.14056261985E-01  0.00000000000E+00 0.  1.
     999901    1    3    3    0    0 -0.20916533016E-01 -0.13487235684E+00 -0.28314348287E-01  0.89097124326E+00  0.88000000000E+00 0.  1.
        -11    1    4    4    0    0  0.21408226165E-01  0.88800617878E-01 -0.58020316373E-02  0.91530249509E-01  0.51100000000E-03 0.  1.
         11    1    4    4    0    0 -0.61665308647E-02  0.41429207238E-01  0.22123814851E-01  0.47372245249E-01  0.51100000000E-03 0. -1.
</event>
<event>
 8    1  0.2257781E+004  0.1043930E+01  0.7957747E-01            NaN
         13   -1    0    0    0    0  0.00000000000E+00  0.00000000000E+00  0.74505805969E-08  0.10566000000E+00  0.10566000000E+00 0. -1.
     999900   -1    0    0    0    0 -0.00000000000E+00 -0.00000000000E+00 -0.74505805969E-08  0.93827000000E+00  0.93827000000E+00 0.  1.
     999902    2    1    2    0    0  0.13843316140E-01 -0.19537987670E-02  0.19351092485E-02  0.10298161990E+01  0.10297194785E+01 0.  0.
     999903    2    3    3    0    0 -0.30944297859E-01  0.11801212977E+00 -0.47519040174E-01  0.13917403331E+00  0.47190465407E-01 0.  0.
         14    1    1    2    0    0 -0.13843316140E-01  0.19537987670E-02 -0.19351092485E-02  0.14113801018E-01  0.00000000000E+00 0. -1.
     999901    1    3    3    0    0  0.44787614000E-01 -0.11996592854E+00  0.49454149423E-01  0.89064216567E+00  0.88000000000E+00 0. -1.
        -11    1    4    4    0    0  0.10194212488E-01  0.23980685026E-01 -0.20167221632E-01  0.32954107057E-01  0.51100000000E-03 0.  1.
         11    1    4    4    0    0 -0.41138510347E-01  0.94031444745E-01 -0.27351818542E-01  0.10621992625E+00  0.51100000000E-03 0. -1.
</event>
<event>
 7    1  0.2257781E+004  0.1043930E+01  0.7957747E-01            NaN
         13   -1    0    0    0    0  0.00000000000E+00  0.00000000000E+00  0.74505805969E-08  0.10566000000E+00  0.10566000000E+00 0. -1.
     999900   -1    0    0    0    0 -0.00000000000E+00 -0.00000000000E+00 -0.74505805969E-08  0.93827000000E+00  0.93827000000E+00 0. -1.
     999903    2    1    2    0    0  0.71969348078E-01  0.66933532365E-01  0.68349476810E-02  0.10869688659E+00  0.45919623552E-01 0.  0.
         14    1    1    2    0    0 -0.29968725958E-01  0.34962075726E-01 -0.14653699546E-01  0.48323929734E-01  0.00000000000E+00 0.  1.
     999901    1    1    2    0    0 -0.42000622120E-01 -0.10189560809E+00  0.78187518647E-02  0.88690918368E+00  0.88000000000E+00 0.  1.
        -11    1    3    3    0    0  0.48126115725E-01  0.60783558928E-01  0.20948042493E-01  0.80310931111E-01  0.51100000000E-03 0.  1.
         11    1    3    3    0    0  0.23843232353E-01  0.61499734371E-02 -0.14113094812E-01  0.28385955479E-01  0.51100000000E-03 0. -1.
</event>
<event>
 7    1  0.2257781E+004  0.1043930E+01  0.7957747E-01            NaN
         13   -1    0    0    0    0  0.00000000000E+00  0.00000000000E+00  0.74505805969E-08  0.10566000000E+00  0.10566000000E+00 0.  1.
     999900   -1    0    0    0    0 -0.00000000000E+00 -0.00000000000E+00 -0.74505805969E-08  0.93827000000E+00  0.93827000000E+00 0. -1.
     999903    2    1    2    0    0  0.47451739781E-01 -0.18751416071E-01  0.84898792533E-01  0.10944535081E+00  0.46553159166E-01 0.  0.
         14    1    1    2    0    0 -0.26654840708E-01  0.30682945379E-01  0.24389640126E-01  0.47400192149E-01  0.00000000000E+00 0.  1.
     999901    1    1    2    0    0 -0.20796899073E-01 -0.11931529308E-01 -0.10928843266E+00  0.88708445704E+00  0.88000000000E+00 0. -1.
        -11    1    3    3    0    0  0.32673204040E-01 -0.80608012975E-02  0.84759982424E-01  0.91197755023E-01  0.51100000000E-03 0. -1.
         11    1    3    3    0    0  0.14778535741E-01 -0.10690614774E-01  0.13881010871E-03  0.18247595791E-01  0.51100000000E-03 0.  1.
</event>
<event>
 8    1  0.2257781E+004  0.1043930E+01  0.7957747E-01            NaN
         13   -1    0    0    0    0  0.00000000000E+00  0.00000000000E+00  0.74505805969E-08  0.10566000000E+00  0.10566000000E+00 0. -1.
     999900   -1    0    0    0    0 -0.00000000000E+00 -0.00000000000E+00 -0.74505805969E-08  0.93827000000E+00  0.93827000000E+00 0.  1.
     999902    2    1    2    0    0  0.12140119654E-01  0.24088847421E-02  0.49672893292E-02  0.10305936139E+01  0.10305073206E+01 0.  0.
     999903    2    3    3    0    0 -0.71933339182E-01 -0.97101086872E-01  0.52958729303E-01  0.13970991821E+00  0.45947882215E-01 0.  0.
         14    1    1    2    0    0 -0.12140119654E-01 -0.24088847421E-02 -0.49672893292E-02  0.13336386100E-01  0.00000000000E+00 0.  1.
     999901    1    3    3    0    0  0.84073458836E-01  0.99509971614E-01 -0.47991439973E-01  0.89088369569E+00  0.88000000000E+00 0.  1.
        -11    1    4    4    0    0 -0.16280862971E-01 -0.48924984445E-01  0.48932385887E-02  0.51796964263E-01  0.51100000000E-03 0. -1.
         11    1    4    4    0    0 -0.55652476211E-01 -0.48176102427E-01  0.48065490714E-01  0.87912953949E-01  0.51100000000E-03 0.  1.
</event>
<event>
 8    1  0.2257781E+004  0.1043930E+01  0.7957747E-01            NaN
         13   -1    0    0    0    0  0.00000000000E+00  0.00000000000E+00  0.74505805969E-08  0.10566000000E+00  0.10566000000E+00 0. -1.
     999900   -1    0    0    0    0 -0.00000000000E+00 -0.00000000000E+00 -0.74505805969E-08  0.93827000000E+00  0.93827000000E+00 0. -1.
     999902    2    1    2    0    0 -0.51745120016E-02  0.88598202894E-02 -0.10272346583E-01  0.10294112847E+01  0.10293088943E+01 0.  0.
     999903    2    3    3    0    0  0.12492914881E+00  0.39372335220E-01 -0.13513285196E-01  0.13931663814E+00  0.45486742943E-01 0.  0.
         14    1    1    2    0    0  0.51745120016E-02 -0.88598202894E-02  0.10272346583E-01  0.14518715313E-01  0.00000000000E+00 0. -1.
     999901    1    3    3    0    0 -0.13010366081E+00 -0.30512514931E-01  0.32409386123E-02  0.89009464654E+00  0.88000000000E+00 0. -1.
        -11    1    4    4    0    0  0.30241336292E-01  0.15419404318E-01  0.15651440864E-01  0.37383487964E-01  0.51100000000E-03 0. -1.
         11    1    4    4    0    0  0.94687812518E-01  0.23952930903E-01 -0.29164726059E-01  0.10193315018E+00  0.51100000000E-03 0.  1.
</event>
<event>
 8    1  0.2257781E+004  0.1043930E+01  0.7957747E-01            NaN
         13   -1    0    0    0    0  0.00000000000E+00  0.00000000000E+00  0.74505805969E-08  0.10566000000E+00  0.10566000000E+00 0. -1.
     999900   -1    0    0    0    0 -0.00000000000E+00 -0.00000000000E+00 -0.74505805969E-08  0.93827000000E+00  0.93827000000E+00 0. -1.
     999902    2    1    2    0    0 -0.13695022853E-01  0.21864541749E-02 -0.15847011312E-02  0.10299712927E+01  0.10298767005E+01 0.  0.
     999903    2    3    3    0    0  0.19968164964E-01 -0.12238473444E+00 -0.46042280088E-01  0.13945028361E+00  0.44155851329E-01 0.  0.
         14    1    1    2    0    0  0.13695022853E-01 -0.21864541749E-02  0.15847011312E-02  0.13958707336E-01  0.00000000000E+00 0. -1.
     999901    1    3    3    0    0 -0.33663187818E-01  0.12457118861E+00  0.44457578956E-01  0.89052100906E+00  0.88000000000E+00 0. -1.
        -11    1    4    4    0    0  0.32410868426E-01 -0.64642006413E-01 -0.29570408743E-01  0.78126330897E-01  0.51100000000E-03 0.  1.
         11    1    4    4    0    0 -0.12442703462E-01 -0.57742728026E-01 -0.16471871344E-01  0.61323952709E-01  0.51100000000E-03 0. -1.
</event>
<event>
 8    1  0.2257781E+004  0.1043930E+01  0.7957747E-01            NaN
         13   -1    0    0    0    0  0.00000000000E+00  0.00000000000E+00  0.74505805969E-08  0.10566000000E+00  0.10566000000E+00 0. -1.
     999900   -1    0    0    0    0 -0.00000000000E+00 -0.00000000000E+00 -0.74505805969E-08  0.93827000000E+00  0.93827000000E+00 0.  1.
     999902    2    1    2    0    0  0.52988154316E-02  0.25003321694E-02 -0.11548068776E-01  0.10309805985E+01  0.10308992713E+01 0.  0.
     999903    2    3    3    0    0 -0.65440359727E-01  0.87643004413E-01  0.74654512377E-01  0.13986658196E+00  0.45006973085E-01 0.  0.
         14    1    1    2    0    0 -0.52988154316E-02 -0.25003321694E-02  0.11548068776E-01  0.12949401468E-01  0.00000000000E+00 0. -1.
     999901    1    3    3    0    0  0.70739175159E-01 -0.85142672243E-01 -0.86202581153E-01  0.89111401657E+00  0.88000000000E+00 0.  1.
        -11    1    4    4    0    0 -0.19118446814E-01  0.48669136421E-01  0.13919535851E-01  0.54112978553E-01  0.51100000000E-03 0.  1.
         11    1    4    4    0    0 -0.46321912913E-01  0.38973867992E-01  0.60734976526E-01  0.85753603404E-01  0.51100000000E-03 0. -1.
</event>
<event>
 8    1  0.2257781E+004  0.1043930E+01  0.7957747E-01            NaN
         13   -1    0    0    0    0  0.00000000000E+00  0.00000000000E+00  0.74505805969E-08  0.10566000000E+00  0.10566000000E+00 0. -1.
     999900   -1    0    0    0    0 -0.00000000000E+00 -0.00000000000E+00 -0.74505805969E-08  0.93827000000E+00  0.93827000000E+00 0. -1.
     999902    2    1    2    0    0 -0.12237475099E-01  0.58332788203E-02  0.50975125962E-02  0.10294466450E+01  0.10293447563E+01 0.  0.
     999903    2    3    3    0    0  0.55475593840E-02 -0.75780631557E-01  0.10825523533E+00  0.13949234637E+00  0.44333274024E-01 0.  0.
         14    1    1    2    0    0  0.12237475099E-01 -0.58332788203E-02 -0.50975125962E-02  0.14483355042E-01  0.00000000000E+00 0.  1.
     999901    1    3    3    0    0 -0.17785034483E-01  0.81613910377E-01 -0.10315772273E+00  0.88995429859E+00  0.88000000000E+00 0. -1.
        -11    1    4    4    0    0 -0.15511959762E-01 -0.37691111595E-01  0.72456979957E-01  0.83135527029E-01  0.51100000000E-03 0. -1.
         11    1    4    4    0    0  0.21059519146E-01 -0.38089519962E-01  0.35798255369E-01  0.56356819340E-01  0.51100000000E-03 0.  1.
</event>
<event>
 8    1  0.2257781E+004  0.1043930E+01  0.7957747E-01            NaN
         13   -1    0    0    0    0  0.00000000000E+00  0.00000000000E+00  0.74505805969E-08  0.10566000000E+00  0.10566000000E+00 0.  1.
     999900   -1    0    0    0    0 -0.00000000000E+00 -0.00000000000E+00 -0.74505805969E-08  0.93827000000E+00  0.93827000000E+00 0. -1.
     999902    2    1    2    0    0  0.42966340845E-02  0.84833875978E-02  0.86795294987E-02  0.10310550957E+01  0.10309747073E+01 0.  0.
     999903    2    3    3    0    0  0.42734580184E-01  0.10335114415E+00 -0.73730022907E-01  0.14129743131E+00  0.44957140425E-01 0.  0.
         14    1    1    2    0    0 -0.42966340845E-02 -0.84833875978E-02 -0.86795294987E-02  0.12874904346E-01  0.00000000000E+00 0. -1.
     999901    1    3    3    0    0 -0.38437946099E-01 -0.94867756555E-01  0.82409552406E-01  0.88975766435E+00  0.88000000000E+00 0.  1.
        -11    1    4    4    0    0  0.33373803015E-01  0.25445552389E-01 -0.23007427795E-01  0.47863239744E-01  0.51100000000E-03 0.  1.
         11    1    4    4    0    0  0.93607771689E-02  0.77905591764E-01 -0.50722595112E-01  0.93434191564E-01  0.51100000000E-03 0. -1.
</event>
<event>
 8    1  0.2257781E+004  0.1043930E+01  0.7957747E-01            NaN
         13   -1    0    0    0    0  0.00000000000E+00  0.00000000000E+00  0.74505805969E-08  0.10566000000E+00  0.10566000000E+00 0. -1.
     999900   -1    0    0    0    0 -0.00000000000E+00 -0.00000000000E+00 -0.74505805969E-08  0.93827000000E+00  0.93827000000E+00 0.  1.
     999902    2    1    2    0    0  0.12662573159E-01  0.53051227810E-02  0.16257812189E-02  0.10301050858E+01  0.10300123104E+01 0.  0.
     999903    2    3    3    0    0  0.67267840375E-01  0.20438074638E-01  0.11389863820E+00  0.14116417901E+00  0.44852518420E-01 0.  0.
         14    1    1    2    0    0 -0.12662573159E-01 -0.53051227810E-02 -0.16257812189E-02  0.13824914152E-01  0.00000000000E+00 0.  1.
     999901    1    3    3    0    0 -0.54605267216E-01 -0.15132951857E-01 -0.11227285698E+00  0.88894090684E+00  0.88000000000E+00 0.  1.
        -11    1    4    4    0    0  0.18928240246E-01  0.21526632939E-01  0.18243492757E-01  0.33981765014E-01  0.51100000000E-03 0. -1.
         11    1    4    4    0    0  0.48339600129E-01 -0.10885583004E-02  0.95655145438E-01  0.10718241399E+00  0.51100000000E-03 0.  1.
</event>
<event>
 8    1  0.2257781E+004  0.1043930E+01  0.7957747E-01            NaN
         13   -1    0    0    0    0  0.00000000000E+00  0.00000000000E+00  0.74505805969E-08  0.10566000000E+00  0.10566000000E+00 0. -1.
     999900   -1    0    0    0    0 -0.00000000000E+00 -0.00000000000E+00 -0.74505805969E-08  0.93827000000E+00  0.93827000000E+00 0.  1.
     999902    2    1    2    0    0  0.39644285849E-02 -0.10812409215E-01 -0.11174338497E-01  0.10278834824E+01  0.10277582219E+01 0.  0.
     999903    2    3    3    0    0  0.11955376898E-01  0.12866537183E+00 -0.51354295178E-03  0.13679899748E+00  0.44899811137E-01 0.  0.
         14    1    1    2    0    0 -0.39644285849E-02  0.10812409215E-01  0.11174338497E-01  0.16046517625E-01  0.00000000000E+00 0. -1.
     999901    1    3    3    0    0 -0.79909483131E-02 -0.13947778104E+00 -0.10660795546E-01  0.89108448490E+00  0.88000000000E+00 0. -1.
        -11    1    4    4    0    0  0.11211272147E-01  0.76981805244E-01 -0.21959261189E-01  0.80835395928E-01  0.51100000000E-03 0.  1.
         11    1    4    4    0    0  0.74410475120E-03  0.51683566585E-01  0.21445718238E-01  0.55963601551E-01  0.51100000000E-03 0. -1.
</event>
<event>
 8    1  0.2257781E+004  0.1043930E+01  0.7957747E-01            NaN
         13   -1    0    0    0    0  0.00000000000E+00  0.00000000000E+00  0.74505805969E-08  0.10566000000E+00  0.10566000000E+00 0. -1.
     999900   -1    0    0    0    0 -0.00000000000E+00 -0.00000000000E+00 -0.74505805969E-08  0.93827000000E+00  0.93827000000E+00 0.  1.
     999902    2    1    2    0    0  0.13306233482E-01 -0.11126847665E-02 -0.18950802487E-03  0.10305759807E+01  0.10304894576E+01 0.  0.
     999903    2    3    3    0    0 -0.28255010232E-01 -0.36913050680E-01 -0.12427614508E+00  0.14017916097E+00  0.45218558350E-01 0.  0.
         14    1    1    2    0    0 -0.13306233482E-01  0.11126847665E-02  0.18950802487E-03  0.13354019251E-01  0.00000000000E+00 0.  1.
     999901    1    3    3    0    0  0.41561243714E-01  0.35800365913E-01  0.12408663706E+00  0.89039681978E+00  0.88000000000E+00 0. -1.
        -11    1    4    4    0    0 -0.12139580693E-02 -0.16161738352E-01 -0.63327239689E-02  0.17408043963E-01  0.51100000000E-03 0. -1.
         11    1    4    4    0    0 -0.27041052162E-01 -0.20751312327E-01 -0.11794342111E+00  0.12277111700E+00  0.51100000000E-03 0.  1.
</event>
<event>
 8    1  0.2257781E+004  0.1043930E+01  0.7957747E-01            NaN
         13   -1    0    0    0    0  0.00000000000E+00  0.00000000000E+00  0.74505805969E-08  0.10566000000E+00  0.10566000000E+00 0. -1.
     999900   -1    0    0    0    0 -0.00000000000E+00 -0.00000000000E+00 -0.74505805969E-08  0.93827000000E+00  0.93827000000E+00 0.  1.
     999902    2    1    2    0    0  0.42282965590E-02 -0.12310217841E-01  0.23468748658E-03  0.10309117423E+01  0.10308295424E+01 0.  0.
     999903    2    3    3    0    0  0.15695271167E-01 -0.13400971879E+00  0.94101162140E-02  0.14241500707E+00  0.44593022817E-01 0.  0.
         14    1    1    2    0    0 -0.42282965590E-02  0.12310217841E-01 -0.23468748658E-03  0.13018257691E-01  0.00000000000E+00 0. -1.
     999901    1    3    3    0    0 -0.11466974608E-01  0.12169950095E+00 -0.91754287274E-02  0.88849673524E+00  0.88000000000E+00 0. -1.
        -11    1    4    4    0    0 -0.14508003460E-01 -0.65067141203E-01  0.97732543426E-03  0.66674067782E-01  0.51100000000E-03 0.  1.
         11    1    4    4    0    0  0.30203274627E-01 -0.68942577589E-01  0.84327907798E-02  0.75740939288E-01  0.51100000000E-03 0. -1.
</event>
<event>
 8    1  0.2257781E+004  0.1043930E+01  0.7957747E-01            NaN
         13   -1    0    0    0    0  0.00000000000E+00  0.00000000000E+00  0.74505805969E-08  0.10566000000E+00  0.10566000000E+00 0. -1.
     999900   -1    0    0    0    0 -0.00000000000E+00 -0.00000000000E+00 -0.74505805969E-08  0.93827000000E+00  0.93827000000E+00 0.  1.
     999902    2    1    2    0    0  0.78354070443E-02  0.88368653569E-02  0.88075304172E-02  0.10291971664E+01  0.10290917117E+01 0.  0.
     999903    2    3    3    0    0 -0.10449918471E+00 -0.77446930928E-01 -0.42417471602E-02  0.13777457436E+00  0.45229793340E-01 0.  0.
         14    1    1    2    0    0 -0.78354070443E-02 -0.88368653569E-02 -0.88075304172E-02  0.14732833568E-01  0.00000000000E+00 0.  1.
     999901    1    3    3    0    0  0.11233459176E+00  0.86283796285E-01  0.13049277577E-01  0.89142259207E+00  0.88000000000E+00 0. -1.
        -11    1    4    4    0    0 -0.29863808350E-01 -0.48313541529E-01 -0.90125966748E-02  0.57511158605E-01  0.51100000000E-03 0.  1.
         11    1    4    4    0    0 -0.74635376365E-01 -0.29133389399E-01  0.47708495146E-02  0.80263415758E-01  0.51100000000E-03 0. -1.
</event>
<event>
 8    1  0.2257781E+004  0.1043930E+01  0.7957747E-01            NaN
         13   -1    0    0    0    0  0.00000000000E+00  0.00000000000E+00  0.74505805969E-08  0.10566000000E+00  0.10566000000E+00 0.  1.
     999900   -1    0    0    0    0 -0.00000000000E+00 -0.00000000000E+00 -0.74505805969E-08  0.93827000000E+00  0.93827000000E+00 0.  1.
     999902    2    1    2    0    0  0.11475461146E-01  0.70696986156E-02 -0.30900350948E-02  0.10301019429E+01  0.10300091250E+01 0.  0.
     999903    2    3    3    0    0  0.57701815991E-01 -0.11903376839E+00 -0.38523234990E-02  0.13991120974E+00  0.45406702460E-01 0.  0.
         14    1    1    2    0    0 -0.11475461146E-01 -0.70696986156E-02  0.30900350948E-02  0.13828057128E-01  0.00000000000E+00 0. -1.
     999901    1    3    3    0    0 -0.46226354845E-01  0.12610346701E+00  0.76228840423E-03  0.89019073313E+00  0.88000000000E+00 0. -1.
        -11    1    4    4    0    0  0.52359588376E-02 -0.41994399641E-01  0.14834332905E-01  0.44847111612E-01  0.51100000000E-03 0.  1.
         11    1    4    4    0    0  0.52465857153E-01 -0.77039368750E-01 -0.18686656404E-01  0.95064098127E-01  0.51100000000E-03 0. -1.
</event>
<event>
 8    1  0.2257781E+004  0.1043930E+01  0.7957747E-01            NaN
         13   -1    0    0    0    0  0.00000000000E+00  0.00000000000E+00  0.74505805969E-08  0.10566000000E+00  0.10566000000E+00 0.  1.
     999900   -1    0    0    0    0 -0.00000000000E+00 -0.00000000000E+00 -0.74505805969E-08  0.93827000000E+00  0.93827000000E+00 0. -1.
     999902    2    1    2    0    0 -0.30521635590E-02 -0.13161540531E-01  0.12467041114E-02  0.10303617974E+01  0.10302724578E+01 0.  0.
     999903    2    3    3    0    0 -0.53851605265E-01 -0.87322143041E-01 -0.86211463901E-01  0.14146961640E+00  0.45344060252E-01 0.  0.
         14    1    1    2    0    0  0.30521635590E-02  0.13161540531E-01 -0.12467041114E-02  0.13568202632E-01  0.00000000000E+00 0. -1.
     999901    1    3    3    0    0  0.50799441706E-01  0.74160602510E-01  0.87458168013E-01  0.88889218097E+00  0.88000000000E+00 0.  1.
        -11    1    4    4    0    0 -0.44595749077E-01 -0.34401149494E-01 -0.30418878957E-01  0.64013976913E-01  0.51100000000E-03 0.  1.
         11    1    4    4    0    0 -0.92558561879E-02 -0.52920993547E-01 -0.55792584945E-01  0.77455639482E-01  0.51100000000E-03 0. -1.
</event>
<event>
 8    1  0.2257781E+004  0.1043930E+01  0.7957747E-01            NaN
         13   -1    0    0    0    0  0.00000000000E+00  0.00000000000E+00  0.74505805969E-08  0.10566000000E+00  0.10566000000E+00 0.  1.
     999900   -1    0    0    0    0 -0.00000000000E+00 -0.00000000000E+00 -0.74505805969E-08  0.93827000000E+00  0.93827000000E+00 0.  1.
     999902    2    1    2    0    0  0.33488706085E-02  0.90973972696E-02  0.80424249020E-02  0.10313340415E+01  0.10312571198E+01 0.  0.
     999903    2    3    3    0    0  0.48802433655E-01 -0.14240681590E-01 -0.12239276968E+00  0.14025378010E+00  0.45898346596E-01 0.  0.
         14    1    1    2    0    0 -0.33488706085E-02 -0.90973972696E-02 -0.80424249020E-02  0.12595958468E-01  0.00000000000E+00 0. -1.
     999901    1    3    3    0    0 -0.45453563047E-01  0.23338078859E-01  0.13043519458E+00  0.89108026143E+00  0.88000000000E+00 0. -1.
        -11    1    4    4    0    0  0.89612808910E-02 -0.24336658998E-01 -0.61926621709E-01  0.67139743250E-01  0.51100000000E-03 0. -1.
         11    1    4    4    0    0  0.39841152764E-01  0.10095977408E-01 -0.60466147973E-01  0.73114036854E-01  0.51100000000E-03 0.  1.
</event>
<event>
 8    1  0.2257781E+004  0.1043930E+01  0.7957747E-01            NaN
         13   -1    0    0    0    0  0.00000000000E+00  0.00000000000E+00  0.74505805969E-08  0.10566000000E+00  0.10566000000E+00 0. -1.
     999900   -1    0    0    0    0 -0.00000000000E+00 -0.00000000000E+00 -0.74505805969E-08  0.93827000000E+00  0.93827000000E+00 0. -1.
     999902    2    1    2    0    0 -0.12786799065E-01  0.37072008749E-02 -0.41930090714E-02  0.10299719595E+01  0.10298773765E+01 0.  0.
     999903    2    3    3    0    0 -0.37250760980E-01  0.22273779021E-01 -0.12660456618E+00  0.14096813920E+00  0.44266913897E-01 0.  0.
         14    1    1    2    0    0  0.12786799065E-01 -0.37072008749E-02  0.41930090714E-02  0.13958040469E-01  0.00000000000E+00 0. -1.
     999901    1    3    3    0    0  0.24463961915E-01 -0.18566578147E-01  0.12241155711E+00  0.88900382033E+00  0.88000000000E+00 0.  1.
        -11    1    4    4    0    0 -0.12079824233E-01  0.16591916054E-01 -0.10592461150E+00  0.10789577506E+00  0.51100000000E-03 0.  1.
         11    1    4    4    0    0 -0.25170936747E-01  0.56818629672E-02 -0.20679954675E-01  0.33072364141E-01  0.51100000000E-03 0. -1.
</event>
<event>
 8    1  0.2257781E+004  0.1043930E+01  0.7957747E-01            NaN
         13   -1    0    0    0    0  0.00000000000E+00  0.00000000000E+00  0.74505805969E-08  0.10566000000E+00  0.10566000000E+00 0.  1.
     999900   -1    0    0    0    0 -0.00000000000E+00 -0.00000000000E+00 -0.74505805969E-08  0.93827000000E+00  0.93827000000E+00 0. -1.
     999902    2    1    2    0    0  0.74565873960E-02  0.96877291923E-02 -0.47199403966E-02  0.10308253966E+01  0.10307420956E+01 0.  0.
     999903    2    3    3    0    0 -0.48431765511E-02  0.93479835561E-01 -0.97058645348E-01  0.14195035607E+00  0.44357490175E-01 0.  0.
         14    1    1    2    0    0 -0.74565873960E-02 -0.96877291923E-02  0.47199403966E-02  0.13104603384E-01  0.00000000000E+00 0.  1.
     999901    1    3    3    0    0  0.12299763947E-01 -0.83792106369E-01  0.92338704951E-01  0.88887504055E+00  0.88000000000E+00 0.  1.
        -11    1    4    4    0    0  0.17151700048E-01  0.23014948951E-01 -0.36709955537E-01  0.46602045516E-01  0.51100000000E-03 0.  1.
         11    1    4    4    0    0 -0.21994876599E-01  0.70464886611E-01 -0.60348689810E-01  0.95348310549E-01  0.51100000000E-03 0. -1.
</event>
<event>
 8    1  0.2257781E+004  0.1043930E+01  0.7957747E-01            NaN
         13   -1    0    0    0    0  0.00000000000E+00  0.00000000000E+00  0.74505805969E-08  0.10566000000E+00  0.10566000000E+00 0. -1.
     999900   -1    0    0    0    0 -0.00000000000E+00 -0.00000000000E+00 -0.74505805969E-08  0.93827000000E+00  0.93827000000E+00 0. -1.
     999902    2    1    2    0    0 -0.28458498593E-02 -0.13560719316E-01  0.12192883942E-01  0.10254730667E+01  0.10253069550E+01 0.  0.
     999903    2    3    3    0    0 -0.32905375623E-01 -0.71487677569E-01 -0.10110453481E+00  0.13581278729E+00  0.45052574207E-01 0.  0.
         14    1    1    2    0    0  0.28458498593E-02  0.13560719316E-01 -0.12192883942E-01  0.18456933348E-01  0.00000000000E+00 0.  1.
     999901    1    3    3    0    0  0.30059525764E-01  0.57926958254E-01  0.11329741875E+00  0.88966027936E+00  0.88000000000E+00 0.  1.
        -11    1    4    4    0    0 -0.42918549645E-01 -0.44607168452E-01 -0.66274649737E-01  0.90688432006E-01  0.51100000000E-03 0.  1.
         11    1    4    4    0    0  0.10013174022E-01 -0.26880509117E-01 -0.34829885074E-01  0.45124355282E-01  0.51100000000E-03 0. -1.
</event>
<event>
 8    1  0.2257781E+004  0.1043930E+01  0.7957747E-01            NaN
         13   -1    0    0    0    0  0.00000000000E+00  0.00000000000E+00  0.74505805969E-08  0.10566000000E+00  0.10566000000E+00 0. -1.
     999900   -1    0    0    0    0 -0.00000000000E+00 -0.00000000000E+00 -0.74505805969E-08  0.93827000000E+00  0.93827000000E+00 0.  1.
     999902    2    1    2    0    0  0.17601518956E-03  0.73283610781E-02 -0.13298407805E-01  0.10287450236E+01  0.10286329472E+01 0.  0.
     999903    2    3    3    0    0 -0.80190145391E-01 -0.91584663570E-01  0.44791269364E-01  0.13766875483E+00  0.46132615643E-01 0.  0.
         14    1    1    2    0    0 -0.17601518956E-03 -0.73283610781E-02  0.13298407805E-01  0.15184976378E-01  0.00000000000E+00 0. -1.
     999901    1    3    3    0    0  0.80366160581E-01  0.98913024648E-01 -0.58089677169E-01  0.89107626879E+00  0.88000000000E+00 0. -1.
        -11    1    4    4    0    0 -0.60571089626E-01 -0.46602658467E-01  0.90574168544E-02  0.76960786091E-01  0.51100000000E-03 0.  1.
         11    1    4    4    0    0 -0.19619055765E-01 -0.44982005103E-01  0.35733852509E-01  0.60707968739E-01  0.51100000000E-03 0. -1.
</event>
<event>
 8    1  0.2257781E+004  0.1043930E+01  0.7957747E-01            NaN
         13   -1    0    0    0    0  0.00000000000E+00  0.00000000000E+00  0.74505805969E-08  0.10566000000E+00  0.10566000000E+00 0.  1.
     999900   -1    0    0    0    0 -0.00000000000E+00 -0.00000000000E+00 -0.74505805969E-08  0.93827000000E+00  0.93827000000E+00 0. -1.
     999902    2    1    2    0    0 -0.10423123054E-01 -0.38004766376E-02  0.11291596222E-01  0.10281001149E+01  0.10279782396E+01 0.  0.
     999903    2    3    3    0    0 -0.60633652331E-01  0.35718994829E-01 -0.10751018025E+00  0.13782108675E+00  0.49839007922E-01 0.  0.
         14    1    1    2    0    0  0.10423123054E-01  0.38004766376E-02 -0.11291596222E-01  0.15829885095E-01  0.00000000000E+00 0. -1.
     999901    1    3    3    0    0  0.50210529277E-01 -0.39519471467E-01  0.11880177647E+00  0.89027902815E+00  0.88000000000E+00 0.  1.
        -11    1    4    4    0    0 -0.20724254924E-01  0.21405636283E-01 -0.84452944411E-01  0.89555887286E-01  0.51100000000E-03 0. -1.
         11    1    4    4    0    0 -0.39909397407E-01  0.14313358546E-01 -0.23057235836E-01  0.48265199467E-01  0.51100000000E-03 0.  1.
</event>
<event>
 8    1  0.2257781E+004  0.1043930E+01  0.7957747E-01            NaN
         13   -1    0    0    0    0  0.00000000000E+00  0.00000000000E+00  0.74505805969E-08  0.10566000000E+00  0.10566000000E+00 0.  1.
     999900   -1    0    0    0    0 -0.00000000000E+00 -0.00000000000E+00 -0.74505805969E-08  0.93827000000E+00  0.93827000000E+00 0.  1.
     999902    2    1    2    0    0 -0.11156186841E-01  0.32647392977E-02  0.14955379858E-01  0.10249884474E+01  0.10248134147E+01 0.  0.
     999903    2    3    3    0    0 -0.56575212733E-01 -0.75422971443E-01 -0.85762236999E-01  0.13459601591E+00  0.43261378709E-01 0.  0.
         14    1    1    2    0    0  0.11156186841E-01 -0.32647392977E-02 -0.14955379858E-01  0.18941552582E-01  0.00000000000E+00 0. -1.
     999901    1    3    3    0    0  0.45419025891E-01  0.78687710741E-01  0.10071761686E+00  0.89039243150E+00  0.88000000000E+00 0. -1.
        -11    1    4    4    0    0 -0.56254007715E-01 -0.42404770537E-01 -0.53845179325E-01  0.88669286711E-01  0.51100000000E-03 0.  1.
         11    1    4    4    0    0 -0.32120501768E-03 -0.33018200906E-01 -0.31917057673E-01  0.45926729203E-01  0.51100000000E-03 0. -1.
</event>
<event>
 8    1  0.2257781E+004  0.1043930E+01  0.7957747E-01            NaN
         13   -1    0    0    0    0  0.00000000000E+00  0.00000000000E+00  0.74505805969E-08  0.10566000000E+00  0.10566000000E+00 0. -1.
     999900   -1    0    0    0    0 -0.00000000000E+00 -0.00000000000E+00 -0.74505805969E-08  0.93827000000E+00  0.93827000000E+00 0.  1.
     999902    2    1    2    0    0  0.12242552000E-01  0.25733531436E-02  0.35961863564E-02  0.10309132883E+01  0.10308311080E+01 0.  0.
     999903    2    3    3    0    0  0.70450266343E-01  0.55363204969E-01 -0.99634259136E-01  0.14140138211E+00  0.45155739134E-01 0.  0.
         14    1    1    2    0    0 -0.12242552000E-01 -0.25733531436E-02 -0.35961863564E-02  0.13016711650E-01  0.00000000000E+00 0. -1.
     999901    1    3    3    0    0 -0.58207714343E-01 -0.52789851826E-01  0.10323044549E+00  0.88951190624E+00  0.88000000000E+00 0. -1.
        -11    1    4    4    0    0  0.41394791167E-03  0.18810083579E-01 -0.81064450654E-02  0.20493076141E-01  0.51100000000E-03 0. -1.
         11    1    4    4    0    0  0.70036318431E-01  0.36553121391E-01 -0.91527814071E-01  0.12090830597E+00  0.51100000000E-03 0.  1.
</event>
<event>
 8    1  0.2257781E+004  0.1043930E+01  0.7957747E-01            NaN
         13   -1    0    0    0    0  0.00000000000E+00  0.00000000000E+00  0.74505805969E-08  0.10566000000E+00  0.10566000000E+00 0. -1.
     999900   -1    0    0    0    0 -0.00000000000E+00 -0.00000000000E+00 -0.74505805969E-08  0.93827000000E+00  0.93827000000E+00 0.  1.
     999902    2    1    2    0    0  0.59300362252E-02 -0.29357025298E-02 -0.11732082625E-01  0.10304605738E+01  0.10303725388E+01 0.  0.
     999903    2    3    3    0    0  0.24351836918E-01  0.89823999361E-01 -0.97037080224E-01  0.14129204780E+00  0.43426777591E-01 0.  0.
         14    1    1    2    0    0 -0.59300362252E-02  0.29357025298E-02  0.11732082625E-01  0.13469426183E-01  0.00000000000E+00 0. -1.
     999901    1    3    3    0    0 -0.18421800692E-01 -0.92759701891E-01  0.85304997599E-01  0.88916852601E+00  0.88000000000E+00 0. -1.
        -11    1    4    4    0    0 -0.67885306774E-02  0.35567515309E-01 -0.17846834155E-01  0.40372055984E-01  0.51100000000E-03 0.  1.
         11    1    4    4    0    0  0.31140367595E-01  0.54256484052E-01 -0.79190246069E-01  0.10091999182E+00  0.51100000000E-03 0. -1.
</event>
<event>
 8    1  0.2257781E+004  0.1043930E+01  0.7957747E-01            NaN
         13   -1    0    0    0    0  0.00000000000E+00  0.00000000000E+00  0.74505805969E-08  0.10566000000E+00  0.10566000000E+00 0. -1.
     999900   -1    0    0    0    0 -0.00000000000E+00 -0.00000000000E+00 -0.74505805969E-08  0.93827000000E+00  0.93827000000E+00 0.  1.
     999902    2    1    2    0    0 -0.55581559898E-02  0.10493347352E-01  0.58824981379E-02  0.10306783125E+01  0.10305931189E+01 0.  0.
     999903    2    3    3    0    0 -0.62046845528E-01 -0.74348856098E-01 -0.89503318856E-01  0.13967459445E+00  0.46049807880E-01 0.  0.
         14    1    1    2    0    0  0.55581559898E-02 -0.10493347352E-01 -0.58824981379E-02  0.13251687478E-01  0.00000000000E+00 0.  1.
     999901    1    3    3    0    0  0.56488689538E-01  0.84842203451E-01  0.95385816994E-01  0.89100371807E+00  0.88000000000E+00 0. -1.
        -11    1    4    4    0    0 -0.55799616452E-01 -0.72704628369E-01 -0.94385180823E-01  0.13156133042E+00  0.51100000000E-03 0.  1.
         11    1    4    4    0    0 -0.62472290761E-02 -0.16442277297E-02  0.48818619665E-02  0.81132640298E-02  0.51100000000E-03 0. -1.
</event>
<event>
 8    1  0.2257781E+004  0.1043930E+01  0.7957747E-01            NaN
         13   -1    0    0    0    0  0.00000000000E+00  0.00000000000E+00  0.74505805969E-08  0.10566000000E+00  0.10566000000E+00 0. -1.
     999900   -1    0    0    0    0 -0.00000000000E+00 -0.00000000000E+00 -0.74505805969E-08  0.93827000000E+00  0.93827000000E+00 0.  1.
     999902    2    1    2    0    0 -0.86725530488E-02  0.10379460114E-01  0.34745155189E-02  0.10299650930E+01  0.10298704162E+01 0.  0.
     999903    2    3    3    0    0  0.87835224634E-01  0.98892475622E-01  0.10881577943E-01  0.14024425499E+00  0.45335349316E-01 0.  0.
         14    1    1    2    0    0  0.86725530488E-02 -0.10379460114E-01 -0.34745155189E-02  0.13964906972E-01  0.00000000000E+00 0.  1.
     999901    1    3    3    0    0 -0.96507777683E-01 -0.88513015508E-01 -0.74070624239E-02  0.88972083804E+00  0.88000000000E+00 0.  1.
        -11    1    4    4    0    0  0.50276638983E-01  0.78057977688E-01 -0.82652449599E-02  0.93216756559E-01  0.51100000000E-03 0. -1.
         11    1    4    4    0    0  0.37558585651E-01  0.20834497934E-01  0.19146822903E-01  0.47027498430E-01  0.51100000000E-03 0.  1.
</event>
<event>
 8    1  0.2257781E+004  0.1043930E+01  0.7957747E-01            NaN
         13   -1    0    0    0    0  0.00000000000E+00  0.00000000000E+00  0.74505805969E-08  0.10566000000E+00  0.10566000000E+00 0. -1.
     999900   -1    0    0    0    0 -0.00000000000E+00 -0.00000000000E+00 -0.74505805969E-08  0.93827000000E+00  0.93827000000E+00 0. -1.
     999902    2    1    2    0    0  0.77580559956E-02  0.91439434945E-02 -0.61306302477E-02  0.10304621211E+01  0.10303741064E+01 0.  0.
     999903    2    3    3    0    0  0.47711687651E-01  0.79605179540E-01  0.96009361510E-01  0.14085903184E+00  0.44833911324E-01 0.  0.
         14    1    1    2    0    0 -0.77580559956E-02 -0.91439434945E-02  0.61306302477E-02  0.13467878923E-01  0.00000000000E+00 0.  1.
     999901    1    3    3    0    0 -0.39953631656E-01 -0.70461236045E-01 -0.10213999176E+00  0.88960308924E+00  0.88000000000E+00 0. -1.
        -11    1    4    4    0    0  0.11730966529E-01  0.61790102682E-01  0.59997476177E-01  0.86922900514E-01  0.51100000000E-03 0.  1.
         11    1    4    4    0    0  0.35980721122E-01  0.17815076857E-01  0.36011885333E-01  0.53936131323E-01  0.51100000000E-03 0. -1.
</event>
<event>
 8    1  0.2257781E+004  0.1043930E+01  0.7957747E-01            NaN
         13   -1    0    0    0    0  0.00000000000E+00  0.00000000000E+00  0.74505805969E-08  0.10566000000E+00  0.10566000000E+00 0. -1.
     999900   -1    0    0    0    0 -0.00000000000E+00 -0.00000000000E+00 -0.74505805969E-08  0.93827000000E+00  0.93827000000E+00 0. -1.
     999902    2    1    2    0    0 -0.63361802708E-02 -0.30163880189E-02 -0.66941790958E-02  0.10342316594E+01  0.10341861861E+01 0.  0.
     999903    2    3    3    0    0 -0.40528524254E-01  0.24441485943E-01  0.12715785762E+00  0.14303054910E+00  0.45262232691E-01 0.  0.
         14    1    1    2    0    0  0.63361802708E-02  0.30163880189E-02  0.66941790958E-02  0.96983406246E-02  0.00000000000E+00 0. -1.
     999901    1    3    3    0    0  0.34192343983E-01 -0.27457873962E-01 -0.13385203671E+00  0.89120111028E+00  0.88000000000E+00 0. -1.
        -11    1    4    4    0    0 -0.27633171871E-01 -0.86622364314E-02  0.44952348215E-01  0.53475239679E-01  0.51100000000E-03 0.  1.
         11    1    4    4    0    0 -0.12895352383E-01  0.33103722375E-01  0.82205509401E-01  0.89555309418E-01  0.51100000000E-03 0. -1.
</event>
<event>
 8    1  0.2257781E+004  0.1043930E+01  0.7957747E-01            NaN
         13   -1    0    0    0    0  0.00000000000E+00  0.00000000000E+00  0.74505805969E-08  0.10566000000E+00  0.10566000000E+00 0.  1.
     999900   -1    0    0    0    0 -0.00000000000E+00 -0.00000000000E+00 -0.74505805969E-08  0.93827000000E+00  0.93827000000E+00 0.  1.
     999902    2    1    2    0    0  0.15826818672E-01 -0.17170586457E-02  0.83691694565E-03  0.10279883279E+01  0.10278647116E+01 0.  0.
     999903    2    3    3    0    0 -0.10046010657E+00  0.42672545367E-01 -0.68154722975E-01  0.13655525003E+00  0.45706573990E-01 0.  0.
         14    1    1    2    0    0 -0.15826818672E-01  0.17170586457E-02 -0.83691694565E-03  0.15941672109E-01  0.00000000000E+00 0. -1.
     999901    1    3    3    0    0  0.11628692525E+00 -0.44389604012E-01  0.68991639921E-01  0.89143307786E+00  0.88000000000E+00 0. -1.
        -11    1    4    4    0    0 -0.90659451239E-01  0.24935133699E-01 -0.40774674699E-01  0.10248771736E+00  0.51100000000E-03 0. -1.
         11    1    4    4    0    0 -0.98006553344E-02  0.17737411668E-01 -0.27380048276E-01  0.34067532670E-01  0.51100000000E-03 0.  1.
</event>
<event>
 8    1  0.2257781E+004  0.1043930E+01  0.7957747E-01            NaN
         13   -1    0    0    0    0  0.00000000000E+00  0.00000000000E+00  0.74505805969E-08  0.10566000000E+00  0.10566000000E+00 0. -1.
     999900   -1    0    0    0    0 -0.00000000000E+00 -0.00000000000E+00 -0.74505805969E-08  0.93827000000E+00  0.93827000000E+00 0.  1.
     999902    2    1    2    0    0 -0.84688530137E-02 -0.20362885234E-02  0.11808145690E-01  0.10292568869E+01  0.10291522915E+01 0.  0.
     999903    2    3    3    0    0 -0.11573204824E+00 -0.19246418225E-01 -0.60396754373E-01  0.13964172901E+00  0.45691497444E-01 0.  0.
         14    1    1    2    0    0  0.84688530137E-02  0.20362885234E-02 -0.11808145690E-01  0.14673113063E-01  0.00000000000E+00 0.  1.
     999901    1    3    3    0    0  0.10726319523E+00  0.17210129701E-01  0.72204900064E-01  0.88961515792E+00  0.88000000000E+00 0.  1.
        -11    1    4    4    0    0 -0.47248700264E-01 -0.14327688590E-01 -0.49869033599E-01  0.70177660050E-01  0.51100000000E-03 0.  1.
         11    1    4    4    0    0 -0.68483347976E-01 -0.49187296343E-02 -0.10527720774E-01  0.69464068964E-01  0.51100000000E-03 0. -1.
</event>
<event>
 8    1  0.2257781E+004  0.1043930E+01  0.7957747E-01            NaN
         13   -1    0    0    0    0  0.00000000000E+00  0.00000000000E+00  0.74505805969E-08  0.10566000000E+00  0.10566000000E+00 0.  1.
     999900   -1    0    0    0    0 -0.00000000000E+00 -0.00000000000E+00 -0.74505805969E-08  0.93827000000E+00  0.93827000000E+00 0.  1.
     999902    2    1    2    0    0 -0.10170089119E-01 -0.10770241425E-01 -0.21892520056E-02  0.10289559679E+01  0.10288470062E+01 0.  0.
     999903    2    3    3    0    0 -0.98572450396E-01 -0.90057871407E-01  0.55658008018E-02  0.14094603181E+00  0.44809123679E-01 0.  0.
         14    1    1    2    0    0  0.10170089119E-01  0.10770241425E-01  0.21892520056E-02  0.14974032102E-01  0.00000000000E+00 0.  1.
     999901    1    3    3    0    0  0.88402361277E-01  0.79287629982E-01 -0.77550528074E-02  0.88800993609E+00  0.88000000000E+00 0. -1.
        -11    1    4    4    0    0 -0.15205223509E-01 -0.33014063730E-01 -0.12272159964E-01  0.38366577344E-01  0.51100000000E-03 0. -1.
         11    1    4    4    0    0 -0.83367226887E-01 -0.57043807678E-01  0.17837960766E-01  0.10257945447E+00  0.51100000000E-03 0.  1.
</event>
<event>
 8    1  0.2257781E+004  0.1043930E+01  0.7957747E-01            NaN
         13   -1    0    0    0    0  0.00000000000E+00  0.00000000000E+00  0.74505805969E-08  0.10566000000E+00  0.10566000000E+00 0.  1.
     999900   -1    0    0    0    0 -0.00000000000E+00 -0.00000000000E+00 -0.74505805969E-08  0.93827000000E+00  0.93827000000E+00 0.  1.
     999902    2    1    2    0    0  0.10199771507E-01  0.92481246281E-02  0.17414367155E-02  0.10300521129E+01  0.10299586203E+01 0.  0.
     999903    2    3    3    0    0  0.31289224467E-01  0.10238759002E+00 -0.80220671996E-01  0.14109907012E+00  0.44848157327E-01 0.  0.
         14    1    1    2    0    0 -0.10199771507E-01 -0.92481246281E-02 -0.17414367155E-02  0.13877887078E-01  0.00000000000E+00 0. -1.
     999901    1    3    3    0    0 -0.21089452960E-01 -0.93139465393E-01  0.81962108711E-01  0.88895304280E+00  0.88000000000E+00 0. -1.
        -11    1    4    4    0    0  0.22704820943E-01  0.30298136342E-01 -0.80122410275E-02  0.38703269722E-01  0.51100000000E-03 0.  1.
         11    1    4    4    0    0  0.85844035237E-02  0.72089453679E-01 -0.72208430968E-01  0.10239580040E+00  0.51100000000E-03 0. -1.
</event>
<event>
 8    1  0.2257781E+004  0.1043930E+01  0.7957747E-01            NaN
         13   -1    0    0    0    0  0.00000000000E+00  0.00000000000E+00  0.74505805969E-08  0.10566000000E+00  0.10566000000E+00 0. -1.
     999900   -1    0    0    0    0 -0.00000000000E+00 -0.00000000000E+00 -0.74505805969E-08  0.93827000000E+00  0.93827000000E+00 0. -1.
     999902    2    1    2    0    0 -0.82188839255E-02 -0.10726356137E-01  0.42924407123E-03  0.10304100511E+01  0.10303213500E+01 0.  0.
     999903    2    3    3    0    0 -0.66798104593E-01 -0.11627896170E+00  0.11227175386E-01  0.14210296848E+00  0.45655453911E-01 0.  0.
         14    1    1    2    0    0  0.82188839255E-02  0.10726356137E-01 -0.42924407123E-03  0.13519948943E-01  0.00000000000E+00 0. -1.
     999901    1    3    3    0    0  0.58579220667E-01  0.10555260557E+00 -0.10797931315E-01  0.88830708258E+00  0.88000000000E+00 0. -1.
        -11    1    4    4    0    0 -0.60511697249E-01 -0.75894604859E-01  0.22627331495E-01  0.99669021277E-01  0.51100000000E-03 0. -1.
         11    1    4    4    0    0 -0.62864073441E-02 -0.40384356843E-01 -0.11400156109E-01  0.42433947203E-01  0.51100000000E-03 0.  1.
</event>
<event>
 8    1  0.2257781E+004  0.1043930E+01  0.7957747E-01            NaN
         13   -1    0    0    0    0  0.00000000000E+00  0.00000000000E+00  0.74505805969E-08  0.10566000000E+00  0.10566000000E+00 0.  1.
     999900   -1    0    0    0    0 -0.00000000000E+00 -0.00000000000E+00 -0.74505805969E-08  0.93827000000E+00  0.93827000000E+00 0.  1.
     999902    2    1    2    0    0  0.11773916334E-02  0.11836614611E-01  0.27009901610E-02  0.10317321705E+01  0.10316600625E+01 0.  0.
     999903    2    3    3    0    0 -0.96996906319E-01 -0.33730228250E-01 -0.85014785353E-01  0.14077280711E+00  0.45203333509E-01 0.  0.
         14    1    1    2    0    0 -0.11773916334E-02 -0.11836614611E-01 -0.27009901610E-02  0.12197829494E-01  0.00000000000E+00 0.  1.
     999901    1    3    3    0    0  0.98174297952E-01  0.45566842861E-01  0.87715775514E-01  0.89095936339E+00  0.88000000000E+00 0. -1.
        -11    1    4    4    0    0 -0.43175136653E-01 -0.37451155832E-01 -0.53506038651E-01  0.78293287013E-01  0.51100000000E-03 0. -1.
         11    1    4    4    0    0 -0.53821769666E-01  0.37209275825E-02 -0.31508746701E-01  0.62479520098E-01  0.51100000000E-03 0.  1.
</event>
<event>
 8    1  0.2257781E+004  0.1043930E+01  0.7957747E-01            NaN
         13   -1    0    0    0    0  0.00000000000E+00  0.00000000000E+00  0.74505805969E-08  0.10566000000E+00  0.10566000000E+00 0. -1.
     999900   -1    0    0    0    0 -0.00000000000E+00 -0.00000000000E+00 -0.74505805969E-08  0.93827000000E+00  0.93827000000E+00 0. -1.
     999902    2    1    2    0    0 -0.11537544772E-01 -0.30964888685E-02  0.36428458697E-02  0.10314410645E+01  0.10313654523E+01 0.  0.
     999903    2    3    3    0    0 -0.13472296996E+00 -0.60995293805E-02 -0.11509958972E-01  0.14272667020E+00  0.45287308797E-01 0.  0.
         14    1    1    2    0    0  0.11537544772E-01  0.30964888685E-02 -0.36428458697E-02  0.12488935451E-01  0.00000000000E+00 0.  1.
     999901    1    3    3    0    0  0.12318542518E+00  0.30030405121E-02  0.15152804841E-01  0.88871439435E+00  0.88000000000E+00 0.  1.
        -11    1    4    4    0    0 -0.11499694727E-01 -0.14714724870E-01 -0.28493004985E-02  0.18898299954E-01  0.51100000000E-03 0. -1.
         11    1    4    4    0    0 -0.12322327523E+00  0.86151954890E-02 -0.86606584732E-02  0.12382837024E+00  0.51100000000E-03 0.  1.
</event>
<event>
 8    1  0.2257781E+004  0.1043930E+01  0.7957747E-01            NaN
         13   -1    0    0    0    0  0.00000000000E+00  0.00000000000E+00  0.74505805969E-08  0.10566000000E+00  0.10566000000E+00 0. -1.
     999900   -1    0    0    0    0 -0.00000000000E+00 -0.00000000000E+00 -0.74505805969E-08  0.93827000000E+00  0.93827000000E+00 0.  1.
     999902    2    1    2    0    0  0.52618234900E-02 -0.17460959327E-01 -0.14063842551E-02  0.10256392973E+01  0.10254761911E+01 0.  0.
     999903    2    3    3    0    0  0.46410837156E-01  0.72390281119E-01 -0.93393127551E-01  0.13534269077E+00  0.46915339331E-01 0.  0.
         14    1    1    2    0    0 -0.52618234900E-02  0.17460959327E-01  0.14063842551E-02  0.18290702658E-01  0.00000000000E+00 0.  1.
     999901    1    3    3    0    0 -0.41149013666E-01 -0.89851240446E-01  0.91986743296E-01  0.89029660657E+00  0.88000000000E+00 0. -1.
        -11    1    4    4    0    0  0.44506303846E-01  0.59619112702E-01 -0.48951544445E-01  0.89060454221E-01  0.51100000000E-03 0.  1.
         11    1    4    4    0    0  0.19045333094E-02  0.12771168416E-01 -0.44441583105E-01  0.46282236546E-01  0.51100000000E-03 0. -1.
</event>
<event>
 8    1  0.2257781E+004  0.1043930E+01  0.7957747E-01            NaN
         13   -1    0    0    0    0  0.00000000000E+00  0.00000000000E+00  0.74505805969E-08  0.10566000000E+00  0.10566000000E+00 0. -1.
     999900   -1    0    0    0    0 -0.00000000000E+00 -0.00000000000E+00 -0.74505805969E-08  0.93827000000E+00  0.93827000000E+00 0. -1.
     999902    2    1    2    0    0  0.45906506280E-02  0.61073456044E-02 -0.11029988930E-01  0.10305123102E+01  0.10304249546E+01 0.  0.
     999903    2    3    3    0    0 -0.25923333009E-01 -0.10301742466E+00  0.77368227674E-01  0.13885454886E+00  0.44834519136E-01 0.  0.
         14    1    1    2    0    0 -0.45906506280E-02 -0.61073456044E-02  0.11029988930E-01  0.13417689790E-01  0.00000000000E+00 0. -1.
     999901    1    3    3    0    0  0.30513983637E-01  0.10912477027E+00 -0.88398216603E-01  0.89165776135E+00  0.88000000000E+00 0. -1.
        -11    1    4    4    0    0 -0.11118177415E-01 -0.65990661436E-01  0.21655354910E-01  0.70339155405E-01  0.51100000000E-03 0. -1.
         11    1    4    4    0    0 -0.14805155594E-01 -0.37026763227E-01  0.55712872764E-01  0.68515393452E-01  0.51100000000E-03 0.  1.
</event>
<event>
 8    1  0.2257781E+004  0.1043930E+01  0.7957747E-01            NaN
         13   -1    0    0    0    0  0.00000000000E+00  0.00000000000E+00  0.74505805969E-08  0.10566000000E+00  0.10566000000E+00 0. -1.
     999900   -1    0    0    0    0 -0.00000000000E+00 -0.00000000000E+00 -0.74505805969E-08  0.93827000000E+00  0.93827000000E+00 0. -1.
     999902    2    1    2    0    0  0.97759676266E-03  0.13800481234E-01 -0.12616944425E-02  0.10300375254E+01  0.10299438348E+01 0.  0.
     999903    2    3    3    0    0 -0.74835051344E-01 -0.37131931386E-01  0.10116381651E+00  0.13940143048E+00  0.47112374297E-01 0.  0.
         14    1    1    2    0    0 -0.97759676266E-03 -0.13800481234E-01  0.12616944425E-02  0.13892474603E-01  0.00000000000E+00 0. -1.
     999901    1    3    3    0    0  0.75812648106E-01  0.50932412620E-01 -0.10242551095E+00  0.89063609491E+00  0.88000000000E+00 0. -1.
        -11    1    4    4    0    0 -0.16177762787E-01 -0.73789319702E-02  0.58153887534E-01  0.60813685977E-01  0.51100000000E-03 0. -1.
         11    1    4    4    0    0 -0.58657288557E-01 -0.29752999416E-01  0.43009928977E-01  0.78587744507E-01  0.51100000000E-03 0.  1.
</event>
<event>
 8    1  0.2257781E+004  0.1043930E+01  0.7957747E-01            NaN
         13   -1    0    0    0    0  0.00000000000E+00  0.00000000000E+00  0.74505805969E-08  0.10566000000E+00  0.10566000000E+00 0.  1.
     999900   -1    0    0    0    0 -0.00000000000E+00 -0.00000000000E+00 -0.74505805969E-08  0.93827000000E+00  0.93827000000E+00 0.  1.
     999902    2    1    2    0    0  0.21133086095E-02 -0.67121092826E-02 -0.11210493174E-01  0.10306939265E+01  0.10306089348E+01 0.  0.
     999903    2    3    3    0    0 -0.95390685175E-01 -0.93315110430E-01 -0.79433006982E-02  0.14107727696E+00  0.45084469550E-01 0.  0.
         14    1    1    2    0    0 -0.21133086095E-02  0.67121092826E-02  0.11210493174E-01  0.13236073493E-01  0.00000000000E+00 0.  1.
     999901    1    3    3    0    0  0.97503993785E-01  0.86603001147E-01 -0.32671924761E-02  0.88961664955E+00  0.88000000000E+00 0.  1.
        -11    1    4    4    0    0 -0.42543367782E-01 -0.47517842744E-01  0.18344390168E-01  0.66367622324E-01  0.51100000000E-03 0. -1.
         11    1    4    4    0    0 -0.52847317393E-01 -0.45797267686E-01 -0.26287690867E-01  0.74709654632E-01  0.51100000000E-03 0.  1.
</event>
<event>
 7    1  0.2257781E+004  0.1043930E+01  0.7957747E-01            NaN
         13   -1    0    0    0    0  0.00000000000E+00  0.00000000000E+00  0.74505805969E-08  0.10566000000E+00  0.10566000000E+00 0.  1.
     999900   -1    0    0    0    0 -0.00000000000E+00 -0.00000000000E+00 -0.74505805969E-08  0.93827000000E+00  0.93827000000E+00 0.  1.
     999903    2    1    2    0    0 -0.88318126023E-01 -0.38795138463E-01 -0.41637808951E-01  0.11400192147E+00  0.44244511651E-01 0.  0.
         14    1    1    2    0    0  0.24807765907E-01  0.30373871209E-01  0.26753291958E-01  0.47473528751E-01  0.00000000000E+00 0. -1.
     999901    1    1    2    0    0  0.63510360116E-01  0.84212672537E-02  0.14884516994E-01  0.88245454978E+00  0.88000000000E+00 0. -1.
        -11    1    3    3    0    0 -0.45726874453E-01 -0.43670629763E-01 -0.23693829513E-01  0.67525770111E-01  0.51100000000E-03 0.  1.
         11    1    3    3    0    0 -0.42591251570E-01  0.48754913000E-02 -0.17943979438E-01  0.46476151356E-01  0.51100000000E-03 0. -1.
</event>
<event>
 8    1  0.2257781E+004  0.1043930E+01  0.7957747E-01            NaN
         13   -1    0    0    0    0  0.00000000000E+00  0.00000000000E+00  0.74505805969E-08  0.10566000000E+00  0.10566000000E+00 0. -1.
     999900   -1    0    0    0    0 -0.00000000000E+00 -0.00000000000E+00 -0.74505805969E-08  0.93827000000E+00  0.93827000000E+00 0. -1.
     999902    2    1    2    0    0 -0.13761677618E-02 -0.39420924275E-02  0.12932602946E-01  0.10303400718E+01  0.10302504440E+01 0.  0.
     999903    2    3    3    0    0 -0.19966925324E-01  0.85563287028E-01 -0.97486504944E-01  0.13874082962E+00  0.45007165678E-01 0.  0.
         14    1    1    2    0    0  0.13761677618E-02  0.39420924275E-02 -0.12932602946E-01  0.13589928233E-01  0.00000000000E+00 0.  1.
     999901    1    3    3    0    0  0.18590757562E-01 -0.89505379455E-01  0.11041910789E+00  0.89159924215E+00  0.88000000000E+00 0.  1.
        -11    1    4    4    0    0 -0.30871176944E-01  0.80992382149E-01 -0.88543674480E-01  0.12390738050E+00  0.51100000000E-03 0.  1.
         11    1    4    4    0    0  0.10904251621E-01  0.45709048784E-02 -0.89428304646E-02  0.14833449111E-01  0.51100000000E-03 0. -1.
</event>
<event>
 8    1  0.2257781E+004  0.1043930E+01  0.7957747E-01            NaN
         13   -1    0    0    0    0  0.00000000000E+00  0.00000000000E+00  0.74505805969E-08  0.10566000000E+00  0.10566000000E+00 0. -1.
     999900   -1    0    0    0    0 -0.00000000000E+00 -0.00000000000E+00 -0.74505805969E-08  0.93827000000E+00  0.93827000000E+00 0. -1.
     999902    2    1    2    0    0 -0.46582803214E-02  0.71726453736E-02 -0.91862685893E-02  0.10313787472E+01  0.10313023738E+01 0.  0.
     999903    2    3    3    0    0 -0.35976825176E-01 -0.25403389310E-01  0.12513315373E+00  0.14004056415E+00  0.44870806843E-01 0.  0.
         14    1    1    2    0    0  0.46582803214E-02 -0.71726453736E-02  0.91862685893E-02  0.12551252838E-01  0.00000000000E+00 0.  1.
     999901    1    3    3    0    0  0.31318544854E-01  0.32576034684E-01 -0.13431942232E+00  0.89133818301E+00  0.88000000000E+00 0. -1.
        -11    1    4    4    0    0  0.81720740101E-02  0.41012326530E-02  0.26236434619E-01  0.27788748180E-01  0.51100000000E-03 0.  1.
         11    1    4    4    0    0 -0.44148899186E-01 -0.29504621963E-01  0.98896719109E-01  0.11225181597E+00  0.51100000000E-03 0. -1.
</event>
<event>
 8    1  0.2257781E+004  0.1043930E+01  0.7957747E-01            NaN
         13   -1    0    0    0    0  0.00000000000E+00  0.00000000000E+00  0.74505805969E-08  0.10566000000E+00  0.10566000000E+00 0. -1.
     999900   -1    0    0    0    0 -0.00000000000E+00 -0.00000000000E+00 -0.74505805969E-08  0.93827000000E+00  0.93827000000E+00 0. -1.
     999902    2    1    2    0    0  0.98796208772E-02 -0.11615634914E-01 -0.32253037432E-02  0.10283437090E+01  0.10282255839E+01 0.  0.
     999903    2    3    3    0    0  0.40000127689E-01 -0.12678990174E+00 -0.41470603939E-02  0.14032726415E+00  0.44708540070E-01 0.  0.
         14    1    1    2    0    0 -0.98796208772E-02  0.11615634914E-01  0.32253037432E-02  0.15586291008E-01  0.00000000000E+00 0.  1.
     999901    1    3    3    0    0 -0.30120506812E-01  0.11517426683E+00  0.92175665076E-03  0.88801644484E+00  0.88000000000E+00 0. -1.
        -11    1    4    4    0    0  0.46537181392E-01 -0.78375396414E-01 -0.67496635549E-02  0.91401482997E-01  0.51100000000E-03 0.  1.
         11    1    4    4    0    0 -0.65370537025E-02 -0.48414505330E-01  0.26026031610E-02  0.48925781155E-01  0.51100000000E-03 0. -1.
</event>
<event>
 8    1  0.2257781E+004  0.1043930E+01  0.7957747E-01            NaN
         13   -1    0    0    0    0  0.00000000000E+00  0.00000000000E+00  0.74505805969E-08  0.10566000000E+00  0.10566000000E+00 0. -1.
     999900   -1    0    0    0    0 -0.00000000000E+00 -0.00000000000E+00 -0.74505805969E-08  0.93827000000E+00  0.93827000000E+00 0. -1.
     999902    2    1    2    0    0  0.89809932152E-02 -0.91815618476E-02 -0.69109124110E-02  0.10293450753E+01  0.10292417423E+01 0.  0.
     999903    2    3    3    0    0 -0.62222903139E-01  0.61201908737E-01 -0.98136717559E-01  0.13898224182E+00  0.45474002454E-01 0.  0.
         14    1    1    2    0    0 -0.89809932152E-02  0.91815618476E-02  0.69109124110E-02  0.14584924664E-01  0.00000000000E+00 0. -1.
     999901    1    3    3    0    0  0.71203896354E-01 -0.70383470585E-01  0.91225805148E-01  0.89036283352E+00  0.88000000000E+00 0.  1.
        -11    1    4    4    0    0 -0.33373193754E-01  0.60197306839E-01 -0.76465975238E-01  0.10288241979E+00  0.51100000000E-03 0.  1.
         11    1    4    4    0    0 -0.28849709385E-01  0.10046018980E-02 -0.21670742321E-01  0.36099822026E-01  0.51100000000E-03 0. -1.
</event>
<event>
 8    1  0.2257781E+004  0.1043930E+01  0.7957747E-01            NaN
         13   -1    0    0    0    0  0.00000000000E+00  0.00000000000E+00  0.74505805969E-08  0.10566000000E+00  0.10566000000E+00 0. -1.
     999900   -1    0    0    0    0 -0.00000000000E+00 -0.00000000000E+00 -0.74505805969E-08  0.93827000000E+00  0.93827000000E+00 0. -1.
     999902    2    1    2    0    0  0.30603771547E-02  0.12680656317E-01 -0.39996148204E-02  0.10302858851E+01  0.10301955364E+01 0.  0.
     999903    2    3    3    0    0 -0.12267347054E+00 -0.43736930657E-01 -0.22530770503E-01  0.13936762380E+00  0.44204066164E-01 0.  0.
         14    1    1    2    0    0 -0.30603771547E-02 -0.12680656317E-01  0.39996148204E-02  0.13644114910E-01  0.00000000000E+00 0. -1.
     999901    1    3    3    0    0  0.12573384770E+00  0.56417586974E-01  0.18531155682E-01  0.89091826129E+00  0.88000000000E+00 0.  1.
        -11    1    4    4    0    0 -0.69131357498E-01 -0.14772318966E-01  0.82111025021E-02  0.71169159911E-01  0.51100000000E-03 0.  1.
         11    1    4    4    0    0 -0.53542113043E-01 -0.28964611691E-01 -0.30741873005E-01  0.68198463885E-01  0.51100000000E-03 0. -1.
</event>
<event>
 8    1  0.2257781E+004  0.1043930E+01  0.7957747E-01            NaN
         13   -1    0    0    0    0  0.00000000000E+00  0.00000000000E+00  0.74505805969E-08  0.10566000000E+00  0.10566000000E+00 0. -1.
     999900   -1    0    0    0    0 -0.00000000000E+00 -0.00000000000E+00 -0.74505805969E-08  0.93827000000E+00  0.93827000000E+00 0.  1.
     999902    2    1    2    0    0  0.84127525001E-02  0.90715811489E-02 -0.68678746007E-02  0.10297795339E+01  0.10296823067E+01 0.  0.
     999903    2    3    3    0    0 -0.59579360608E-01 -0.10721941136E-01  0.11601188099E+00  0.13842430432E+00  0.45142787510E-01 0.  0.
         14    1    1    2    0    0 -0.84127525001E-02 -0.90715811489E-02  0.68678746007E-02  0.14150466095E-01  0.00000000000E+00 0. -1.
     999901    1    3    3    0    0  0.67992113108E-01  0.19793522285E-01 -0.12287975559E+00  0.89135522958E+00  0.88000000000E+00 0.  1.
        -11    1    4    4    0    0 -0.28014271491E-01 -0.35203878931E-02  0.96663108885E-01  0.10070357629E+00  0.51100000000E-03 0.  1.
         11    1    4    4    0    0 -0.31565089117E-01 -0.72015532433E-02  0.19348772106E-01  0.37720728029E-01  0.51100000000E-03 0. -1.
</event>
<event>
 8    1  0.2257781E+004  0.1043930E+01  0.7957747E-01            NaN
         13   -1    0    0    0    0  0.00000000000E+00  0.00000000000E+00  0.74505805969E-08  0.10566000000E+00  0.10566000000E+00 0.  1.
     999900   -1    0    0    0    0 -0.00000000000E+00 -0.00000000000E+00 -0.74505805969E-08  0.93827000000E+00  0.93827000000E+00 0.  1.
     999902    2    1    2    0    0  0.72261614761E-02  0.10175149845E-01  0.14880687238E-01  0.10245087246E+01  0.10243246267E+01 0.  0.
     999903    2    3    3    0    0 -0.33436402153E-01 -0.11356493879E+00 -0.41390177721E-01  0.13314378037E+00  0.44711644229E-01 0.  0.
         14    1    1    2    0    0 -0.72261614761E-02 -0.10175149845E-01 -0.14880687238E-01  0.19421275363E-01  0.00000000000E+00 0. -1.
     999901    1    3    3    0    0  0.40662563629E-01  0.12374008863E+00  0.56270864960E-01  0.89136494426E+00  0.88000000000E+00 0.  1.
        -11    1    4    4    0    0 -0.12089205563E-01 -0.64956462068E-01 -0.44979604639E-01  0.79930700047E-01  0.51100000000E-03 0.  1.
         11    1    4    4    0    0 -0.21347196590E-01 -0.48608476720E-01  0.35894269178E-02  0.53213080327E-01  0.51100000000E-03 0. -1.
</event>
<event>
 8    1  0.2257781E+004  0.1043930E+01  0.7957747E-01            NaN
         13   -1    0    0    0    0  0.00000000000E+00  0.00000000000E+00  0.74505805969E-08  0.10566000000E+00  0.10566000000E+00 0.  1.
     999900   -1    0    0    0    0 -0.00000000000E+00 -0.00000000000E+00 -0.74505805969E-08  0.93827000000E+00  0.93827000000E+00 0. -1.
     999902    2    1    2    0    0  0.11886894378E-01  0.61562045093E-02 -0.74296406024E-03  0.10305229456E+01  0.10304357293E+01 0.  0.
     999903    2    3    3    0    0  0.30068969594E-01 -0.11531794875E+00  0.58884554453E-01  0.13999389008E+00  0.43914989140E-01 0.  0.
         14    1    1    2    0    0 -0.11886894378E-01 -0.61562045093E-02  0.74296406024E-03  0.13407054393E-01  0.00000000000E+00 0.  1.
     999901    1    3    3    0    0 -0.18182075216E-01  0.12147415326E+00 -0.59627518513E-01  0.89052905552E+00  0.88000000000E+00 0. -1.
        -11    1    4    4    0    0  0.34033603771E-01 -0.49533881008E-01  0.19346272300E-01  0.63138189127E-01  0.51100000000E-03 0.  1.
         11    1    4    4    0    0 -0.39646341772E-02 -0.65784067741E-01  0.39538282153E-01  0.76855700955E-01  0.51100000000E-03 0. -1.
</event>
<event>
 8    1  0.2257781E+004  0.1043930E+01  0.7957747E-01            NaN
         13   -1    0    0    0    0  0.00000000000E+00  0.00000000000E+00  0.74505805969E-08  0.10566000000E+00  0.10566000000E+00 0. -1.
     999900   -1    0    0    0    0 -0.00000000000E+00 -0.00000000000E+00 -0.74505805969E-08  0.93827000000E+00  0.93827000000E+00 0.  1.
     999902    2    1    2    0    0 -0.60531423597E-02  0.10885385115E-01 -0.49281164100E-02  0.10305352819E+01  0.10304482271E+01 0.  0.
     999903    2    3    3    0    0 -0.87450705589E-01  0.10217759734E+00  0.99761845105E-02  0.14195103182E+00  0.44302188110E-01 0.  0.
         14    1    1    2    0    0  0.60531423597E-02 -0.10885385115E-01  0.49281164100E-02  0.13394718097E-01  0.00000000000E+00 0. -1.
     999901    1    3    3    0    0  0.81397563229E-01 -0.91292212223E-01 -0.14904300920E-01  0.88858425008E+00  0.88000000000E+00 0.  1.
        -11    1    4    4    0    0 -0.64044747179E-01  0.97673084937E-01  0.14464404176E-01  0.11769129650E+00  0.51100000000E-03 0.  1.
         11    1    4    4    0    0 -0.23405958409E-01  0.45045124011E-02 -0.44882196656E-02  0.24259735320E-01  0.51100000000E-03 0. -1.
</event>
<event>
 8    1  0.2257781E+004  0.1043930E+01  0.7957747E-01            NaN
         13   -1    0    0    0    0  0.00000000000E+00  0.00000000000E+00  0.74505805969E-08  0.10566000000E+00  0.10566000000E+00 0. -1.
     999900   -1    0    0    0    0 -0.00000000000E+00 -0.00000000000E+00 -0.74505805969E-08  0.93827000000E+00  0.93827000000E+00 0.  1.
     999902    2    1    2    0    0 -0.12425568164E-01  0.21961811016E-02  0.64046701706E-02  0.10297794609E+01  0.10296822327E+01 0.  0.
     999903    2    3    3    0    0 -0.12950213584E+00 -0.88968198602E-02  0.32386017821E-01  0.14157621405E+00  0.46314291996E-01 0.  0.
         14    1    1    2    0    0  0.12425568164E-01 -0.21961811016E-02 -0.64046701706E-02  0.14150539058E-01  0.00000000000E+00 0.  1.
     999901    1    3    3    0    0  0.11707656768E+00  0.11093000962E-01 -0.25981347651E-01  0.88820324689E+00  0.88000000000E+00 0.  1.
        -11    1    4    4    0    0 -0.62549091785E-01 -0.92843275077E-02  0.38997656793E-01  0.74294454549E-01  0.51100000000E-03 0.  1.
         11    1    4    4    0    0 -0.66953044054E-01  0.38750764742E-03 -0.66116389714E-02  0.67281759498E-01  0.51100000000E-03 0. -1.
</event>
<event>
 8    1  0.2257781E+004  0.1043930E+01  0.7957747E-01            NaN
         13   -1    0    0    0    0  0.00000000000E+00  0.00000000000E+00  0.74505805969E-08  0.10566000000E+00  0.10566000000E+00 0. -1.
     999900   -1    0    0    0    0 -0.00000000000E+00 -0.00000000000E+00 -0.74505805969E-08  0.93827000000E+00  0.93827000000E+00 0. -1.
     999902    2    1    2    0    0 -0.29138241777E-02  0.61454145602E-02 -0.10828793491E-01  0.10311425350E+01  0.10310632417E+01 0.  0.
     999903    2    3    3    0    0  0.11776276818E+00  0.43233649885E-02  0.60887117162E-01  0.14001441202E+00  0.44833396968E-01 0.  0.
         14    1    1    2    0    0  0.29138241777E-02 -0.61454145602E-02  0.10828793491E-01  0.12787464953E-01  0.00000000000E+00 0. -1.
     999901    1    3    3    0    0 -0.12067659235E+00  0.18220495717E-02 -0.71715910653E-01  0.89112812303E+00  0.88000000000E+00 0. -1.
        -11    1    4    4    0    0  0.27723577159E-01  0.14889127461E-01  0.31954241955E-01  0.44851059597E-01  0.51100000000E-03 0. -1.
         11    1    4    4    0    0  0.90039191018E-01 -0.10565762473E-01  0.28932875207E-01  0.95163352424E-01  0.51100000000E-03 0.  1.
</event>
<event>
 8    1  0.2257781E+004  0.1043930E+01  0.7957747E-01            NaN
         13   -1    0    0    0    0  0.00000000000E+00  0.00000000000E+00  0.74505805969E-08  0.10566000000E+00  0.10566000000E+00 0.  1.
     999900   -1    0    0    0    0 -0.00000000000E+00 -0.00000000000E+00 -0.74505805969E-08  0.93827000000E+00  0.93827000000E+00 0.  1.
     999902    2    1    2    0    0  0.68621192710E-02 -0.10116399329E-01  0.65707818108E-02  0.10300517656E+01  0.10299582683E+01 0.  0.
     999903    2    3    3    0    0  0.46029898808E-01  0.93846316550E-01  0.84247955247E-01  0.13967201262E+00  0.38531421374E-01 0.  0.
         14    1    1    2    0    0 -0.68621192710E-02  0.10116399329E-01 -0.65707818108E-02  0.13878234393E-01  0.00000000000E+00 0. -1.
     999901    1    3    3    0    0 -0.39167779537E-01 -0.10396271588E+00 -0.77677173436E-01  0.89037975298E+00  0.88000000000E+00 0.  1.
        -11    1    4    4    0    0  0.20752190293E-01  0.69192440166E-01  0.72775913644E-01  0.10254190317E+00  0.51100000000E-03 0.  1.
         11    1    4    4    0    0  0.25277708516E-01  0.24653876384E-01  0.11472041603E-01  0.37130109454E-01  0.51100000000E-03 0. -1.
</event>
<event>
 8    1  0.2257781E+004  0.1043930E+01  0.7957747E-01            NaN
         13   -1    0    0    0    0  0.00000000000E+00  0.00000000000E+00  0.74505805969E-08  0.10566000000E+00  0.10566000000E+00 0.  1.
     999900   -1    0    0    0    0 -0.00000000000E+00 -0.00000000000E+00 -0.74505805969E-08  0.93827000000E+00  0.93827000000E+00 0. -1.
     999902    2    1    2    0    0 -0.98352546536E-02 -0.95403903739E-02  0.42694080904E-02  0.10295780270E+01  0.10294779913E+01 0.  0.
     999903    2    3    3    0    0 -0.31385599735E-01  0.89211189093E-01  0.91003850359E-01  0.13955602995E+00  0.47439356915E-01 0.  0.
         14    1    1    2    0    0  0.98352546536E-02  0.95403903739E-02 -0.42694080904E-02  0.14351972966E-01  0.00000000000E+00 0.  1.
     999901    1    3    3    0    0  0.21550345082E-01 -0.98751579467E-01 -0.86734442269E-01  0.89002199709E+00  0.88000000000E+00 0.  1.
        -11    1    4    4    0    0  0.12660967328E-01  0.20161567645E-01  0.22891626985E-01  0.33031448812E-01  0.51100000000E-03 0.  1.
         11    1    4    4    0    0 -0.44046567064E-01  0.69049621448E-01  0.68112223374E-01  0.10652458114E+00  0.51100000000E-03 0. -1.
</event>
<event>
 8    1  0.2257781E+004  0.1043930E+01  0.7957747E-01            NaN
         13   -1    0    0    0    0  0.00000000000E+00  0.00000000000E+00  0.74505805969E-08  0.10566000000E+00  0.10566000000E+00 0.  1.
     999900   -1    0    0    0    0 -0.00000000000E+00 -0.00000000000E+00 -0.74505805969E-08  0.93827000000E+00  0.93827000000E+00 0. -1.
     999902    2    1    2    0    0  0.13315372238E-01  0.58168289286E-02 -0.12253077825E-02  0.10293479557E+01  0.10292446638E+01 0.  0.
     999903    2    3    3    0    0 -0.74577427107E-01 -0.10452869139E-01 -0.10735056676E+00  0.13847623776E+00  0.44502462085E-01 0.  0.
         14    1    1    2    0    0 -0.13315372238E-01 -0.58168289286E-02  0.12253077825E-02  0.14582044293E-01  0.00000000000E+00 0. -1.
     999901    1    3    3    0    0  0.87892799345E-01  0.16269698068E-01  0.10612525898E+00  0.89087171795E+00  0.88000000000E+00 0.  1.
        -11    1    4    4    0    0 -0.47639420163E-02  0.12683783488E-01 -0.12417701355E-01  0.18385699199E-01  0.51100000000E-03 0.  1.
         11    1    4    4    0    0 -0.69813485091E-01 -0.23136652627E-01 -0.94932865407E-01  0.12009053856E+00  0.51100000000E-03 0. -1.
</event>
<event>
 7    1  0.2257781E+004  0.1043930E+01  0.7957747E-01            NaN
         13   -1    0    0    0    0  0.00000000000E+00  0.00000000000E+00  0.74505805969E-08  0.10566000000E+00  0.10566000000E+00 0. -1.
     999900   -1    0    0    0    0 -0.00000000000E+00 -0.00000000000E+00 -0.74505805969E-08  0.93827000000E+00  0.93827000000E+00 0.  1.
     999903    2    1    2    0    0 -0.64238047742E-02 -0.63483228660E-01  0.91582829248E-01  0.12042898975E+00  0.45214393395E-01 0.  0.
         14    1    1    2    0    0 -0.10983120467E-01 -0.11578424716E-01 -0.34830837633E-01  0.38312871262E-01  0.00000000000E+00 0.  1.
     999901    1    1    2    0    0  0.17406925241E-01  0.75061653376E-01 -0.56751991615E-01  0.88518813899E+00  0.88000000000E+00 0. -1.
        -11    1    3    3    0    0  0.63593846321E-02 -0.14304766682E-01  0.56622765488E-01  0.58749185656E-01  0.51100000000E-03 0. -1.
         11    1    3    3    0    0 -0.12783189406E-01 -0.49178461978E-01  0.34960063760E-01  0.61679804093E-01  0.51100000000E-03 0.  1.
</event>
<event>
 8    1  0.2257781E+004  0.1043930E+01  0.7957747E-01            NaN
         13   -1    0    0    0    0  0.00000000000E+00  0.00000000000E+00  0.74505805969E-08  0.10566000000E+00  0.10566000000E+00 0.  1.
     999900   -1    0    0    0    0 -0.00000000000E+00 -0.00000000000E+00 -0.74505805969E-08  0.93827000000E+00  0.93827000000E+00 0. -1.
     999902    2    1    2    0    0 -0.13786613382E-01  0.10496602384E-03 -0.81836126616E-03  0.10301187205E+01  0.10300261292E+01 0.  0.
     999903    2    3    3    0    0  0.91615196517E-01  0.86230325004E-01  0.38089377637E-01  0.13880456088E+00  0.44574569526E-01 0.  0.
         14    1    1    2    0    0  0.13786613382E-01 -0.10496602384E-03  0.81836126616E-03  0.13811279505E-01  0.00000000000E+00 0.  1.
     999901    1    3    3    0    0 -0.10540180990E+00 -0.86125358980E-01 -0.38907738903E-01  0.89131415962E+00  0.88000000000E+00 0. -1.
        -11    1    4    4    0    0  0.18818270616E-01  0.29975761046E-01  0.30086850811E-01  0.46455928276E-01  0.51100000000E-03 0.  1.
         11    1    4    4    0    0  0.72796925900E-01  0.56254563958E-01  0.80025268261E-02  0.92348632601E-01  0.51100000000E-03 0. -1.
</event>
<event>
 8    1  0.2257781E+004  0.1043930E+01  0.7957747E-01            NaN
         13   -1    0    0    0    0  0.00000000000E+00  0.00000000000E+00  0.74505805969E-08  0.10566000000E+00  0.10566000000E+00 0.  1.
     999900   -1    0    0    0    0 -0.00000000000E+00 -0.00000000000E+00 -0.74505805969E-08  0.93827000000E+00  0.93827000000E+00 0.  1.
     999902    2    1    2    0    0 -0.11725285732E-02 -0.44706480486E-02 -0.12742180010E-01  0.10303754927E+01  0.10302863346E+01 0.  0.
     999903    2    3    3    0    0  0.95910908429E-01 -0.69831898127E-01  0.58536536326E-01  0.13977011309E+00  0.45097251325E-01 0.  0.
         14    1    1    2    0    0  0.11725285732E-02  0.44706480486E-02  0.12742180010E-01  0.13554507318E-01  0.00000000000E+00 0.  1.
     999901    1    3    3    0    0 -0.97083437002E-01  0.65361250079E-01 -0.71278716336E-01  0.89060537959E+00  0.88000000000E+00 0. -1.
        -11    1    4    4    0    0  0.28285339884E-01 -0.27875969095E-01  0.43270044787E-01  0.58734044661E-01  0.51100000000E-03 0.  1.
         11    1    4    4    0    0  0.67625568544E-01 -0.41955929032E-01  0.15266491539E-01  0.81036068431E-01  0.51100000000E-03 0. -1.
</event>
<event>
 8    1  0.2257781E+004  0.1043930E+01  0.7957747E-01            NaN
         13   -1    0    0    0    0  0.00000000000E+00  0.00000000000E+00  0.74505805969E-08  0.10566000000E+00  0.10566000000E+00 0.  1.
     999900   -1    0    0    0    0 -0.00000000000E+00 -0.00000000000E+00 -0.74505805969E-08  0.93827000000E+00  0.93827000000E+00 0.  1.
     999902    2    1    2    0    0  0.22083199456E-02  0.67027813495E-02 -0.11606940224E-01  0.10303460015E+01  0.10302564524E+01 0.  0.
     999903    2    3    3    0    0 -0.95687960300E-01  0.82717867818E-01  0.40812933432E-01  0.14011579629E+00  0.44365633449E-01 0.  0.
         14    1    1    2    0    0 -0.22083199456E-02 -0.67027813495E-02  0.11606940224E-01  0.13583998534E-01  0.00000000000E+00 0.  1.
     999901    1    3    3    0    0  0.97896280245E-01 -0.76015086469E-01 -0.52419873656E-01  0.89023020518E+00  0.88000000000E+00 0.  1.
        -11    1    4    4    0    0 -0.22981410207E-01  0.33507800130E-01  0.32299595464E-01  0.51908023202E-01  0.51100000000E-03 0. -1.
         11    1    4    4    0    0 -0.72706550093E-01  0.49210067688E-01  0.85133379678E-02  0.88207773086E-01  0.51100000000E-03 0.  1.
</event>
<event>
 8    1  0.2257781E+004  0.1043930E+01  0.7957747E-01            NaN
         13   -1    0    0    0    0  0.00000000000E+00  0.00000000000E+00  0.74505805969E-08  0.10566000000E+00  0.10566000000E+00 0. -1.
     999900   -1    0    0    0    0 -0.00000000000E+00 -0.00000000000E+00 -0.74505805969E-08  0.93827000000E+00  0.93827000000E+00 0.  1.
     999902    2    1    2    0    0  0.85584112063E-02 -0.10575766113E-01 -0.54208618748E-03  0.10303143073E+01  0.10302243371E+01 0.  0.
     999903    2    3    3    0    0  0.36830483095E-01 -0.34949046609E-01  0.12340971156E+00  0.14084400702E+00  0.45046165904E-01 0.  0.
         14    1    1    2    0    0 -0.85584112063E-02  0.10575766113E-01  0.54208618748E-03  0.13615692737E-01  0.00000000000E+00 0.  1.
     999901    1    3    3    0    0 -0.28272071889E-01  0.24373280495E-01 -0.12395179775E+00  0.88947030024E+00  0.88000000000E+00 0.  1.
        -11    1    4    4    0    0  0.27248765280E-02 -0.31494352431E-01  0.42497326339E-01  0.52967943646E-01  0.51100000000E-03 0. -1.
         11    1    4    4    0    0  0.34105606567E-01 -0.34546941779E-02  0.80912385220E-01  0.87876063374E-01  0.51100000000E-03 0.  1.
</event>
<event>
 8    1  0.2257781E+004  0.1043930E+01  0.7957747E-01            NaN
         13   -1    0    0    0    0  0.00000000000E+00  0.00000000000E+00  0.74505805969E-08  0.10566000000E+00  0.10566000000E+00 0.  1.
     999900   -1    0    0    0    0 -0.00000000000E+00 -0.00000000000E+00 -0.74505805969E-08  0.93827000000E+00  0.93827000000E+00 0.  1.
     999902    2    1    2    0    0 -0.11663840372E-02  0.12842022063E-01 -0.70940824848E-03  0.10310156188E+01  0.10309347336E+01 0.  0.
     999903    2    3    3    0    0  0.10097481365E-01 -0.54078238038E-01  0.12064784784E+00  0.14009879915E+00  0.45225605328E-01 0.  0.
         14    1    1    2    0    0  0.11663840372E-02 -0.12842022063E-01  0.70940824848E-03  0.12914381226E-01  0.00000000000E+00 0.  1.
     999901    1    3    3    0    0 -0.11263865402E-01  0.66920260102E-01 -0.12135725609E+00  0.89091681962E+00  0.88000000000E+00 0.  1.
        -11    1    4    4    0    0  0.55620665820E-02 -0.36642680354E-01  0.11557824695E+00  0.12137633582E+00  0.51100000000E-03 0. -1.
         11    1    4    4    0    0  0.45354147830E-02 -0.17435557685E-01  0.50696008844E-02  0.18722463330E-01  0.51100000000E-03 0.  1.
</event>
<event>
 8    1  0.2257781E+004  0.1043930E+01  0.7957747E-01            NaN
         13   -1    0    0    0    0  0.00000000000E+00  0.00000000000E+00  0.74505805969E-08  0.10566000000E+00  0.10566000000E+00 0. -1.
     999900   -1    0    0    0    0 -0.00000000000E+00 -0.00000000000E+00 -0.74505805969E-08  0.93827000000E+00  0.93827000000E+00 0. -1.
     999902    2    1    2    0    0  0.11492306462E-01  0.68271706752E-02  0.14986825748E-02  0.10304789994E+01  0.10303912067E+01 0.  0.
     999903    2    3    3    0    0 -0.12404733142E+00  0.27826341251E-01 -0.33798539150E-01  0.13915534750E+00  0.45385281631E-01 0.  0.
         14    1    1    2    0    0 -0.11492306462E-01 -0.68271706752E-02 -0.14986825748E-02  0.13451000584E-01  0.00000000000E+00 0.  1.
     999901    1    3    3    0    0  0.13553963788E+00 -0.20999170576E-01  0.35297221725E-01  0.89132365192E+00  0.88000000000E+00 0.  1.
        -11    1    4    4    0    0 -0.11440071781E-01 -0.10951269235E-01 -0.51372085441E-02  0.16657057749E-01  0.51100000000E-03 0. -1.
         11    1    4    4    0    0 -0.11260725964E+00  0.38777610486E-01 -0.28661330606E-01  0.12249828975E+00  0.51100000000E-03 0.  1.
</event>
<event>
 8    1  0.2257781E+004  0.1043930E+01  0.7957747E-01            NaN
         13   -1    0    0    0    0  0.00000000000E+00  0.00000000000E+00  0.74505805969E-08  0.10566000000E+00  0.10566000000E+00 0.  1.
     999900   -1    0    0    0    0 -0.00000000000E+00 -0.00000000000E+00 -0.74505805969E-08  0.93827000000E+00  0.93827000000E+00 0. -1.
     999902    2    1    2    0    0 -0.13506764417E-01 -0.14394967865E-02  0.11675832198E-02  0.10302966553E+01  0.10302064501E+01 0.  0.
     999903    2    3    3    0    0 -0.19054522715E-01  0.12638524862E+00  0.37911688797E-01  0.14028537875E+00  0.43662174025E-01 0.  0.
         14    1    1    2    0    0  0.13506764417E-01  0.14394967865E-02 -0.11675832198E-02  0.13633344658E-01  0.00000000000E+00 0. -1.
     999901    1    3    3    0    0  0.55477582982E-02 -0.12782474540E+00 -0.36744105578E-01  0.89001127659E+00  0.88000000000E+00 0. -1.
        -11    1    4    4    0    0 -0.25151499938E-01  0.96183126520E-01  0.44255227200E-01  0.10882360972E+00  0.51100000000E-03 0.  1.
         11    1    4    4    0    0  0.60969772233E-02  0.30202122097E-01 -0.63435384030E-02  0.31461769036E-01  0.51100000000E-03 0. -1.
</event>
<event>
 8    1  0.2309342E+004  0.1043930E+01  0.7957747E-01            NaN
         13   -1    0    0    0    0  0.00000000000E+00  0.00000000000E+00  0.74505805969E-08  0.10566000000E+00  0.10566000000E+00 0.  1.
     999900   -1    0    0    0    0 -0.00000000000E+00 -0.00000000000E+00 -0.74505805969E-08  0.93827000000E+00  0.93827000000E+00 0. -1.
     999902    2    1    2    0    0  0.13631656587E-01  0.25334763283E-02  0.29819525894E-02  0.10297478773E+01  0.10296502116E+01 0.  0.
     999903    2    3    3    0    0 -0.71696923457E-01 -0.10071504235E+00  0.42156462867E-01  0.13875075863E+00  0.46804242024E-01 0.  0.
         14    1    1    2    0    0 -0.13631656587E-01 -0.25334763283E-02 -0.29819525894E-02  0.14182122721E-01  0.00000000000E+00 0. -1.
     999901    1    3    3    0    0  0.85328580044E-01  0.10324851868E+00 -0.39174510278E-01  0.89099711865E+00  0.88000000000E+00 0. -1.
        -11    1    4    4    0    0 -0.39929822932E-01 -0.56183173693E-01  0.47614324442E-01  0.83775442575E-01  0.51100000000E-03 0. -1.
         11    1    4    4    0    0 -0.31767100525E-01 -0.44531868655E-01 -0.54578615752E-02  0.54975316058E-01  0.51100000000E-03 0.  1.
</event>
<event>
 8    1  0.2257781E+004  0.1043930E+01  0.7957747E-01            NaN
         13   -1    0    0    0    0  0.00000000000E+00  0.00000000000E+00  0.74505805969E-08  0.10566000000E+00  0.10566000000E+00 0. -1.
     999900   -1    0    0    0    0 -0.00000000000E+00 -0.00000000000E+00 -0.74505805969E-08  0.93827000000E+00  0.93827000000E+00 0.  1.
     999902    2    1    2    0    0 -0.12947617892E-01  0.66440830645E-02  0.26334034289E-02  0.10291408329E+01  0.10290345643E+01 0.  0.
     999903    2    3    3    0    0 -0.11488966353E+00  0.67281190402E-01 -0.14613352832E-01  0.14101556584E+00  0.44107214378E-01 0.  0.
         14    1    1    2    0    0  0.12947617892E-01 -0.66440830645E-02 -0.26334034289E-02  0.14789167064E-01  0.00000000000E+00 0.  1.
     999901    1    3    3    0    0  0.10194204564E+00 -0.60637107338E-01  0.17246756261E-01  0.88812526710E+00  0.88000000000E+00 0. -1.
        -11    1    4    4    0    0 -0.43694819191E-01  0.41638549418E-02  0.39587608705E-02  0.44073890465E-01  0.51100000000E-03 0. -1.
         11    1    4    4    0    0 -0.71194844338E-01  0.63117335461E-01 -0.18572113702E-01  0.96941675374E-01  0.51100000000E-03 0.  1.
</event>
<event>
 8    1  0.2257781E+004  0.1043930E+01  0.7957747E-01            NaN
         13   -1    0    0    0    0  0.00000000000E+00  0.00000000000E+00  0.74505805969E-08  0.10566000000E+00  0.10566000000E+00 0. -1.
     999900   -1    0    0    0    0 -0.00000000000E+00 -0.00000000000E+00 -0.74505805969E-08  0.93827000000E+00  0.93827000000E+00 0. -1.
     999902    2    1    2    0    0  0.12235706164E-01  0.20879176047E-02  0.40399221185E-02  0.10308765378E+01  0.10307938898E+01 0.  0.
     999903    2    3    3    0    0  0.49088233850E-01 -0.72482730859E-01  0.10179915852E+00  0.14156457974E+00  0.44878286360E-01 0.  0.
         14    1    1    2    0    0 -0.12235706164E-01 -0.20879176047E-02 -0.40399221185E-02  0.13053462222E-01  0.00000000000E+00 0. -1.
     999901    1    3    3    0    0 -0.36852527686E-01  0.74570648464E-01 -0.97759236399E-01  0.88931195804E+00  0.88000000000E+00 0. -1.
        -11    1    4    4    0    0 -0.34197682161E-02  0.12681764136E-02  0.17420347540E-01  0.17805412534E-01  0.51100000000E-03 0. -1.
         11    1    4    4    0    0  0.52508002066E-01 -0.73750907273E-01  0.84378810977E-01  0.12375916721E+00  0.51100000000E-03 0.  1.
</event>
<event>
 8    1  0.2257781E+004  0.1043930E+01  0.7957747E-01            NaN
         13   -1    0    0    0    0  0.00000000000E+00  0.00000000000E+00  0.74505805969E-08  0.10566000000E+00  0.10566000000E+00 0. -1.
     999900   -1    0    0    0    0 -0.00000000000E+00 -0.00000000000E+00 -0.74505805969E-08  0.93827000000E+00  0.93827000000E+00 0. -1.
     999902    2    1    2    0    0 -0.10818948124E-01 -0.31978272531E-02  0.85769691622E-02  0.10297581922E+01  0.10296606694E+01 0.  0.
     999903    2    3    3    0    0  0.32657243208E-01 -0.11758419347E+00  0.44368912218E-01  0.14057008878E+00  0.53840611062E-01 0.  0.
         14    1    1    2    0    0  0.10818948124E-01  0.31978272531E-02 -0.85769691622E-02  0.14171807848E-01  0.00000000000E+00 0.  1.
     999901    1    3    3    0    0 -0.43476191332E-01  0.11438636622E+00 -0.35791943056E-01  0.88918810337E+00  0.88000000000E+00 0. -1.
        -11    1    4    4    0    0  0.41236251479E-01 -0.69124679442E-01  0.43174851108E-01  0.91339907123E-01  0.51100000000E-03 0.  1.
         11    1    4    4    0    0 -0.85790082713E-02 -0.48459514032E-01  0.11940611103E-02  0.49230181658E-01  0.51100000000E-03 0. -1.
</event>
<event>
 8    1  0.2257781E+004  0.1043930E+01  0.7957747E-01            NaN
         13   -1    0    0    0    0  0.00000000000E+00  0.00000000000E+00  0.74505805969E-08  0.10566000000E+00  0.10566000000E+00 0. -1.
     999900   -1    0    0    0    0 -0.00000000000E+00 -0.00000000000E+00 -0.74505805969E-08  0.93827000000E+00  0.93827000000E+00 0. -1.
     999902    2    1    2    0    0  0.80181966357E-02  0.15090345504E-01  0.11832281531E-01  0.10231450802E+01  0.10229339384E+01 0.  0.
     999903    2    3    3    0    0  0.51943205158E-01  0.11664396738E+00  0.15401268596E-01  0.13620918502E+00  0.44853442698E-01 0.  0.
         14    1    1    2    0    0 -0.80181966357E-02 -0.15090345504E-01 -0.11832281531E-01  0.20784919797E-01  0.00000000000E+00 0.  1.
     999901    1    3    3    0    0 -0.43925008522E-01 -0.10155362188E+00 -0.35689870653E-02  0.88693589518E+00  0.88000000000E+00 0. -1.
        -11    1    4    4    0    0  0.20595608711E-01  0.88244135726E-01  0.22368166474E-01  0.93337037560E-01  0.51100000000E-03 0.  1.
         11    1    4    4    0    0  0.31347596447E-01  0.28399831655E-01 -0.69668978777E-02  0.42872147463E-01  0.51100000000E-03 0. -1.
</event>
<event>
 8    1  0.2257781E+004  0.1043930E+01  0.7957747E-01            NaN
         13   -1    0    0    0    0  0.00000000000E+00  0.00000000000E+00  0.74505805969E-08  0.10566000000E+00  0.10566000000E+00 0. -1.
     999900   -1    0    0    0    0 -0.00000000000E+00 -0.00000000000E+00 -0.74505805969E-08  0.93827000000E+00  0.93827000000E+00 0. -1.
     999902    2    1    2    0    0  0.34352964021E-03 -0.35062615745E-02 -0.13500015615E-01  0.10299778566E+01  0.10298833540E+01 0.  0.
     999903    2    3    3    0    0  0.16998587433E-01  0.12665479108E+00  0.31725383039E-01  0.13909928620E+00  0.44852239785E-01 0.  0.
         14    1    1    2    0    0 -0.34352964021E-03  0.35062615745E-02  0.13500015615E-01  0.13952143364E-01  0.00000000000E+00 0. -1.
     999901    1    3    3    0    0 -0.16655057793E-01 -0.13016105266E+00 -0.45225398654E-01  0.89087857044E+00  0.88000000000E+00 0.  1.
        -11    1    4    4    0    0  0.27430387756E-02  0.65910128514E-01  0.38424234497E-01  0.76343645579E-01  0.51100000000E-03 0. -1.
         11    1    4    4    0    0  0.14255548657E-01  0.60744662567E-01 -0.66988514586E-02  0.62755640621E-01  0.51100000000E-03 0.  1.
</event>
<event>
 8    1  0.2257781E+004  0.1043930E+01  0.7957747E-01            NaN
         13   -1    0    0    0    0  0.00000000000E+00  0.00000000000E+00  0.74505805969E-08  0.10566000000E+00  0.10566000000E+00 0.  1.
     999900   -1    0    0    0    0 -0.00000000000E+00 -0.00000000000E+00 -0.74505805969E-08  0.93827000000E+00  0.93827000000E+00 0. -1.
     999902    2    1    2    0    0  0.17639901085E-02  0.13041219739E-01 -0.41727667209E-02  0.10301243108E+01  0.10300317949E+01 0.  0.
     999903    2    3    3    0    0  0.95397762460E-01 -0.67602215452E-01  0.63380578163E-01  0.13892618387E+00  0.40157119663E-01 0.  0.
         14    1    1    2    0    0 -0.17639901085E-02 -0.13041219739E-01  0.41727667209E-02  0.13805689243E-01  0.00000000000E+00 0.  1.
     999901    1    3    3    0    0 -0.93633772352E-01  0.80643435190E-01 -0.67553344883E-01  0.89119812689E+00  0.88000000000E+00 0. -1.
        -11    1    4    4    0    0  0.56998157206E-01 -0.21165561968E-01  0.17754047519E-01  0.63342231273E-01  0.51100000000E-03 0.  1.
         11    1    4    4    0    0  0.38399605254E-01 -0.46436653483E-01  0.45626530643E-01  0.75583952596E-01  0.51100000000E-03 0. -1.
</event>
<event>
 8    1  0.2257781E+004  0.1043930E+01  0.7957747E-01            NaN
         13   -1    0    0    0    0  0.00000000000E+00  0.00000000000E+00  0.74505805969E-08  0.10566000000E+00  0.10566000000E+00 0. -1.
     999900   -1    0    0    0    0 -0.00000000000E+00 -0.00000000000E+00 -0.74505805969E-08  0.93827000000E+00  0.93827000000E+00 0.  1.
     999902    2    1    2    0    0  0.62250863513E-02  0.68778519434E-02  0.60215135123E-02  0.10328703810E+01  0.10328111680E+01 0.  0.
     999903    2    3    3    0    0  0.52931909970E-01  0.73953005772E-01 -0.10045084597E+00  0.14269232748E+00  0.44720171183E-01 0.  0.
         14    1    1    2    0    0 -0.62250863513E-02 -0.68778519434E-02 -0.60215135123E-02  0.11059619000E-01  0.00000000000E+00 0. -1.
     999901    1    3    3    0    0 -0.46706823619E-01 -0.67075153829E-01  0.10647235948E+00  0.89017805352E+00  0.88000000000E+00 0. -1.
        -11    1    4    4    0    0  0.49682714439E-01  0.68607766902E-01 -0.65222984687E-01  0.10690975936E+00  0.51100000000E-03 0. -1.
         11    1    4    4    0    0  0.32491955315E-02  0.53452388702E-02 -0.35227861280E-01  0.35782568124E-01  0.51100000000E-03 0.  1.
</event>
<event>
 8    1  0.2257781E+004  0.1043930E+01  0.7957747E-01            NaN
         13   -1    0    0    0    0  0.00000000000E+00  0.00000000000E+00  0.74505805969E-08  0.10566000000E+00  0.10566000000E+00 0.  1.
     999900   -1    0    0    0    0 -0.00000000000E+00 -0.00000000000E+00 -0.74505805969E-08  0.93827000000E+00  0.93827000000E+00 0.  1.
     999902    2    1    2    0    0  0.20250542122E-02 -0.88865458739E-02 -0.11320225363E-01  0.10293966231E+01  0.10292940244E+01 0.  0.
     999903    2    3    3    0    0  0.42970582290E-01 -0.48790009048E-01 -0.11663547740E+00  0.14127493945E+00  0.46128494471E-01 0.  0.
         14    1    1    2    0    0 -0.20250542122E-02  0.88865458739E-02  0.11320225363E-01  0.14533376910E-01  0.00000000000E+00 0.  1.
     999901    1    3    3    0    0 -0.40945528078E-01  0.39903463174E-01  0.10531525204E+00  0.88812168364E+00  0.88000000000E+00 0. -1.
        -11    1    4    4    0    0  0.15940830012E-01 -0.19561731997E-01 -0.89754942460E-01  0.93236163784E-01  0.51100000000E-03 0. -1.
         11    1    4    4    0    0  0.27029752278E-01 -0.29228277051E-01 -0.26880534942E-01  0.48038775665E-01  0.51100000000E-03 0.  1.
</event>
<event>
 8    1  0.2257781E+004  0.1043930E+01  0.7957747E-01            NaN
         13   -1    0    0    0    0  0.00000000000E+00  0.00000000000E+00  0.74505805969E-08  0.10566000000E+00  0.10566000000E+00 0.  1.
     999900   -1    0    0    0    0 -0.00000000000E+00 -0.00000000000E+00 -0.74505805969E-08  0.93827000000E+00  0.93827000000E+00 0. -1.
     999902    2    1    2    0    0 -0.88239520262E-03 -0.94925520344E-02 -0.85752033219E-02  0.10311073140E+01  0.10310275804E+01 0.  0.
     999903    2    3    3    0    0 -0.11597382877E+00  0.18727378181E-01  0.62125358573E-01  0.14035427748E+00  0.45156609422E-01 0.  0.
         14    1    1    2    0    0  0.88239520262E-03  0.94925520344E-02  0.85752033219E-02  0.12822686046E-01  0.00000000000E+00 0.  1.
     999901    1    3    3    0    0  0.11509143357E+00 -0.28219930216E-01 -0.70700561895E-01  0.89075303648E+00  0.88000000000E+00 0. -1.
        -11    1    4    4    0    0 -0.34443983774E-01 -0.73612366777E-02  0.37119283697E-01  0.51173021865E-01  0.51100000000E-03 0. -1.
         11    1    4    4    0    0 -0.81529844998E-01  0.26088614859E-01  0.25006074876E-01  0.89181255611E-01  0.51100000000E-03 0.  1.
</event>
<event>
 8    1  0.2257781E+004  0.1043930E+01  0.7957747E-01            NaN
         13   -1    0    0    0    0  0.00000000000E+00  0.00000000000E+00  0.74505805969E-08  0.10566000000E+00  0.10566000000E+00 0.  1.
     999900   -1    0    0    0    0 -0.00000000000E+00 -0.00000000000E+00 -0.74505805969E-08  0.93827000000E+00  0.93827000000E+00 0. -1.
     999902    2    1    2    0    0  0.30328446030E-02 -0.13512952693E-02 -0.14621625184E-01  0.10289361323E+01  0.10288268797E+01 0.  0.
     999903    2    3    3    0    0  0.12108930384E+00 -0.95818362930E-02 -0.52608874474E-01  0.14020214484E+00  0.46200829563E-01 0.  0.
         14    1    1    2    0    0 -0.30328446030E-02  0.13512952693E-02  0.14621625184E-01  0.14993867690E-01  0.00000000000E+00 0.  1.
     999901    1    3    3    0    0 -0.11805645924E+00  0.82305410238E-02  0.37987249290E-01  0.88873398747E+00  0.88000000000E+00 0.  1.
        -11    1    4    4    0    0  0.88758402336E-01  0.11499311159E-01 -0.25598924241E-01  0.93090569800E-01  0.51100000000E-03 0.  1.
         11    1    4    4    0    0  0.32330901508E-01 -0.21081147452E-01 -0.27009950233E-01  0.47111575041E-01  0.51100000000E-03 0. -1.
</event>
<event>
 8    1  0.2257781E+004  0.1043930E+01  0.7957747E-01            NaN
         13   -1    0    0    0    0  0.00000000000E+00  0.00000000000E+00  0.74505805969E-08  0.10566000000E+00  0.10566000000E+00 0. -1.
     999900   -1    0    0    0    0 -0.00000000000E+00 -0.00000000000E+00 -0.74505805969E-08  0.93827000000E+00  0.93827000000E+00 0. -1.
     999902    2    1    2    0    0  0.54408357913E-02  0.10239851554E-01  0.79046865165E-02  0.10298964216E+01  0.10298008050E+01 0.  0.
     999903    2    3    3    0    0  0.14027270657E-01 -0.88479819514E-01  0.97250572444E-01  0.13983912700E+00  0.45517741788E-01 0.  0.
         14    1    1    2    0    0 -0.54408357913E-02 -0.10239851554E-01 -0.79046865165E-02  0.14033578406E-01  0.00000000000E+00 0.  1.
     999901    1    3    3    0    0 -0.85864348660E-02  0.98719671067E-01 -0.89345885928E-01  0.89005729459E+00  0.88000000000E+00 0. -1.
        -11    1    4    4    0    0  0.27153556764E-01 -0.38817034054E-01  0.33779251638E-01  0.58183990409E-01  0.51100000000E-03 0.  1.
         11    1    4    4    0    0 -0.13126286107E-01 -0.49662785460E-01  0.63471320807E-01  0.81655136596E-01  0.51100000000E-03 0. -1.
</event>
<event>
 8    1  0.2257781E+004  0.1043930E+01  0.7957747E-01            NaN
         13   -1    0    0    0    0  0.00000000000E+00  0.00000000000E+00  0.74505805969E-08  0.10566000000E+00  0.10566000000E+00 0.  1.
     999900   -1    0    0    0    0 -0.00000000000E+00 -0.00000000000E+00 -0.74505805969E-08  0.93827000000E+00  0.93827000000E+00 0. -1.
     999902    2    1    2    0    0 -0.69451588497E-02  0.86765912123E-02  0.79601826097E-02  0.10302594852E+01  0.10301687842E+01 0.  0.
     999903    2    3    3    0    0 -0.85638197231E-01  0.27579254503E-02 -0.10050207919E+00  0.14009563115E+00  0.46739822088E-01 0.  0.
         14    1    1    2    0    0  0.69451588497E-02 -0.86765912123E-02 -0.79601826097E-02  0.13670514756E-01  0.00000000000E+00 0.  1.
     999901    1    3    3    0    0  0.78693038381E-01  0.59186657620E-02  0.10846226180E+00  0.89016385409E+00  0.88000000000E+00 0.  1.
        -11    1    4    4    0    0 -0.43794906205E-01  0.17656271922E-01 -0.75698473278E-01  0.89220276425E-01  0.51100000000E-03 0. -1.
         11    1    4    4    0    0 -0.41843291026E-01 -0.14898346472E-01 -0.24803605913E-01  0.50875354729E-01  0.51100000000E-03 0.  1.
</event>
<event>
 8    1  0.2257781E+004  0.1043930E+01  0.7957747E-01            NaN
         13   -1    0    0    0    0  0.00000000000E+00  0.00000000000E+00  0.74505805969E-08  0.10566000000E+00  0.10566000000E+00 0. -1.
     999900   -1    0    0    0    0 -0.00000000000E+00 -0.00000000000E+00 -0.74505805969E-08  0.93827000000E+00  0.93827000000E+00 0. -1.
     999902    2    1    2    0    0 -0.12927288020E-01 -0.98668516676E-02 -0.19593454314E-02  0.10275498727E+01  0.10274193069E+01 0.  0.
     999903    2    3    3    0    0 -0.15500148815E-01 -0.11792437628E+00  0.55385095214E-01  0.13908409779E+00  0.46156953437E-01 0.  0.
         14    1    1    2    0    0  0.12927288020E-01  0.98668516676E-02  0.19593454314E-02  0.16380127347E-01  0.00000000000E+00 0. -1.
     999901    1    3    3    0    0  0.25728607946E-02  0.10805752461E+00 -0.57344440645E-01  0.88846577487E+00  0.88000000000E+00 0. -1.
        -11    1    4    4    0    0 -0.18553384611E-01 -0.98154042841E-01  0.62512957677E-01  0.11784131366E+00  0.51100000000E-03 0.  1.
         11    1    4    4    0    0  0.30532357959E-02 -0.19770333439E-01 -0.71278624630E-02  0.21242784126E-01  0.51100000000E-03 0. -1.
</event>
<event>
 8    1  0.2257781E+004  0.1043930E+01  0.7957747E-01            NaN
         13   -1    0    0    0    0  0.00000000000E+00  0.00000000000E+00  0.74505805969E-08  0.10566000000E+00  0.10566000000E+00 0.  1.
     999900   -1    0    0    0    0 -0.00000000000E+00 -0.00000000000E+00 -0.74505805969E-08  0.93827000000E+00  0.93827000000E+00 0.  1.
     999902    2    1    2    0    0  0.10218232622E-01  0.29691346716E-02  0.82630546471E-02  0.10304575796E+01  0.10303695052E+01 0.  0.
     999903    2    3    3    0    0 -0.27138970087E-02  0.12899246933E+00 -0.31788783597E-01  0.14048383248E+00  0.45593399149E-01 0.  0.
         14    1    1    2    0    0 -0.10218232622E-01 -0.29691346716E-02 -0.82630546471E-02  0.13472420373E-01  0.00000000000E+00 0. -1.
     999901    1    3    3    0    0  0.12932129631E-01 -0.12602333466E+00  0.40051838244E-01  0.88997374714E+00  0.88000000000E+00 0.  1.
        -11    1    4    4    0    0  0.18796025478E-01  0.67168545250E-01 -0.55882558228E-02  0.69974236466E-01  0.51100000000E-03 0. -1.
         11    1    4    4    0    0 -0.21509922487E-01  0.61823924081E-01 -0.26200527774E-01  0.70509596019E-01  0.51100000000E-03 0.  1.
</event>
<event>
 8    1  0.2257781E+004  0.1043930E+01  0.7957747E-01            NaN
         13   -1    0    0    0    0  0.00000000000E+00  0.00000000000E+00  0.74505805969E-08  0.10566000000E+00  0.10566000000E+00 0.  1.
     999900   -1    0    0    0    0 -0.00000000000E+00 -0.00000000000E+00 -0.74505805969E-08  0.93827000000E+00  0.93827000000E+00 0.  1.
     999902    2    1    2    0    0 -0.13046036170E-01  0.16797907897E-02 -0.58246933667E-02  0.10295443193E+01  0.10294438098E+01 0.  0.
     999903    2    3    3    0    0  0.12174381876E+00  0.39298707268E-03 -0.51382579129E-01  0.13811542037E+00  0.40174470285E-01 0.  0.
         14    1    1    2    0    0  0.13046036170E-01 -0.16797907897E-02  0.58246933667E-02  0.14385680716E-01  0.00000000000E+00 0.  1.
     999901    1    3    3    0    0 -0.13478985493E+00  0.12868037171E-02  0.45557885762E-01  0.89142889891E+00  0.88000000000E+00 0.  1.
        -11    1    4    4    0    0  0.49411044602E-01  0.16344229167E-01 -0.33561975437E-01  0.61929415240E-01  0.51100000000E-03 0.  1.
         11    1    4    4    0    0  0.72332774156E-01 -0.15951242094E-01 -0.17820603692E-01  0.76186005134E-01  0.51100000000E-03 0. -1.
</event>
<event>
 8    1  0.2257781E+004  0.1043930E+01  0.7957747E-01            NaN
         13   -1    0    0    0    0  0.00000000000E+00  0.00000000000E+00  0.74505805969E-08  0.10566000000E+00  0.10566000000E+00 0.  1.
     999900   -1    0    0    0    0 -0.00000000000E+00 -0.00000000000E+00 -0.74505805969E-08  0.93827000000E+00  0.93827000000E+00 0. -1.
     999902    2    1    2    0    0 -0.11982402003E-01 -0.43517278660E-02  0.49050079852E-02  0.10302707688E+01  0.10301802184E+01 0.  0.
     999903    2    3    3    0    0 -0.35121664718E-01  0.16144802672E-01  0.12810550540E+00  0.14115103795E+00  0.44926707148E-01 0.  0.
         14    1    1    2    0    0  0.11982402003E-01  0.43517278660E-02 -0.49050079852E-02  0.13659231184E-01  0.00000000000E+00 0. -1.
     999901    1    3    3    0    0  0.23139262715E-01 -0.20496530538E-01 -0.12320049742E+00  0.88911973086E+00  0.88000000000E+00 0. -1.
        -11    1    4    4    0    0 -0.42898594379E-02  0.24738999944E-01  0.38190716229E-01  0.45707908936E-01  0.51100000000E-03 0. -1.
         11    1    4    4    0    0 -0.30831805280E-01 -0.85941972722E-02  0.89914789175E-01  0.95443129019E-01  0.51100000000E-03 0.  1.
</event>
<event>
 8    1  0.2257781E+004  0.1043930E+01  0.7957747E-01            NaN
         13   -1    0    0    0    0  0.00000000000E+00  0.00000000000E+00  0.74505805969E-08  0.10566000000E+00  0.10566000000E+00 0.  1.
     999900   -1    0    0    0    0 -0.00000000000E+00 -0.00000000000E+00 -0.74505805969E-08  0.93827000000E+00  0.93827000000E+00 0.  1.
     999902    2    1    2    0    0  0.27603414340E-02  0.29754495251E-02 -0.11463344778E-01  0.10317693644E+01  0.10316976981E+01 0.  0.
     999903    2    3    3    0    0  0.90652673694E-01 -0.98039556821E-01 -0.14014103335E-01  0.14163701472E+00  0.45110829043E-01 0.  0.
         14    1    1    2    0    0 -0.27603414340E-02 -0.29754495251E-02  0.11463344778E-01  0.12160635600E-01  0.00000000000E+00 0. -1.
     999901    1    3    3    0    0 -0.87892332260E-01  0.10101500635E+00  0.25507585566E-02  0.89013234968E+00  0.88000000000E+00 0. -1.
        -11    1    4    4    0    0  0.62248448712E-01 -0.74188173913E-01 -0.29796292472E-01  0.10132539011E+00  0.51100000000E-03 0. -1.
         11    1    4    4    0    0  0.28404224981E-01 -0.23851382909E-01  0.15782189137E-01  0.40311624606E-01  0.51100000000E-03 0.  1.
</event>
<event>
 8    1  0.2257781E+004  0.1043930E+01  0.7957747E-01            NaN
         13   -1    0    0    0    0  0.00000000000E+00  0.00000000000E+00  0.74505805969E-08  0.10566000000E+00  0.10566000000E+00 0. -1.
     999900   -1    0    0    0    0 -0.00000000000E+00 -0.00000000000E+00 -0.74505805969E-08  0.93827000000E+00  0.93827000000E+00 0.  1.
     999902    2    1    2    0    0  0.12363347310E-01  0.52115037164E-02  0.90530907782E-03  0.10304826318E+01  0.10303948868E+01 0.  0.
     999903    2    3    3    0    0 -0.12500265870E+00  0.38385589402E-01 -0.10895063849E-01  0.13913018276E+00  0.46253509946E-01 0.  0.
         14    1    1    2    0    0 -0.12363347310E-01 -0.52115037164E-02 -0.90530907782E-03  0.13447368226E-01  0.00000000000E+00 0. -1.
     999901    1    3    3    0    0  0.13736600601E+00 -0.33174085686E-01  0.11800372927E-01  0.89135244902E+00  0.88000000000E+00 0. -1.
        -11    1    4    4    0    0 -0.14196904612E-01  0.20648899555E-01 -0.97881887166E-02  0.26907227890E-01  0.51100000000E-03 0. -1.
         11    1    4    4    0    0 -0.11080575409E+00  0.17736689847E-01 -0.11068751321E-02  0.11222295487E+00  0.51100000000E-03 0.  1.
</event>
<event>
 8    1  0.2257781E+004  0.1043930E+01  0.7957747E-01            NaN
         13   -1    0    0    0    0  0.00000000000E+00  0.00000000000E+00  0.74505805969E-08  0.10566000000E+00  0.10566000000E+00 0.  1.
     999900   -1    0    0    0    0 -0.00000000000E+00 -0.00000000000E+00 -0.74505805969E-08  0.93827000000E+00  0.93827000000E+00 0.  1.
     999902    2    1    2    0    0  0.56848727426E-02 -0.88719226028E-02 -0.58864737345E-02  0.10318602294E+01  0.10317896364E+01 0.  0.
     999903    2    3    3    0    0 -0.27837381788E-01  0.12817738037E+00 -0.21686187168E-01  0.14048158713E+00  0.45391903957E-01 0.  0.
         14    1    1    2    0    0 -0.56848727426E-02  0.88719226028E-02  0.58864737345E-02  0.12069770578E-01  0.00000000000E+00 0. -1.
     999901    1    3    3    0    0  0.33522254531E-01 -0.13704930297E+00  0.15799713434E-01  0.89137864229E+00  0.88000000000E+00 0.  1.
        -11    1    4    4    0    0  0.65592529327E-02  0.61152479875E-01  0.19110242725E-02  0.61535052845E-01  0.51100000000E-03 0.  1.
         11    1    4    4    0    0 -0.34396634721E-01  0.67024900495E-01 -0.23597211441E-01  0.78946534283E-01  0.51100000000E-03 0. -1.
</event>
<event>
 8    1  0.2257781E+004  0.1043930E+01  0.7957747E-01            NaN
         13   -1    0    0    0    0  0.00000000000E+00  0.00000000000E+00  0.74505805969E-08  0.10566000000E+00  0.10566000000E+00 0.  1.
     999900   -1    0    0    0    0 -0.00000000000E+00 -0.00000000000E+00 -0.74505805969E-08  0.93827000000E+00  0.93827000000E+00 0. -1.
     999902    2    1    2    0    0 -0.61925533504E-02  0.86944826345E-03  0.73345458431E-02  0.10342915759E+01  0.10342466653E+01 0.  0.
     999903    2    3    3    0    0 -0.12997350512E+00 -0.15570054407E-01  0.42303387666E-01  0.14478901759E+00  0.45152457050E-01 0.  0.
         14    1    1    2    0    0  0.61925533504E-02 -0.86944826345E-03 -0.73345458431E-02  0.96384241453E-02  0.00000000000E+00 0. -1.
     999901    1    3    3    0    0  0.12378095177E+00  0.16439502671E-01 -0.34968841823E-01  0.88950255827E+00  0.88000000000E+00 0.  1.
        -11    1    4    4    0    0 -0.24646799850E-01 -0.77314437770E-02 -0.90133989178E-02  0.27363158567E-01  0.51100000000E-03 0. -1.
         11    1    4    4    0    0 -0.10532670527E+00 -0.78386106303E-02  0.51316786584E-01  0.11742585902E+00  0.51100000000E-03 0.  1.
</event>
<event>
 8    1  0.2257781E+004  0.1043930E+01  0.7957747E-01            NaN
         13   -1    0    0    0    0  0.00000000000E+00  0.00000000000E+00  0.74505805969E-08  0.10566000000E+00  0.10566000000E+00 0. -1.
     999900   -1    0    0    0    0 -0.00000000000E+00 -0.00000000000E+00 -0.74505805969E-08  0.93827000000E+00  0.93827000000E+00 0. -1.
     999902    2    1    2    0    0 -0.35981261696E-02  0.12750665458E-01  0.51471382896E-03  0.10306713835E+01  0.10305861002E+01 0.  0.
     999903    2    3    3    0    0 -0.34292125749E-01 -0.79443580437E-01  0.10027449671E+00  0.13972025415E+00  0.44492048367E-01 0.  0.
         14    1    1    2    0    0  0.35981261696E-02 -0.12750665458E-01 -0.51471382896E-03  0.13258616515E-01  0.00000000000E+00 0.  1.
     999901    1    3    3    0    0  0.30693999580E-01  0.92194245896E-01 -0.99759782880E-01  0.89095112934E+00  0.88000000000E+00 0. -1.
        -11    1    4    4    0    0 -0.19292123968E-02 -0.53026719595E-01  0.40319283540E-01  0.66644284058E-01  0.51100000000E-03 0.  1.
         11    1    4    4    0    0 -0.32362913352E-01 -0.26416860842E-01  0.59955213169E-01  0.73075970090E-01  0.51100000000E-03 0. -1.
</event>
<event>
 8    1  0.2257781E+004  0.1043930E+01  0.7957747E-01            NaN
         13   -1    0    0    0    0  0.00000000000E+00  0.00000000000E+00  0.74505805969E-08  0.10566000000E+00  0.10566000000E+00 0. -1.
     999900   -1    0    0    0    0 -0.00000000000E+00 -0.00000000000E+00 -0.74505805969E-08  0.93827000000E+00  0.93827000000E+00 0. -1.
     999902    2    1    2    0    0  0.15617658812E-02  0.93421959415E-03  0.13400981429E-01  0.10304060146E+01  0.10303172602E+01 0.  0.
     999903    2    3    3    0    0 -0.10396741457E+00 -0.99635858033E-02 -0.77774974020E-01  0.13935706813E+00  0.49628112186E-01 0.  0.
         14    1    1    2    0    0 -0.15617658812E-02 -0.93421959415E-03 -0.13400981429E-01  0.13523985440E-01  0.00000000000E+00 0.  1.
     999901    1    3    3    0    0  0.10552918045E+00  0.10897805397E-01  0.91175955450E-01  0.89104894643E+00  0.88000000000E+00 0. -1.
        -11    1    4    4    0    0 -0.42639842959E-01  0.16484790151E-01 -0.16167790696E-01  0.48492917945E-01  0.51100000000E-03 0. -1.
         11    1    4    4    0    0 -0.61327571607E-01 -0.26448375954E-01 -0.61607183324E-01  0.90864150181E-01  0.51100000000E-03 0.  1.
</event>
<event>
 8    1  0.2257781E+004  0.1043930E+01  0.7957747E-01            NaN
         13   -1    0    0    0    0  0.00000000000E+00  0.00000000000E+00  0.74505805969E-08  0.10566000000E+00  0.10566000000E+00 0. -1.
     999900   -1    0    0    0    0 -0.00000000000E+00 -0.00000000000E+00 -0.74505805969E-08  0.93827000000E+00  0.93827000000E+00 0. -1.
     999902    2    1    2    0    0  0.89965926769E-02  0.88886398940E-02 -0.62055655744E-02  0.10298425715E+01  0.10297462145E+01 0.  0.
     999903    2    3    3    0    0 -0.56179208696E-01 -0.11698353509E+00 -0.17306497661E-01  0.13843081462E+00  0.44970263564E-01 0.  0.
         14    1    1    2    0    0 -0.89965926769E-02 -0.88886398940E-02  0.62055655744E-02  0.14087428547E-01  0.00000000000E+00 0. -1.
     999901    1    3    3    0    0  0.65175801373E-01  0.12587217498E+00  0.11100932087E-01  0.89141175683E+00  0.88000000000E+00 0. -1.
        -11    1    4    4    0    0 -0.60914282820E-01 -0.10204103853E+00 -0.24232504727E-01  0.12128643289E+00  0.51100000000E-03 0.  1.
         11    1    4    4    0    0  0.47350741239E-02 -0.14942496556E-01  0.69260070663E-02  0.17144381738E-01  0.51100000000E-03 0. -1.
</event>
<event>
 7    1  0.2257781E+004  0.1043930E+01  0.7957747E-01            NaN
         13   -1    0    0    0    0  0.00000000000E+00  0.00000000000E+00  0.74505805969E-08  0.10566000000E+00  0.10566000000E+00 0. -1.
     999900   -1    0    0    0    0 -0.00000000000E+00 -0.00000000000E+00 -0.74505805969E-08  0.93827000000E+00  0.93827000000E+00 0. -1.
     999903    2    1    2    0    0  0.33007908340E-01 -0.97829600235E-01 -0.44328269592E-01  0.12100594428E+00  0.44914255758E-01 0.  0.
         14    1    1    2    0    0  0.52408847110E-02 -0.31075120161E-01 -0.13171379213E-02  0.31541477737E-01  0.00000000000E+00 0. -1.
     999901    1    1    2    0    0 -0.38248793051E-01  0.12890472040E+00  0.45645407513E-01  0.89138257799E+00  0.88000000000E+00 0. -1.
        -11    1    3    3    0    0  0.38229609091E-01 -0.87711349583E-01 -0.50343854435E-01  0.10811821612E+00  0.51100000000E-03 0.  1.
         11    1    3    3    0    0 -0.52217007512E-02 -0.10118250651E-01  0.60155848437E-02  0.12887728155E-01  0.51100000000E-03 0. -1.
</event>
<event>
 8    1  0.2257781E+004  0.1043930E+01  0.7957747E-01            NaN
         13   -1    0    0    0    0  0.00000000000E+00  0.00000000000E+00  0.74505805969E-08  0.10566000000E+00  0.10566000000E+00 0. -1.
     999900   -1    0    0    0    0 -0.00000000000E+00 -0.00000000000E+00 -0.74505805969E-08  0.93827000000E+00  0.93827000000E+00 0.  1.
     999902    2    1    2    0    0  0.14121775965E-01 -0.14047782874E-02 -0.11238770687E-02  0.10296940926E+01  0.10295956796E+01 0.  0.
     999903    2    3    3    0    0  0.47302604536E-01  0.10215024760E+00  0.70494576103E-01  0.14011339726E+00  0.44610193369E-01 0.  0.
         14    1    1    2    0    0 -0.14121775965E-01  0.14047782874E-02  0.11238770687E-02  0.14235907351E-01  0.00000000000E+00 0. -1.
     999901    1    3    3    0    0 -0.33180828571E-01 -0.10355502588E+00 -0.71618453172E-01  0.88958069539E+00  0.88000000000E+00 0.  1.
        -11    1    4    4    0    0  0.28234908203E-01  0.48859390710E-01  0.10079889091E-01  0.57326393458E-01  0.51100000000E-03 0.  1.
         11    1    4    4    0    0  0.19067696333E-01  0.53290856886E-01  0.60414687012E-01  0.82787003804E-01  0.51100000000E-03 0. -1.
</event>
<event>
 8    1  0.2257781E+004  0.1043930E+01  0.7957747E-01            NaN
         13   -1    0    0    0    0  0.00000000000E+00  0.00000000000E+00  0.74505805969E-08  0.10566000000E+00  0.10566000000E+00 0.  1.
     999900   -1    0    0    0    0 -0.00000000000E+00 -0.00000000000E+00 -0.74505805969E-08  0.93827000000E+00  0.93827000000E+00 0.  1.
     999902    2    1    2    0    0  0.10953798844E-01  0.75684209990E-02  0.52671136359E-02  0.10296118580E+01  0.10295122966E+01 0.  0.
     999903    2    3    3    0    0 -0.10909596143E+00  0.68379263682E-01  0.28616048247E-01  0.13907545989E+00  0.44107287673E-01 0.  0.
         14    1    1    2    0    0 -0.10953798844E-01 -0.75684209990E-02 -0.52671136359E-02  0.14318142044E-01  0.00000000000E+00 0.  1.
     999901    1    3    3    0    0  0.12004976027E+00 -0.60810842683E-01 -0.23348934611E-01  0.89053639806E+00  0.88000000000E+00 0.  1.
        -11    1    4    4    0    0 -0.26961112697E-01 -0.66451956077E-03 -0.31848139339E-02  0.27161504835E-01  0.51100000000E-03 0. -1.
         11    1    4    4    0    0 -0.82134848729E-01  0.69043783243E-01  0.31800862181E-01  0.11191395506E+00  0.51100000000E-03 0.  1.
</event>
<event>
 8    1  0.2257781E+004  0.1043930E+01  0.7957747E-01            NaN
         13   -1    0    0    0    0  0.00000000000E+00  0.00000000000E+00  0.74505805969E-08  0.10566000000E+00  0.10566000000E+00 0.  1.
     999900   -1    0    0    0    0 -0.00000000000E+00 -0.00000000000E+00 -0.74505805969E-08  0.93827000000E+00  0.93827000000E+00 0.  1.
     999902    2    1    2    0    0  0.57493421531E-02 -0.11080785803E-01 -0.57714188240E-02  0.10301768904E+01  0.10300850826E+01 0.  0.
     999903    2    3    3    0    0 -0.65321768496E-01 -0.10467953540E+00 -0.52234186812E-01  0.14114898445E+00  0.44383408719E-01 0.  0.
         14    1    1    2    0    0 -0.57493421531E-02  0.11080785803E-01  0.57714188240E-02  0.13753109628E-01  0.00000000000E+00 0. -1.
     999901    1    3    3    0    0  0.71071110649E-01  0.93598749595E-01  0.46462767988E-01  0.88902790592E+00  0.88000000000E+00 0.  1.
        -11    1    4    4    0    0 -0.51199504791E-01 -0.97326406411E-01 -0.30356214571E-01  0.11408584294E+00  0.51100000000E-03 0. -1.
         11    1    4    4    0    0 -0.14122263705E-01 -0.73531289869E-02 -0.21877972241E-01  0.27063141511E-01  0.51100000000E-03 0.  1.
</event>
<event>
 8    1  0.2257781E+004  0.1043930E+01  0.7957747E-01            NaN
         13   -1    0    0    0    0  0.00000000000E+00  0.00000000000E+00  0.74505805969E-08  0.10566000000E+00  0.10566000000E+00 0.  1.
     999900   -1    0    0    0    0 -0.00000000000E+00 -0.00000000000E+00 -0.74505805969E-08  0.93827000000E+00  0.93827000000E+00 0.  1.
     999902    2    1    2    0    0  0.11579523794E-01  0.14311167519E-02 -0.75797950324E-02  0.10300164541E+01  0.10299224772E+01 0.  0.
     999903    2    3    3    0    0  0.31619283058E-01 -0.12845224003E+00 -0.26545031857E-01  0.14005524230E+00  0.37564280218E-01 0.  0.
         14    1    1    2    0    0 -0.11579523794E-01 -0.14311167519E-02  0.75797950324E-02  0.13913545889E-01  0.00000000000E+00 0. -1.
     999901    1    3    3    0    0 -0.20039759263E-01  0.12988335679E+00  0.18965236825E-01  0.88996121181E+00  0.88000000000E+00 0. -1.
        -11    1    4    4    0    0  0.26128619338E-01 -0.62829058426E-01  0.24697898795E-02  0.68092263248E-01  0.51100000000E-03 0. -1.
         11    1    4    4    0    0  0.54906637196E-02 -0.65623181609E-01 -0.29014821737E-01  0.71962979051E-01  0.51100000000E-03 0.  1.
</event>
<event>
 8    1  0.2257781E+004  0.1043930E+01  0.7957747E-01            NaN
         13   -1    0    0    0    0  0.00000000000E+00  0.00000000000E+00  0.74505805969E-08  0.10566000000E+00  0.10566000000E+00 0.  1.
     999900   -1    0    0    0    0 -0.00000000000E+00 -0.00000000000E+00 -0.74505805969E-08  0.93827000000E+00  0.93827000000E+00 0.  1.
     999902    2    1    2    0    0  0.18087294456E-03 -0.93127150953E-02 -0.10660740492E-01  0.10297733491E+01  0.10296760363E+01 0.  0.
     999903    2    3    3    0    0  0.56334774161E-02  0.12982729501E+00 -0.19023846101E-01  0.13878534981E+00  0.44862055273E-01 0.  0.
         14    1    1    2    0    0 -0.18087294456E-03  0.93127150953E-02  0.10660740492E-01  0.14156650921E-01  0.00000000000E+00 0.  1.
     999901    1    3    3    0    0 -0.54526044715E-02 -0.13914001011E+00  0.83631056089E-02  0.89098799927E+00  0.88000000000E+00 0. -1.
        -11    1    4    4    0    0 -0.13274573181E-02  0.54000789855E-01  0.13971402763E-01  0.55797030961E-01  0.51100000000E-03 0.  1.
         11    1    4    4    0    0  0.69609347342E-02  0.75826505157E-01 -0.32995248864E-01  0.82988318848E-01  0.51100000000E-03 0. -1.
</event>
<event>
 8    1  0.2257781E+004  0.1043930E+01  0.7957747E-01            NaN
         13   -1    0    0    0    0  0.00000000000E+00  0.00000000000E+00  0.74505805969E-08  0.10566000000E+00  0.10566000000E+00 0.  1.
     999900   -1    0    0    0    0 -0.00000000000E+00 -0.00000000000E+00 -0.74505805969E-08  0.93827000000E+00  0.93827000000E+00 0. -1.
     999902    2    1    2    0    0  0.69143743092E-02 -0.12050618220E-01  0.53892647936E-03  0.10300261727E+01  0.10299323279E+01 0.  0.
     999903    2    3    3    0    0  0.11757599950E+00 -0.56053608519E-01  0.31338391908E-01  0.14147067894E+00  0.45450363091E-01 0.  0.
         14    1    1    2    0    0 -0.69143743092E-02  0.12050618220E-01 -0.53892647936E-03  0.13903827290E-01  0.00000000000E+00 0. -1.
     999901    1    3    3    0    0 -0.11066162519E+00  0.44002990299E-01 -0.30799465429E-01  0.88855549377E+00  0.88000000000E+00 0. -1.
        -11    1    4    4    0    0  0.37825344566E-01 -0.11328606461E-01  0.30721158905E-01  0.50031437530E-01  0.51100000000E-03 0. -1.
         11    1    4    4    0    0  0.79750654933E-01 -0.44725002058E-01  0.61723300357E-03  0.91439241406E-01  0.51100000000E-03 0.  1.
</event>
<event>
 8    1  0.2257781E+004  0.1043930E+01  0.7957747E-01            NaN
         13   -1    0    0    0    0  0.00000000000E+00  0.00000000000E+00  0.74505805969E-08  0.10566000000E+00  0.10566000000E+00 0. -1.
     999900   -1    0    0    0    0 -0.00000000000E+00 -0.00000000000E+00 -0.74505805969E-08  0.93827000000E+00  0.93827000000E+00 0. -1.
     999902    2    1    2    0    0  0.96932561901E-02 -0.47037448724E-02  0.84666649367E-02  0.10302271227E+01  0.10301359888E+01 0.  0.
     999903    2    3    3    0    0  0.70490447042E-01  0.12904148044E-01  0.11398593983E+00  0.14166612102E+00  0.44057635045E-01 0.  0.
         14    1    1    2    0    0 -0.96932561901E-02  0.47037448724E-02 -0.84666649367E-02  0.13702877309E-01  0.00000000000E+00 0.  1.
     999901    1    3    3    0    0 -0.60797190852E-01 -0.17607892916E-01 -0.10551927490E+00  0.88856100167E+00  0.88000000000E+00 0. -1.
        -11    1    4    4    0    0  0.25689608060E-01  0.26676985390E-01  0.55316320759E-01  0.66571570321E-01  0.51100000000E-03 0.  1.
         11    1    4    4    0    0  0.44800838982E-01 -0.13772837346E-01  0.58669619073E-01  0.75094550703E-01  0.51100000000E-03 0. -1.
</event>
<event>
 8    1  0.2257781E+004  0.1043930E+01  0.7957747E-01            NaN
         13   -1    0    0    0    0  0.00000000000E+00  0.00000000000E+00  0.74505805969E-08  0.10566000000E+00  0.10566000000E+00 0. -1.
     999900   -1    0    0    0    0 -0.00000000000E+00 -0.00000000000E+00 -0.74505805969E-08  0.93827000000E+00  0.93827000000E+00 0.  1.
     999902    2    1    2    0    0 -0.25448543673E-02 -0.10633242578E-01  0.96110947174E-02  0.10293726900E+01  0.10292697507E+01 0.  0.
     999903    2    3    3    0    0 -0.66370981463E-01  0.60684447331E-01 -0.93920083518E-01  0.13814954612E+00  0.46654106762E-01 0.  0.
         14    1    1    2    0    0  0.25448543673E-02  0.10633242578E-01 -0.96110947174E-02  0.14557309956E-01  0.00000000000E+00 0.  1.
     999901    1    3    3    0    0  0.63826127096E-01 -0.71317689909E-01  0.10353117824E+00  0.89122314392E+00  0.88000000000E+00 0. -1.
        -11    1    4    4    0    0 -0.48301094816E-01  0.20951406847E-01 -0.72291503018E-01  0.89433102031E-01  0.51100000000E-03 0.  1.
         11    1    4    4    0    0 -0.18069886647E-01  0.39733040484E-01 -0.21628580500E-01  0.48716444092E-01  0.51100000000E-03 0. -1.
</event>
<event>
 8    1  0.2257781E+004  0.1043930E+01  0.7957747E-01            NaN
         13   -1    0    0    0    0  0.00000000000E+00  0.00000000000E+00  0.74505805969E-08  0.10566000000E+00  0.10566000000E+00 0.  1.
     999900   -1    0    0    0    0 -0.00000000000E+00 -0.00000000000E+00 -0.74505805969E-08  0.93827000000E+00  0.93827000000E+00 0. -1.
     999902    2    1    2    0    0  0.53065740630E-02 -0.24624062219E-03 -0.13885730332E-01  0.10290627921E+01  0.10289553908E+01 0.  0.
     999903    2    3    3    0    0  0.15411868704E-01 -0.11497974017E+00  0.60876875826E-01  0.13841396113E+00  0.44660544995E-01 0.  0.
         14    1    1    2    0    0 -0.53065740630E-02  0.24624062219E-03  0.13885730332E-01  0.14867207861E-01  0.00000000000E+00 0.  1.
     999901    1    3    3    0    0 -0.10105294641E-01  0.11473349955E+00 -0.74762606157E-01  0.89064883101E+00  0.88000000000E+00 0.  1.
        -11    1    4    4    0    0 -0.65621174514E-02 -0.90249752135E-01  0.37758440422E-01  0.98051211568E-01  0.51100000000E-03 0.  1.
         11    1    4    4    0    0  0.21973986155E-01 -0.24729988034E-01  0.23118435404E-01  0.40362749563E-01  0.51100000000E-03 0. -1.
</event>
<event>
 8    1  0.2257781E+004  0.1043930E+01  0.7957747E-01            NaN
         13   -1    0    0    0    0  0.00000000000E+00  0.00000000000E+00  0.74505805969E-08  0.10566000000E+00  0.10566000000E+00 0. -1.
     999900   -1    0    0    0    0 -0.00000000000E+00 -0.00000000000E+00 -0.74505805969E-08  0.93827000000E+00  0.93827000000E+00 0. -1.
     999902    2    1    2    0    0  0.10278883818E-01 -0.76611391233E-02  0.52785016494E-02  0.10300659788E+01  0.10299726742E+01 0.  0.
     999903    2    3    3    0    0  0.47008919587E-01 -0.87748487966E-01  0.89936726953E-01  0.14162346848E+00  0.45375723764E-01 0.  0.
         14    1    1    2    0    0 -0.10278883818E-01  0.76611391233E-02 -0.52785016494E-02  0.13864021238E-01  0.00000000000E+00 0.  1.
     999901    1    3    3    0    0 -0.36730035769E-01  0.80087348843E-01 -0.84658225303E-01  0.88844251029E+00  0.88000000000E+00 0. -1.
        -11    1    4    4    0    0  0.23469589288E-01 -0.83539552106E-02  0.11071622749E-01  0.27266318789E-01  0.51100000000E-03 0.  1.
         11    1    4    4    0    0  0.23539330299E-01 -0.79394532756E-01  0.78865104204E-01  0.11435714969E+00  0.51100000000E-03 0. -1.
</event>
<event>
 8    1  0.2257781E+004  0.1043930E+01  0.7957747E-01            NaN
         13   -1    0    0    0    0  0.00000000000E+00  0.00000000000E+00  0.74505805969E-08  0.10566000000E+00  0.10566000000E+00 0.  1.
     999900   -1    0    0    0    0 -0.00000000000E+00 -0.00000000000E+00 -0.74505805969E-08  0.93827000000E+00  0.93827000000E+00 0. -1.
     999902    2    1    2    0    0  0.76008824945E-02  0.28801572728E-03 -0.11571785922E-01  0.10300821627E+01  0.10299890773E+01 0.  0.
     999903    2    3    3    0    0 -0.12536983620E+00  0.20269629657E-01 -0.36441440341E-01  0.13952111673E+00  0.44829786140E-01 0.  0.
         14    1    1    2    0    0 -0.76008824945E-02 -0.28801572728E-03  0.11571785922E-01  0.13847837274E-01  0.00000000000E+00 0.  1.
     999901    1    3    3    0    0  0.13297071870E+00 -0.19981613930E-01  0.24869654419E-01  0.89056104599E+00  0.88000000000E+00 0.  1.
        -11    1    4    4    0    0 -0.62435392920E-01  0.30131005201E-01 -0.81084510243E-02  0.69800170935E-01  0.51100000000E-03 0. -1.
         11    1    4    4    0    0 -0.62934443280E-01 -0.98613755436E-02 -0.28332989317E-01  0.69720945800E-01  0.51100000000E-03 0.  1.
</event>
<event>
 8    1  0.2257781E+004  0.1043930E+01  0.7957747E-01            NaN
         13   -1    0    0    0    0  0.00000000000E+00  0.00000000000E+00  0.74505805969E-08  0.10566000000E+00  0.10566000000E+00 0. -1.
     999900   -1    0    0    0    0 -0.00000000000E+00 -0.00000000000E+00 -0.74505805969E-08  0.93827000000E+00  0.93827000000E+00 0.  1.
     999902    2    1    2    0    0 -0.45687531558E-02  0.22869601456E-03  0.10269325123E-01  0.10326878985E+01  0.10326267045E+01 0.  0.
     999903    2    3    3    0    0 -0.15707287784E-01  0.13332842131E+00 -0.14649012879E-01  0.14226073844E+00  0.44725130567E-01 0.  0.
         14    1    1    2    0    0  0.45687531558E-02 -0.22869601456E-03 -0.10269325123E-01  0.11242101483E-01  0.00000000000E+00 0.  1.
     999901    1    3    3    0    0  0.11138534628E-01 -0.13309972530E+00  0.24918338003E-01  0.89042716007E+00  0.88000000000E+00 0.  1.
        -11    1    4    4    0    0  0.95454412062E-02  0.79345419595E-01  0.33896410284E-02  0.79991011031E-01  0.51100000000E-03 0.  1.
         11    1    4    4    0    0 -0.25252728990E-01  0.53983001720E-01 -0.18038653908E-01  0.62269727412E-01  0.51100000000E-03 0. -1.
</event>
<event>
 8    1  0.2257781E+004  0.1043930E+01  0.7957747E-01            NaN
         13   -1    0    0    0    0  0.00000000000E+00  0.00000000000E+00  0.74505805969E-08  0.10566000000E+00  0.10566000000E+00 0. -1.
     999900   -1    0    0    0    0 -0.00000000000E+00 -0.00000000000E+00 -0.74505805969E-08  0.93827000000E+00  0.93827000000E+00 0. -1.
     999902    2    1    2    0    0  0.70004742940E-02  0.12265434284E-01 -0.11578563139E-03  0.10298069364E+01  0.10297100880E+01 0.  0.
     999903    2    3    3    0    0  0.11691793373E+00  0.44466591511E-01 -0.54901164863E-01  0.14069490738E+00  0.33672512084E-01 0.  0.
         14    1    1    2    0    0 -0.70004742940E-02 -0.12265434284E-01  0.11578563139E-03  0.14123063578E-01  0.00000000000E+00 0.  1.
     999901    1    3    3    0    0 -0.10991745944E+00 -0.32201157227E-01  0.54785379232E-01  0.88911202905E+00  0.88000000000E+00 0.  1.
        -11    1    4    4    0    0  0.62139636368E-01  0.22654580038E-01 -0.47142058849E-01  0.81223144720E-01  0.51100000000E-03 0.  1.
         11    1    4    4    0    0  0.54778297361E-01  0.21812011473E-01 -0.77591060146E-02  0.59471762656E-01  0.51100000000E-03 0. -1.
</event>
<event>
 8    1  0.2257781E+004  0.1043930E+01  0.7957747E-01            NaN
         13   -1    0    0    0    0  0.00000000000E+00  0.00000000000E+00  0.74505805969E-08  0.10566000000E+00  0.10566000000E+00 0.  1.
     999900   -1    0    0    0    0 -0.00000000000E+00 -0.00000000000E+00 -0.74505805969E-08  0.93827000000E+00  0.93827000000E+00 0.  1.
     999902    2    1    2    0    0 -0.12827850437E-01  0.43643969370E-02  0.10792941831E-02  0.10303371128E+01  0.10302474457E+01 0.  0.
     999903    2    3    3    0    0  0.74500680789E-01 -0.10671663137E+00  0.17712865143E-01  0.13891019882E+00  0.45205164485E-01 0.  0.
         14    1    1    2    0    0  0.12827850437E-01 -0.43643969370E-02 -0.10792941831E-02  0.13592887236E-01  0.00000000000E+00 0.  1.
     999901    1    3    3    0    0 -0.87328531227E-01  0.11108102831E+00 -0.16633570959E-01  0.89142691394E+00  0.88000000000E+00 0.  1.
        -11    1    4    4    0    0  0.47479387307E-01 -0.57291648289E-01 -0.11760840627E-01  0.75333947699E-01  0.51100000000E-03 0.  1.
         11    1    4    4    0    0  0.27021293482E-01 -0.49424983082E-01  0.29473705769E-01  0.63576251123E-01  0.51100000000E-03 0. -1.
</event>
<event>
 8    1  0.2257781E+004  0.1043930E+01  0.7957747E-01            NaN
         13   -1    0    0    0    0  0.00000000000E+00  0.00000000000E+00  0.74505805969E-08  0.10566000000E+00  0.10566000000E+00 0.  1.
     999900   -1    0    0    0    0 -0.00000000000E+00 -0.00000000000E+00 -0.74505805969E-08  0.93827000000E+00  0.93827000000E+00 0. -1.
     999902    2    1    2    0    0 -0.13320035092E-01  0.59651038828E-02 -0.78705756504E-03  0.10293140752E+01  0.10292102992E+01 0.  0.
     999903    2    3    3    0    0 -0.46017855393E-02  0.42794869736E-01 -0.12567284838E+00  0.13969117737E+00  0.43213226088E-01 0.  0.
         14    1    1    2    0    0  0.13320035092E-01 -0.59651038828E-02  0.78705756504E-03  0.14615924835E-01  0.00000000000E+00 0.  1.
     999901    1    3    3    0    0 -0.87182495525E-02 -0.36829765853E-01  0.12488579082E+00  0.88962289779E+00  0.88000000000E+00 0.  1.
        -11    1    4    4    0    0  0.10154285676E-01  0.44930986042E-01 -0.95758105323E-01  0.10626278220E+00  0.51100000000E-03 0.  1.
         11    1    4    4    0    0 -0.14756071215E-01 -0.21361163065E-02 -0.29914743061E-01  0.33428395175E-01  0.51100000000E-03 0. -1.
</event>
<event>
 8    1  0.2257781E+004  0.1043930E+01  0.7957747E-01            NaN
         13   -1    0    0    0    0  0.00000000000E+00  0.00000000000E+00  0.74505805969E-08  0.10566000000E+00  0.10566000000E+00 0.  1.
     999900   -1    0    0    0    0 -0.00000000000E+00 -0.00000000000E+00 -0.74505805969E-08  0.93827000000E+00  0.93827000000E+00 0. -1.
     999902    2    1    2    0    0  0.62892580445E-02 -0.99368978606E-04 -0.12841792064E-01  0.10296304803E+01  0.10295311795E+01 0.  0.
     999903    2    3    3    0    0  0.24528942418E-02 -0.11708212206E+00  0.59292736207E-01  0.13895485336E+00  0.45591476294E-01 0.  0.
         14    1    1    2    0    0 -0.62892580445E-02  0.99368978606E-04  0.12841792064E-01  0.14299519725E-01  0.00000000000E+00 0.  1.
     999901    1    3    3    0    0  0.38363638027E-02  0.11698275308E+00 -0.72134528271E-01  0.89067562691E+00  0.88000000000E+00 0. -1.
        -11    1    4    4    0    0  0.19523119602E-01 -0.87808656539E-01  0.53236850589E-01  0.10452720098E+00  0.51100000000E-03 0. -1.
         11    1    4    4    0    0 -0.17070225360E-01 -0.29273465519E-01  0.60558856177E-02  0.34427652388E-01  0.51100000000E-03 0.  1.
</event>
<event>
 8    1  0.2257781E+004  0.1043930E+01  0.7957747E-01            NaN
         13   -1    0    0    0    0  0.00000000000E+00  0.00000000000E+00  0.74505805969E-08  0.10566000000E+00  0.10566000000E+00 0. -1.
     999900   -1    0    0    0    0 -0.00000000000E+00 -0.00000000000E+00 -0.74505805969E-08  0.93827000000E+00  0.93827000000E+00 0. -1.
     999902    2    1    2    0    0  0.10437253301E-01  0.14174327736E-02  0.85528152189E-02  0.10303618011E+01  0.10302724616E+01 0.  0.
     999903    2    3    3    0    0 -0.12204439968E-01  0.10100772812E+00 -0.84368925442E-01  0.13959509594E+00  0.44912868262E-01 0.  0.
         14    1    1    2    0    0 -0.10437253301E-01 -0.14174327736E-02 -0.85528152189E-02  0.13568198860E-01  0.00000000000E+00 0.  1.
     999901    1    3    3    0    0  0.22641693269E-01 -0.99590295348E-01  0.92921740661E-01  0.89076670520E+00  0.88000000000E+00 0.  1.
        -11    1    4    4    0    0 -0.14714774835E-01  0.14242487355E-01 -0.32674533661E-01  0.38565001173E-01  0.51100000000E-03 0.  1.
         11    1    4    4    0    0  0.25103348665E-02  0.86765240767E-01 -0.51694391781E-01  0.10103009477E+00  0.51100000000E-03 0. -1.
</event>
<event>
 8    1  0.2257781E+004  0.1043930E+01  0.7957747E-01            NaN
         13   -1    0    0    0    0  0.00000000000E+00  0.00000000000E+00  0.74505805969E-08  0.10566000000E+00  0.10566000000E+00 0.  1.
     999900   -1    0    0    0    0 -0.00000000000E+00 -0.00000000000E+00 -0.74505805969E-08  0.93827000000E+00  0.93827000000E+00 0. -1.
     999902    2    1    2    0    0 -0.35444886993E-02 -0.12338486314E-01  0.35512607196E-02  0.10306103492E+01  0.10305242737E+01 0.  0.
     999903    2    3    3    0    0 -0.85088082847E-01 -0.67314554193E-01  0.79607585479E-01  0.14187175416E+00  0.44933238401E-01 0.  0.
         14    1    1    2    0    0  0.35444886993E-02  0.12338486314E-01 -0.35512607196E-02  0.13319650797E-01  0.00000000000E+00 0.  1.
     999901    1    3    3    0    0  0.81543594148E-01  0.54976067879E-01 -0.76056324760E-01  0.88873859504E+00  0.88000000000E+00 0. -1.
        -11    1    4    4    0    0 -0.34528576464E-01 -0.16803610763E-02  0.24150480560E-01  0.42172894592E-01  0.51100000000E-03 0.  1.
         11    1    4    4    0    0 -0.50559506384E-01 -0.65634193116E-01  0.55457104919E-01  0.99698859566E-01  0.51100000000E-03 0. -1.
</event>
<event>
 8    1  0.2257781E+004  0.1043930E+01  0.7957747E-01            NaN
         13   -1    0    0    0    0  0.00000000000E+00  0.00000000000E+00  0.74505805969E-08  0.10566000000E+00  0.10566000000E+00 0.  1.
     999900   -1    0    0    0    0 -0.00000000000E+00 -0.00000000000E+00 -0.74505805969E-08  0.93827000000E+00  0.93827000000E+00 0.  1.
     999902    2    1    2    0    0 -0.11412986034E-02  0.70044860556E-02  0.12301530199E-01  0.10297281328E+01  0.10296301930E+01 0.  0.
     999903    2    3    3    0    0  0.90138693072E-01  0.53814376895E-02 -0.94595376029E-01  0.13857067210E+00  0.45821415720E-01 0.  0.
         14    1    1    2    0    0  0.11412986034E-02 -0.70044860556E-02 -0.12301530199E-01  0.14201867224E-01  0.00000000000E+00 0. -1.
     999901    1    3    3    0    0 -0.91279991676E-01  0.16230483661E-02  0.10689690623E+00  0.89115746068E+00  0.88000000000E+00 0. -1.
        -11    1    4    4    0    0  0.20104835339E-01 -0.17926311363E-01 -0.31649080282E-01  0.41562993718E-01  0.51100000000E-03 0.  1.
         11    1    4    4    0    0  0.70033857734E-01  0.23307749053E-01 -0.62946295747E-01  0.97007678378E-01  0.51100000000E-03 0. -1.
</event>
<event>
 8    1  0.2257781E+004  0.1043930E+01  0.7957747E-01            NaN
         13   -1    0    0    0    0  0.00000000000E+00  0.00000000000E+00  0.74505805969E-08  0.10566000000E+00  0.10566000000E+00 0.  1.
     999900   -1    0    0    0    0 -0.00000000000E+00 -0.00000000000E+00 -0.74505805969E-08  0.93827000000E+00  0.93827000000E+00 0.  1.
     999902    2    1    2    0    0 -0.62442804349E-02 -0.97432309031E-02 -0.80029070838E-02  0.10298598860E+01  0.10297637674E+01 0.  0.
     999903    2    3    3    0    0 -0.50929150755E-01  0.92816371689E-01 -0.80155623902E-01  0.13984796232E+00  0.43861957005E-01 0.  0.
         14    1    1    2    0    0  0.62442804349E-02  0.97432309031E-02  0.80029070838E-02  0.14070114014E-01  0.00000000000E+00 0. -1.
     999901    1    3    3    0    0  0.44684870320E-01 -0.10255960259E+00  0.72152716818E-01  0.89001192366E+00  0.88000000000E+00 0.  1.
        -11    1    4    4    0    0 -0.52874271625E-01  0.91885519680E-01 -0.64621374085E-01  0.12415643534E+00  0.51100000000E-03 0. -1.
         11    1    4    4    0    0  0.19451208700E-02  0.93085200961E-03 -0.15534249817E-01  0.15691526982E-01  0.51100000000E-03 0.  1.
</event>
<event>
 8    1  0.2257781E+004  0.1043930E+01  0.7957747E-01            NaN
         13   -1    0    0    0    0  0.00000000000E+00  0.00000000000E+00  0.74505805969E-08  0.10566000000E+00  0.10566000000E+00 0.  1.
     999900   -1    0    0    0    0 -0.00000000000E+00 -0.00000000000E+00 -0.74505805969E-08  0.93827000000E+00  0.93827000000E+00 0. -1.
     999902    2    1    2    0    0  0.51010939881E-03  0.71661126954E-02 -0.12558159495E-01  0.10294620785E+01  0.10293604084E+01 0.  0.
     999903    2    3    3    0    0  0.72570981919E-01 -0.72596366667E-01 -0.84301126931E-01  0.14002299917E+00  0.44305534907E-01 0.  0.
         14    1    1    2    0    0 -0.51010939881E-03 -0.71661126954E-02  0.12558159495E-01  0.14467921505E-01  0.00000000000E+00 0.  1.
     999901    1    3    3    0    0 -0.72060872521E-01  0.79762479363E-01  0.71742967436E-01  0.88943907933E+00  0.88000000000E+00 0. -1.
        -11    1    4    4    0    0  0.24239985427E-01 -0.38222040269E-01 -0.12627708202E-01  0.46991716198E-01  0.51100000000E-03 0. -1.
         11    1    4    4    0    0  0.48330996492E-01 -0.34374326399E-01 -0.71673418729E-01  0.93031282967E-01  0.51100000000E-03 0.  1.
</event>
<event>
 8    1  0.2257781E+004  0.1043930E+01  0.7957747E-01            NaN
         13   -1    0    0    0    0  0.00000000000E+00  0.00000000000E+00  0.74505805969E-08  0.10566000000E+00  0.10566000000E+00 0.  1.
     999900   -1    0    0    0    0 -0.00000000000E+00 -0.00000000000E+00 -0.74505805969E-08  0.93827000000E+00  0.93827000000E+00 0.  1.
     999902    2    1    2    0    0  0.48058286293E-02  0.91939509938E-02 -0.80682333046E-02  0.10307876596E+01  0.10307038750E+01 0.  0.
     999903    2    3    3    0    0 -0.52576166950E-01  0.12024674684E+00  0.25159346477E-01  0.14133305760E+00  0.46027241904E-01 0.  0.
         14    1    1    2    0    0 -0.48058286293E-02 -0.91939509938E-02  0.80682333046E-02  0.13142340444E-01  0.00000000000E+00 0.  1.
     999901    1    3    3    0    0  0.57381995580E-01 -0.11105279585E+00 -0.33227579782E-01  0.88945460196E+00  0.88000000000E+00 0.  1.
        -11    1    4    4    0    0 -0.23387180467E-01  0.94924213831E-01  0.30288400872E-01  0.10234849745E+00  0.51100000000E-03 0. -1.
         11    1    4    4    0    0 -0.29188986483E-01  0.25322533014E-01 -0.51290543950E-02  0.38984560151E-01  0.51100000000E-03 0.  1.
</event>
<event>
 8    1  0.2257781E+004  0.1043930E+01  0.7957747E-01            NaN
         13   -1    0    0    0    0  0.00000000000E+00  0.00000000000E+00  0.74505805969E-08  0.10566000000E+00  0.10566000000E+00 0.  1.
     999900   -1    0    0    0    0 -0.00000000000E+00 -0.00000000000E+00 -0.74505805969E-08  0.93827000000E+00  0.93827000000E+00 0.  1.
     999902    2    1    2    0    0 -0.10145674570E-01 -0.36461217383E-02 -0.83026242219E-02  0.10303225577E+01  0.10302326972E+01 0.  0.
     999903    2    3    3    0    0  0.43029586417E-01 -0.82882830460E-01 -0.95157608643E-01  0.14091272379E+00  0.45610485095E-01 0.  0.
         14    1    1    2    0    0  0.10145674570E-01  0.36461217383E-02  0.83026242219E-02  0.13607442272E-01  0.00000000000E+00 0.  1.
     999901    1    3    3    0    0 -0.53175260987E-01  0.79236708721E-01  0.86854984421E-01  0.88940983394E+00  0.88000000000E+00 0. -1.
        -11    1    4    4    0    0  0.63072840137E-02 -0.60681112830E-01 -0.55206020157E-01  0.82279675914E-01  0.51100000000E-03 0.  1.
         11    1    4    4    0    0  0.36722302404E-01 -0.22201717630E-01 -0.39951588486E-01  0.58633047875E-01  0.51100000000E-03 0. -1.
</event>
<event>
 8    1  0.2257781E+004  0.1043930E+01  0.7957747E-01            NaN
         13   -1    0    0    0    0  0.00000000000E+00  0.00000000000E+00  0.74505805969E-08  0.10566000000E+00  0.10566000000E+00 0. -1.
     999900   -1    0    0    0    0 -0.00000000000E+00 -0.00000000000E+00 -0.74505805969E-08  0.93827000000E+00  0.93827000000E+00 0. -1.
     999902    2    1    2    0    0  0.70156813869E-02 -0.12412810224E-01  0.40725646091E-03  0.10296659367E+01  0.10295671313E+01 0.  0.
     999903    2    3    3    0    0 -0.51521150903E-01 -0.72585065142E-01  0.10272155292E+00  0.13976960780E+00  0.32570003962E-01 0.  0.
         14    1    1    2    0    0 -0.70156813869E-02  0.12412810224E-01 -0.40725646091E-03  0.14264063264E-01  0.00000000000E+00 0. -1.
     999901    1    3    3    0    0  0.58536832289E-01  0.60172254918E-01 -0.10231429646E+00  0.88989632894E+00  0.88000000000E+00 0.  1.
        -11    1    4    4    0    0 -0.21004534452E-01 -0.65046505227E-02  0.23917458025E-01  0.32493181829E-01  0.51100000000E-03 0. -1.
         11    1    4    4    0    0 -0.30516616450E-01 -0.66080414619E-01  0.78804094894E-01  0.10727642597E+00  0.51100000000E-03 0.  1.
</event>
<event>
 8    1  0.2257781E+004  0.1043930E+01  0.7957747E-01            NaN
         13   -1    0    0    0    0  0.00000000000E+00  0.00000000000E+00  0.74505805969E-08  0.10566000000E+00  0.10566000000E+00 0.  1.
     999900   -1    0    0    0    0 -0.00000000000E+00 -0.00000000000E+00 -0.74505805969E-08  0.93827000000E+00  0.93827000000E+00 0. -1.
     999902    2    1    2    0    0  0.82030665451E-02 -0.79544783202E-02 -0.73454044898E-02  0.10303462232E+01  0.10302566770E+01 0.  0.
     999903    2    3    3    0    0 -0.87846665722E-01 -0.96778351394E-01  0.23505416726E-01  0.14014006464E+00  0.44762117078E-01 0.  0.
         14    1    1    2    0    0 -0.82030665451E-02  0.79544783202E-02  0.73454044898E-02  0.13583776839E-01  0.00000000000E+00 0.  1.
     999901    1    3    3    0    0  0.96049732267E-01  0.88823873074E-01 -0.30850821216E-01  0.89020615852E+00  0.88000000000E+00 0. -1.
        -11    1    4    4    0    0 -0.77191739207E-01 -0.55307082073E-01  0.11417844270E-01  0.95645523774E-01  0.51100000000E-03 0.  1.
         11    1    4    4    0    0 -0.10654926515E-01 -0.41471269321E-01  0.12087572456E-01  0.44494540868E-01  0.51100000000E-03 0. -1.
</event>
<event>
 8    1  0.2257781E+004  0.1043930E+01  0.7957747E-01            NaN
         13   -1    0    0    0    0  0.00000000000E+00  0.00000000000E+00  0.74505805969E-08  0.10566000000E+00  0.10566000000E+00 0. -1.
     999900   -1    0    0    0    0 -0.00000000000E+00 -0.00000000000E+00 -0.74505805969E-08  0.93827000000E+00  0.93827000000E+00 0.  1.
     999902    2    1    2    0    0 -0.95724751609E-02  0.71818824589E-02  0.64364055712E-02  0.10303418054E+01  0.10302522006E+01 0.  0.
     999903    2    3    3    0    0 -0.87532561286E-01  0.33159202513E-01 -0.94829142705E-01  0.14073104361E+00  0.45289936336E-01 0.  0.
         14    1    1    2    0    0  0.95724751609E-02 -0.71818824589E-02 -0.64364055712E-02  0.13588194620E-01  0.00000000000E+00 0.  1.
     999901    1    3    3    0    0  0.77960086125E-01 -0.25977320054E-01  0.10126554828E+00  0.88961076177E+00  0.88000000000E+00 0.  1.
        -11    1    4    4    0    0 -0.27625145582E-01 -0.48683189123E-02 -0.48363173083E-01  0.55911598341E-01  0.51100000000E-03 0.  1.
         11    1    4    4    0    0 -0.59907415704E-01  0.38027521425E-01 -0.46465969622E-01  0.84819445270E-01  0.51100000000E-03 0. -1.
</event>
<event>
 8    1  0.2257781E+004  0.1043930E+01  0.7957747E-01            NaN
         13   -1    0    0    0    0  0.00000000000E+00  0.00000000000E+00  0.74505805969E-08  0.10566000000E+00  0.10566000000E+00 0.  1.
     999900   -1    0    0    0    0 -0.00000000000E+00 -0.00000000000E+00 -0.74505805969E-08  0.93827000000E+00  0.93827000000E+00 0.  1.
     999902    2    1    2    0    0 -0.33190514728E-02 -0.15711410405E-01  0.52503352916E-02  0.10270353103E+01  0.10268963424E+01 0.  0.
     999903    2    3    3    0    0  0.73768316580E-01  0.95103972774E-01  0.45665533044E-01  0.13582495372E+00  0.43319129440E-01 0.  0.
         14    1    1    2    0    0  0.33190514728E-02  0.15711410405E-01 -0.52503352916E-02  0.16894689706E-01  0.00000000000E+00 0. -1.
     999901    1    3    3    0    0 -0.77087368052E-01 -0.11081538318E+00 -0.40415197752E-01  0.89121035658E+00  0.88000000000E+00 0.  1.
        -11    1    4    4    0    0  0.59142761790E-01  0.74804448829E-01  0.15471232851E-01  0.96608446855E-01  0.51100000000E-03 0. -1.
         11    1    4    4    0    0  0.14625554789E-01  0.20299523945E-01  0.30194300192E-01  0.39216506862E-01  0.51100000000E-03 0.  1.
</event>
<event>
 7    1  0.2257781E+004  0.1043930E+01  0.7957747E-01            NaN
         13   -1    0    0    0    0  0.00000000000E+00  0.00000000000E+00  0.74505805969E-08  0.10566000000E+00  0.10566000000E+00 0.  1.
     999900   -1    0    0    0    0 -0.00000000000E+00 -0.00000000000E+00 -0.74505805969E-08  0.93827000000E+00  0.93827000000E+00 0. -1.
     999903    2    1    2    0    0 -0.50635164587E-01 -0.55872392802E-01  0.76555941700E-01  0.11615763956E+00  0.44115086402E-01 0.  0.
         14    1    1    2    0    0  0.32432382230E-01  0.85335312012E-02  0.23062263675E-01  0.40700719621E-01  0.00000000000E+00 0.  1.
     999901    1    1    2    0    0  0.18202782357E-01  0.47338861601E-01 -0.99618205375E-01  0.88707164082E+00  0.88000000000E+00 0. -1.
        -11    1    3    3    0    0 -0.36328668667E-01 -0.61838535019E-01  0.60456340927E-01  0.93803021591E-01  0.51100000000E-03 0.  1.
         11    1    3    3    0    0 -0.14306495920E-01  0.59661422166E-02  0.16099600773E-01  0.22354617968E-01  0.51100000000E-03 0. -1.
</event>
<event>
 8    1  0.2257781E+004  0.1043930E+01  0.7957747E-01            NaN
         13   -1    0    0    0    0  0.00000000000E+00  0.00000000000E+00  0.74505805969E-08  0.10566000000E+00  0.10566000000E+00 0. -1.
     999900   -1    0    0    0    0 -0.00000000000E+00 -0.00000000000E+00 -0.74505805969E-08  0.93827000000E+00  0.93827000000E+00 0. -1.
     999902    2    1    2    0    0  0.28910978587E-02 -0.74206298819E-02 -0.57536849798E-02  0.10341050783E+01  0.10340584045E+01 0.  0.
     999903    2    3    3    0    0 -0.83982686488E-01 -0.74507101457E-01 -0.78952093722E-01  0.14427045544E+00  0.44453699654E-01 0.  0.
         14    1    1    2    0    0 -0.28910978587E-02  0.74206298819E-02  0.57536849798E-02  0.98249216546E-02  0.00000000000E+00 0. -1.
     999901    1    3    3    0    0  0.86873784347E-01  0.67086471575E-01  0.73198408743E-01  0.88983462290E+00  0.88000000000E+00 0.  1.
        -11    1    4    4    0    0  0.25459418281E-02 -0.15835578236E-01 -0.80791143791E-02  0.17966094957E-01  0.51100000000E-03 0.  1.
         11    1    4    4    0    0 -0.86528628317E-01 -0.58671523221E-01 -0.70872979343E-01  0.12630436048E+00  0.51100000000E-03 0. -1.
</event>
<event>
 8    1  0.2257781E+004  0.1043930E+01  0.7957747E-01            NaN
         13   -1    0    0    0    0  0.00000000000E+00  0.00000000000E+00  0.74505805969E-08  0.10566000000E+00  0.10566000000E+00 0.  1.
     999900   -1    0    0    0    0 -0.00000000000E+00 -0.00000000000E+00 -0.74505805969E-08  0.93827000000E+00  0.93827000000E+00 0.  1.
     999902    2    1    2    0    0  0.13046978683E-01  0.33148048894E-04 -0.20320760508E-02  0.10307256793E+01  0.10306410975E+01 0.  0.
     999903    2    3    3    0    0 -0.25643153066E-01  0.69095861932E-01  0.10730467808E+00  0.14043296872E+00  0.52681261673E-01 0.  0.
         14    1    1    2    0    0 -0.13046978683E-01 -0.33148048894E-04  0.20320760508E-02  0.13204320680E-01  0.00000000000E+00 0.  1.
     999901    1    3    3    0    0  0.38690131749E-01 -0.69062713883E-01 -0.10933675413E+00  0.89029271060E+00  0.88000000000E+00 0.  1.
        -11    1    4    4    0    0  0.15124241419E-01  0.31910663296E-01  0.38767290763E-01  0.52442321312E-01  0.51100000000E-03 0.  1.
         11    1    4    4    0    0 -0.40767394485E-01  0.37185198635E-01  0.68537387313E-01  0.87990647409E-01  0.51100000000E-03 0. -1.
</event>
<event>
 8    1  0.2257781E+004  0.1043930E+01  0.7957747E-01            NaN
         13   -1    0    0    0    0  0.00000000000E+00  0.00000000000E+00  0.74505805969E-08  0.10566000000E+00  0.10566000000E+00 0. -1.
     999900   -1    0    0    0    0 -0.00000000000E+00 -0.00000000000E+00 -0.74505805969E-08  0.93827000000E+00  0.93827000000E+00 0.  1.
     999902    2    1    2    0    0 -0.12883512312E-01  0.37254746330E-02 -0.21830553861E-02  0.10303421458E+01  0.10302525456E+01 0.  0.
     999903    2    3    3    0    0 -0.44206931448E-01 -0.12476520050E+00 -0.12971038339E-01  0.14039417499E+00  0.44962968005E-01 0.  0.
         14    1    1    2    0    0  0.12883512312E-01 -0.37254746330E-02  0.21830553861E-02  0.13587854192E-01  0.00000000000E+00 0.  1.
     999901    1    3    3    0    0  0.31323419136E-01  0.12849067513E+00  0.10787982953E-01  0.88994797082E+00  0.88000000000E+00 0. -1.
        -11    1    4    4    0    0  0.56928818817E-02 -0.47312716203E-01 -0.45894448936E-02  0.47877198582E-01  0.51100000000E-03 0. -1.
         11    1    4    4    0    0 -0.49899813330E-01 -0.77452484298E-01 -0.83815934455E-02  0.92516976409E-01  0.51100000000E-03 0.  1.
</event>
<event>
 8    1  0.2257781E+004  0.1043930E+01  0.7957747E-01            NaN
         13   -1    0    0    0    0  0.00000000000E+00  0.00000000000E+00  0.74505805969E-08  0.10566000000E+00  0.10566000000E+00 0. -1.
     999900   -1    0    0    0    0 -0.00000000000E+00 -0.00000000000E+00 -0.74505805969E-08  0.93827000000E+00  0.93827000000E+00 0.  1.
     999902    2    1    2    0    0 -0.12253283549E-02 -0.14036550028E-01  0.82597745848E-03  0.10298158792E+01  0.10297191543E+01 0.  0.
     999903    2    3    3    0    0 -0.85195691682E-01 -0.90910243243E-01 -0.48804942434E-01  0.14109555493E+00  0.44755502526E-01 0.  0.
         14    1    1    2    0    0  0.12253283549E-02  0.14036550028E-01 -0.82597745848E-03  0.14114120767E-01  0.00000000000E+00 0. -1.
     999901    1    3    3    0    0  0.83970363327E-01  0.76873693214E-01  0.49630919893E-01  0.88872032431E+00  0.88000000000E+00 0.  1.
        -11    1    4    4    0    0 -0.49347089585E-01 -0.81554251710E-01 -0.35918098027E-01  0.10186560808E+00  0.51100000000E-03 0.  1.
         11    1    4    4    0    0 -0.35848602097E-01 -0.93559915328E-02 -0.12886844408E-01  0.39229946847E-01  0.51100000000E-03 0. -1.
</event>
<event>
 8    1  0.2257781E+004  0.1043930E+01  0.7957747E-01            NaN
         13   -1    0    0    0    0  0.00000000000E+00  0.00000000000E+00  0.74505805969E-08  0.10566000000E+00  0.10566000000E+00 0.  1.
     999900   -1    0    0    0    0 -0.00000000000E+00 -0.00000000000E+00 -0.74505805969E-08  0.93827000000E+00  0.93827000000E+00 0.  1.
     999902    2    1    2    0    0  0.60198549634E-02  0.80500225444E-02  0.98566819421E-02  0.10298518007E+01  0.10297555709E+01 0.  0.
     999903    2    3    3    0    0  0.12469548350E+00  0.38426650568E-01  0.29629366234E-01  0.14114622325E+00  0.44930901573E-01 0.  0.
         14    1    1    2    0    0 -0.60198549634E-02 -0.80500225444E-02 -0.98566819421E-02  0.14078199304E-01  0.00000000000E+00 0. -1.
     999901    1    3    3    0    0 -0.11867562853E+00 -0.30376628024E-01 -0.19772684292E-01  0.88870557745E+00  0.88000000000E+00 0.  1.
        -11    1    4    4    0    0  0.23020495374E-01  0.52685690589E-02  0.24566020036E-01  0.34080074657E-01  0.51100000000E-03 0. -1.
         11    1    4    4    0    0  0.10167498812E+00  0.33158081509E-01  0.50633461982E-02  0.10706614859E+00  0.51100000000E-03 0.  1.
</event>
<event>
 8    1  0.2257781E+004  0.1043930E+01  0.7957747E-01            NaN
         13   -1    0    0    0    0  0.00000000000E+00  0.00000000000E+00  0.74505805969E-08  0.10566000000E+00  0.10566000000E+00 0.  1.
     999900   -1    0    0    0    0 -0.00000000000E+00 -0.00000000000E+00 -0.74505805969E-08  0.93827000000E+00  0.93827000000E+00 0.  1.
     999902    2    1    2    0    0  0.83973069811E-02  0.21542011924E-02 -0.85947149671E-02  0.10317224420E+01  0.10316502183E+01 0.  0.
     999903    2    3    3    0    0  0.86273617510E-01 -0.26799427881E-01  0.98562699684E-01  0.14133727595E+00  0.45828739799E-01 0.  0.
         14    1    1    2    0    0 -0.83973069811E-02 -0.21542011924E-02  0.85947149671E-02  0.12207558015E-01  0.00000000000E+00 0.  1.
     999901    1    3    3    0    0 -0.77876310528E-01  0.28953629073E-01 -0.10715741465E+00  0.89038516603E+00  0.88000000000E+00 0.  1.
        -11    1    4    4    0    0  0.53771595827E-01 -0.38139202973E-01  0.55302529523E-01  0.86050068064E-01  0.51100000000E-03 0.  1.
         11    1    4    4    0    0  0.32502021682E-01  0.11339775093E-01  0.43260170162E-01  0.55287207888E-01  0.51100000000E-03 0. -1.
</event>
<event>
 8    1  0.2257781E+004  0.1043930E+01  0.7957747E-01            NaN
         13   -1    0    0    0    0  0.00000000000E+00  0.00000000000E+00  0.74505805969E-08  0.10566000000E+00  0.10566000000E+00 0.  1.
     999900   -1    0    0    0    0 -0.00000000000E+00 -0.00000000000E+00 -0.74505805969E-08  0.93827000000E+00  0.93827000000E+00 0. -1.
     999902    2    1    2    0    0  0.27555110747E-02 -0.13934564516E-01 -0.11285238811E-02  0.10296808423E+01  0.10295822446E+01 0.  0.
     999903    2    3    3    0    0  0.10525852596E+00  0.76848787540E-01  0.22355579867E-01  0.13878242596E+00  0.42139012472E-01 0.  0.
         14    1    1    2    0    0 -0.27555110747E-02  0.13934564516E-01  0.11285238811E-02  0.14249157718E-01  0.00000000000E+00 0. -1.
     999901    1    3    3    0    0 -0.10250301488E+00 -0.90783352056E-01 -0.23484103748E-01  0.89089841632E+00  0.88000000000E+00 0. -1.
        -11    1    4    4    0    0  0.39891293292E-01  0.35776665087E-01  0.29640458785E-01  0.61238084255E-01  0.51100000000E-03 0.  1.
         11    1    4    4    0    0  0.65367232665E-01  0.41072122453E-01 -0.72848789185E-02  0.77544341708E-01  0.51100000000E-03 0. -1.
</event>
<event>
 8    1  0.2257781E+004  0.1043930E+01  0.7957747E-01            NaN
         13   -1    0    0    0    0  0.00000000000E+00  0.00000000000E+00  0.74505805969E-08  0.10566000000E+00  0.10566000000E+00 0. -1.
     999900   -1    0    0    0    0 -0.00000000000E+00 -0.00000000000E+00 -0.74505805969E-08  0.93827000000E+00  0.93827000000E+00 0.  1.
     999902    2    1    2    0    0 -0.78343496637E-03  0.13406730942E-01 -0.40772930053E-02  0.10298950963E+01  0.10297994614E+01 0.  0.
     999903    2    3    3    0    0  0.11481364476E+00 -0.49710842655E-01 -0.36903692503E-01  0.13948839960E+00  0.49414473630E-01 0.  0.
         14    1    1    2    0    0  0.78343496637E-03 -0.13406730942E-01  0.40772930053E-02  0.14034903745E-01  0.00000000000E+00 0. -1.
     999901    1    3    3    0    0 -0.11559707972E+00  0.63117573597E-01  0.32826399498E-01  0.89040669665E+00  0.88000000000E+00 0. -1.
        -11    1    4    4    0    0  0.84496139022E-02 -0.19764608226E-01 -0.16540857770E-01  0.27127418053E-01  0.51100000000E-03 0. -1.
         11    1    4    4    0    0  0.10636403085E+00 -0.29946234429E-01 -0.20362834733E-01  0.11236098155E+00  0.51100000000E-03 0.  1.
</event>
<event>
 8    1  0.2257781E+004  0.1043930E+01  0.7957747E-01            NaN
         13   -1    0    0    0    0  0.00000000000E+00  0.00000000000E+00  0.74505805969E-08  0.10566000000E+00  0.10566000000E+00 0. -1.
     999900   -1    0    0    0    0 -0.00000000000E+00 -0.00000000000E+00 -0.74505805969E-08  0.93827000000E+00  0.93827000000E+00 0. -1.
     999902    2    1    2    0    0 -0.86700092420E-02 -0.10468497686E-01 -0.30223842959E-02  0.10300054422E+01  0.10299113154E+01 0.  0.
     999903    2    3    3    0    0  0.11104155508E+00  0.49990914376E-01  0.42079803853E-01  0.13870279631E+00  0.51365721412E-01 0.  0.
         14    1    1    2    0    0  0.86700092420E-02  0.10468497686E-01  0.30223842959E-02  0.13924557834E-01  0.00000000000E+00 0.  1.
     999901    1    3    3    0    0 -0.11971156432E+00 -0.60459412062E-01 -0.45102188149E-01  0.89130264586E+00  0.88000000000E+00 0. -1.
        -11    1    4    4    0    0  0.49527334019E-01  0.29781720285E-01 -0.59262725953E-02  0.58097241811E-01  0.51100000000E-03 0. -1.
         11    1    4    4    0    0  0.61514221061E-01  0.20209194092E-01  0.48006076449E-01  0.80605554496E-01  0.51100000000E-03 0.  1.
</event>
<event>
 8    1  0.2257781E+004  0.1043930E+01  0.7957747E-01            NaN
         13   -1    0    0    0    0  0.00000000000E+00  0.00000000000E+00  0.74505805969E-08  0.10566000000E+00  0.10566000000E+00 0. -1.
     999900   -1    0    0    0    0 -0.00000000000E+00 -0.00000000000E+00 -0.74505805969E-08  0.93827000000E+00  0.93827000000E+00 0. -1.
     999902    2    1    2    0    0 -0.11485125789E-01 -0.57929600494E-02  0.57277113763E-02  0.10298490491E+01  0.10297527814E+01 0.  0.
     999903    2    3    3    0    0  0.21114986852E-01  0.89232223304E-01 -0.93339832004E-01  0.13861006266E+00  0.45740495024E-01 0.  0.
         14    1    1    2    0    0  0.11485125789E-01  0.57929600494E-02 -0.57277113763E-02  0.14080950896E-01  0.00000000000E+00 0.  1.
     999901    1    3    3    0    0 -0.32600112641E-01 -0.95025183354E-01  0.99067543380E-01  0.89123898645E+00  0.88000000000E+00 0.  1.
        -11    1    4    4    0    0  0.22782455477E-01  0.48668396354E-01 -0.25346356253E-01  0.59416765122E-01  0.51100000000E-03 0.  1.
         11    1    4    4    0    0 -0.16674686248E-02  0.40563826950E-01 -0.67993475751E-01  0.79193297533E-01  0.51100000000E-03 0. -1.
</event>
