<event>
 8    1  0.2837913E+004  0.1043930E+01  0.7957747E-01            NaN
         13   -1    0    0    0    0  0.00000000000E+00  0.00000000000E+00  0.74505805969E-08  0.10566000000E+00  0.10566000000E+00 0. -1.
     999900   -1    0    0    0    0 -0.00000000000E+00 -0.00000000000E+00 -0.74505805969E-08  0.93827000000E+00  0.93827000000E+00 0. -1.
     999902    2    1    2    0    0 -0.30650324319E-02 -0.62110455308E-02  0.11147428209E-01  0.10308061032E+01  0.10307225552E+01 0.  0.
     999903    2    3    3    0    0  0.15128712376E-01  0.86394540126E-01  0.10103004213E+00  0.14120749087E+00  0.45161837483E-01 0.  0.
         14    1    1    2    0    0  0.30650324319E-02  0.62110455308E-02 -0.11147428209E-01  0.13123896757E-01  0.00000000000E+00 0.  1.
     999901    1    3    3    0    0 -0.18193744808E-01 -0.92605585657E-01 -0.89882613918E-01  0.88959861237E+00  0.88000000000E+00 0. -1.
        -11    1    4    4    0    0  0.26265090844E-01  0.82748219121E-01  0.86800509640E-01  0.12276690254E+00  0.51100000000E-03 0. -1.
         11    1    4    4    0    0 -0.11136378468E-01  0.36463210046E-02  0.14229532487E-01  0.18440588332E-01  0.51100000000E-03 0.  1.
</event>
<event>
 8    1  0.2837913E+004  0.1043930E+01  0.7957747E-01            NaN
         13   -1    0    0    0    0  0.00000000000E+00  0.00000000000E+00  0.74505805969E-08  0.10566000000E+00  0.10566000000E+00 0. -1.
     999900   -1    0    0    0    0 -0.00000000000E+00 -0.00000000000E+00 -0.74505805969E-08  0.93827000000E+00  0.93827000000E+00 0. -1.
     999902    2    1    2    0    0  0.87446618136E-02  0.98931214334E-02 -0.64420759891E-02  0.10292383934E+01  0.10291335322E+01 0.  0.
     999903    2    3    3    0    0 -0.10498087371E+00  0.50924685300E-01 -0.61256579187E-01  0.13928237401E+00  0.45087734433E-01 0.  0.
         14    1    1    2    0    0 -0.87446618136E-02 -0.98931214334E-02  0.64420759891E-02  0.14691606617E-01  0.00000000000E+00 0. -1.
     999901    1    3    3    0    0  0.11372553553E+00 -0.41031563867E-01  0.54814503197E-01  0.88995601938E+00  0.88000000000E+00 0.  1.
        -11    1    4    4    0    0 -0.71518966735E-01  0.15736150313E-01 -0.20940102465E-01  0.76166515226E-01  0.51100000000E-03 0.  1.
         11    1    4    4    0    0 -0.33461906980E-01  0.35188534987E-01 -0.40316476721E-01  0.63115858780E-01  0.51100000000E-03 0. -1.
</event>
<event>
 8    1  0.2837913E+004  0.1043930E+01  0.7957747E-01            NaN
         13   -1    0    0    0    0  0.00000000000E+00  0.00000000000E+00  0.74505805969E-08  0.10566000000E+00  0.10566000000E+00 0. -1.
     999900   -1    0    0    0    0 -0.00000000000E+00 -0.00000000000E+00 -0.74505805969E-08  0.93827000000E+00  0.93827000000E+00 0.  1.
     999902    2    1    2    0    0 -0.51106313947E-02  0.12115504318E-01  0.64933979642E-02  0.10292647958E+01  0.10291603138E+01 0.  0.
     999903    2    3    3    0    0  0.70573094887E-01 -0.61872611562E-01  0.94782933424E-01  0.13853626822E+00  0.37412716553E-01 0.  0.
         14    1    1    2    0    0  0.51106313947E-02 -0.12115504318E-01 -0.64933979642E-02  0.14665204235E-01  0.00000000000E+00 0.  1.
     999901    1    3    3    0    0 -0.75683726282E-01  0.73988115880E-01 -0.88289535459E-01  0.89072852755E+00  0.88000000000E+00 0.  1.
        -11    1    4    4    0    0  0.47884188074E-01 -0.35337164517E-01  0.82069792123E-01  0.10137713038E+00  0.51100000000E-03 0. -1.
         11    1    4    4    0    0  0.22688906813E-01 -0.26535447045E-01  0.12713141301E-01  0.37159137840E-01  0.51100000000E-03 0.  1.
</event>
<event>
 8    1  0.2837913E+004  0.1043930E+01  0.7957747E-01            NaN
         13   -1    0    0    0    0  0.00000000000E+00  0.00000000000E+00  0.74505805969E-08  0.10566000000E+00  0.10566000000E+00 0. -1.
     999900   -1    0    0    0    0 -0.00000000000E+00 -0.00000000000E+00 -0.74505805969E-08  0.93827000000E+00  0.93827000000E+00 0. -1.
     999902    2    1    2    0    0 -0.13968008210E-02 -0.13046485045E-01  0.36567169140E-02  0.10303089353E+01  0.10302188936E+01 0.  0.
     999903    2    3    3    0    0 -0.12936312244E+00 -0.97902457281E-02 -0.31059301302E-01  0.14037006973E+00  0.43685351294E-01 0.  0.
         14    1    1    2    0    0  0.13968008210E-02  0.13046485045E-01 -0.36567169140E-02  0.13621064685E-01  0.00000000000E+00 0. -1.
     999901    1    3    3    0    0  0.12796632162E+00 -0.32562393169E-02  0.34716018216E-01  0.88993886559E+00  0.88000000000E+00 0. -1.
        -11    1    4    4    0    0 -0.10341787880E+00  0.65074584229E-02 -0.12080968755E-01  0.10432552706E+00  0.51100000000E-03 0. -1.
         11    1    4    4    0    0 -0.25945243647E-01 -0.16297704151E-01 -0.18978332547E-01  0.36044542663E-01  0.51100000000E-03 0.  1.
</event>
<event>
 8    1  0.2837913E+004  0.1043930E+01  0.7957747E-01            NaN
         13   -1    0    0    0    0  0.00000000000E+00  0.00000000000E+00  0.74505805969E-08  0.10566000000E+00  0.10566000000E+00 0.  1.
     999900   -1    0    0    0    0 -0.00000000000E+00 -0.00000000000E+00 -0.74505805969E-08  0.93827000000E+00  0.93827000000E+00 0.  1.
     999902    2    1    2    0    0  0.18864687519E-02 -0.89598885133E-02  0.88298829726E-02  0.10312097327E+01  0.10311312757E+01 0.  0.
     999903    2    3    3    0    0  0.10415203534E+00 -0.85484334118E-01  0.90961939784E-02  0.14198855224E+00  0.43849633702E-01 0.  0.
         14    1    1    2    0    0 -0.18864687519E-02  0.89598885133E-02 -0.88298829726E-02  0.12720267286E-01  0.00000000000E+00 0. -1.
     999901    1    3    3    0    0 -0.10226556659E+00  0.76524445604E-01 -0.26631100576E-03  0.88922118048E+00  0.88000000000E+00 0.  1.
        -11    1    4    4    0    0  0.64771778053E-01 -0.55750911303E-01  0.26793539940E-01  0.89563956181E-01  0.51100000000E-03 0.  1.
         11    1    4    4    0    0  0.39380257291E-01 -0.29733422815E-01 -0.17697345962E-01  0.52424596057E-01  0.51100000000E-03 0. -1.
</event>
<event>
 8    1  0.2837913E+004  0.1043930E+01  0.7957747E-01            NaN
         13   -1    0    0    0    0  0.00000000000E+00  0.00000000000E+00  0.74505805969E-08  0.10566000000E+00  0.10566000000E+00 0.  1.
     999900   -1    0    0    0    0 -0.00000000000E+00 -0.00000000000E+00 -0.74505805969E-08  0.93827000000E+00  0.93827000000E+00 0.  1.
     999902    2    1    2    0    0 -0.86800543637E-02 -0.96806663010E-02 -0.59496197729E-02  0.10296311672E+01  0.10295318761E+01 0.  0.
     999903    2    3    3    0    0  0.37599474072E-01 -0.75878598773E-01  0.10103222884E+00  0.13948001322E+00  0.45561832939E-01 0.  0.
         14    1    1    2    0    0  0.86800543637E-02  0.96806663010E-02  0.59496197729E-02  0.14298832793E-01  0.00000000000E+00 0.  1.
     999901    1    3    3    0    0 -0.46279528436E-01  0.66197932472E-01 -0.10698184861E+00  0.89015115399E+00  0.88000000000E+00 0.  1.
        -11    1    4    4    0    0  0.18780418273E-01 -0.32074016247E-01  0.13024798866E-01  0.39387220456E-01  0.51100000000E-03 0.  1.
         11    1    4    4    0    0  0.18819055800E-01 -0.43804582525E-01  0.88007429974E-01  0.10009279276E+00  0.51100000000E-03 0. -1.
</event>
<event>
 8    1  0.2837913E+004  0.1043930E+01  0.7957747E-01            NaN
         13   -1    0    0    0    0  0.00000000000E+00  0.00000000000E+00  0.74505805969E-08  0.10566000000E+00  0.10566000000E+00 0. -1.
     999900   -1    0    0    0    0 -0.00000000000E+00 -0.00000000000E+00 -0.74505805969E-08  0.93827000000E+00  0.93827000000E+00 0. -1.
     999902    2    1    2    0    0 -0.35942782820E-02 -0.10006365785E-01 -0.80149920689E-02  0.10306151102E+01  0.10305290967E+01 0.  0.
     999903    2    3    3    0    0  0.34500888929E-01 -0.12476579032E+00  0.34313143931E-01  0.14133864116E+00  0.45192984708E-01 0.  0.
         14    1    1    2    0    0  0.35942782820E-02  0.10006365785E-01  0.80149920689E-02  0.13314889803E-01  0.00000000000E+00 0. -1.
     999901    1    3    3    0    0 -0.38095167211E-01  0.11475942454E+00 -0.42328136000E-01  0.88927646904E+00  0.88000000000E+00 0. -1.
        -11    1    4    4    0    0  0.44453815255E-01 -0.84567029869E-01  0.26998448538E-01  0.99281929756E-01  0.51100000000E-03 0.  1.
         11    1    4    4    0    0 -0.99529263254E-02 -0.40198760454E-01  0.73146953922E-02  0.42056711405E-01  0.51100000000E-03 0. -1.
</event>
<event>
 8    1  0.2837913E+004  0.1043930E+01  0.7957747E-01            NaN
         13   -1    0    0    0    0  0.00000000000E+00  0.00000000000E+00  0.74505805969E-08  0.10566000000E+00  0.10566000000E+00 0.  1.
     999900   -1    0    0    0    0 -0.00000000000E+00 -0.00000000000E+00 -0.74505805969E-08  0.93827000000E+00  0.93827000000E+00 0.  1.
     999902    2    1    2    0    0 -0.14081822084E-01  0.18786014042E-02 -0.14623609343E-03  0.10297226694E+01  0.10296246538E+01 0.  0.
     999903    2    3    3    0    0  0.70117290803E-01 -0.10933363994E+00  0.16061083148E-01  0.13858837517E+00  0.45590569724E-01 0.  0.
         14    1    1    2    0    0  0.14081822084E-01 -0.18786014042E-02  0.14623609343E-03  0.14207330553E-01  0.00000000000E+00 0. -1.
     999901    1    3    3    0    0 -0.84199112887E-01  0.11121224135E+00 -0.16207319241E-01  0.89113429428E+00  0.88000000000E+00 0.  1.
        -11    1    4    4    0    0  0.24625766715E-01 -0.79408095720E-01  0.77067890569E-02  0.83496884796E-01  0.51100000000E-03 0.  1.
         11    1    4    4    0    0  0.45491524088E-01 -0.29925544225E-01  0.83542940911E-02  0.55091490375E-01  0.51100000000E-03 0. -1.
</event>
<event>
 8    1  0.2837913E+004  0.1043930E+01  0.7957747E-01            NaN
         13   -1    0    0    0    0  0.00000000000E+00  0.00000000000E+00  0.74505805969E-08  0.10566000000E+00  0.10566000000E+00 0.  1.
     999900   -1    0    0    0    0 -0.00000000000E+00 -0.00000000000E+00 -0.74505805969E-08  0.93827000000E+00  0.93827000000E+00 0. -1.
     999902    2    1    2    0    0 -0.15367153847E-02 -0.95337206562E-02  0.10815416910E-01  0.10294308081E+01  0.10293286948E+01 0.  0.
     999903    2    3    3    0    0  0.41961455603E-01  0.11911797538E+00  0.28981452997E-01  0.13882800399E+00  0.49834067252E-01 0.  0.
         14    1    1    2    0    0  0.15367153847E-02  0.95337206562E-02 -0.10815416910E-01  0.14499191931E-01  0.00000000000E+00 0. -1.
     999901    1    3    3    0    0 -0.43498170988E-01 -0.12865169603E+00 -0.18166036087E-01  0.89060280408E+00  0.88000000000E+00 0. -1.
        -11    1    4    4    0    0  0.10053384085E-01  0.76317305760E-01 -0.21837406920E-02  0.77009295117E-01  0.51100000000E-03 0.  1.
         11    1    4    4    0    0  0.31908071519E-01  0.42800669618E-01  0.31165193688E-01  0.61818708870E-01  0.51100000000E-03 0. -1.
</event>
<event>
 8    1  0.2837913E+004  0.1043930E+01  0.7957747E-01            NaN
         13   -1    0    0    0    0  0.00000000000E+00  0.00000000000E+00  0.74505805969E-08  0.10566000000E+00  0.10566000000E+00 0.  1.
     999900   -1    0    0    0    0 -0.00000000000E+00 -0.00000000000E+00 -0.74505805969E-08  0.93827000000E+00  0.93827000000E+00 0.  1.
     999902    2    1    2    0    0 -0.16846088192E-03  0.10544544377E-01  0.84733260038E-02  0.10304017685E+01  0.10303129580E+01 0.  0.
     999903    2    3    3    0    0  0.11072545933E+00  0.53121339090E-01 -0.50612695006E-01  0.14045716183E+00  0.45657041100E-01 0.  0.
         14    1    1    2    0    0  0.16846088192E-03 -0.10544544377E-01 -0.84733260038E-02  0.13528231546E-01  0.00000000000E+00 0. -1.
     999901    1    3    3    0    0 -0.11089392021E+00 -0.42576794713E-01  0.59086021010E-01  0.88994460663E+00  0.88000000000E+00 0. -1.
        -11    1    4    4    0    0  0.62622115659E-01  0.48908017641E-01 -0.46324637679E-01  0.91976935893E-01  0.51100000000E-03 0.  1.
         11    1    4    4    0    0  0.48103343670E-01  0.42133214498E-02 -0.42880573269E-02  0.48480225933E-01  0.51100000000E-03 0. -1.
</event>
<event>
 8    1  0.2837913E+004  0.1043930E+01  0.7957747E-01            NaN
         13   -1    0    0    0    0  0.00000000000E+00  0.00000000000E+00  0.74505805969E-08  0.10566000000E+00  0.10566000000E+00 0. -1.
     999900   -1    0    0    0    0 -0.00000000000E+00 -0.00000000000E+00 -0.74505805969E-08  0.93827000000E+00  0.93827000000E+00 0.  1.
     999902    2    1    2    0    0  0.63574151745E-02  0.74313066414E-02 -0.96969429910E-02  0.10301578633E+01  0.10300657996E+01 0.  0.
     999903    2    3    3    0    0  0.89026412395E-01 -0.17589398771E-01  0.96004463537E-01  0.13963386803E+00  0.45229094933E-01 0.  0.
         14    1    1    2    0    0 -0.63574151745E-02 -0.74313066414E-02  0.96969429910E-02  0.13772136707E-01  0.00000000000E+00 0. -1.
     999901    1    3    3    0    0 -0.82668997221E-01  0.25020705412E-01 -0.10570140653E+00  0.89052399527E+00  0.88000000000E+00 0.  1.
        -11    1    4    4    0    0  0.71666210299E-01 -0.36667493071E-03  0.49538709873E-01  0.87123619335E-01  0.51100000000E-03 0. -1.
         11    1    4    4    0    0  0.17360202096E-01 -0.17222723840E-01  0.46465753663E-01  0.52510248693E-01  0.51100000000E-03 0.  1.
</event>
<event>
 8    1  0.2837913E+004  0.1043930E+01  0.7957747E-01            NaN
         13   -1    0    0    0    0  0.00000000000E+00  0.00000000000E+00  0.74505805969E-08  0.10566000000E+00  0.10566000000E+00 0. -1.
     999900   -1    0    0    0    0 -0.00000000000E+00 -0.00000000000E+00 -0.74505805969E-08  0.93827000000E+00  0.93827000000E+00 0.  1.
     999902    2    1    2    0    0 -0.10267871403E-01  0.94601398868E-02  0.28957947615E-02  0.10296713515E+01  0.10295726215E+01 0.  0.
     999903    2    3    3    0    0 -0.83930827424E-01  0.41924657078E-01  0.95185544551E-01  0.14119086556E+00  0.45524849966E-01 0.  0.
         14    1    1    2    0    0  0.10267871403E-01 -0.94601398868E-02 -0.28957947615E-02  0.14258648503E-01  0.00000000000E+00 0. -1.
     999901    1    3    3    0    0  0.73662956021E-01 -0.32464517191E-01 -0.92289749789E-01  0.88848048593E+00  0.88000000000E+00 0.  1.
        -11    1    4    4    0    0 -0.63070412593E-01  0.76258725277E-02  0.50822639464E-01  0.81358666898E-01  0.51100000000E-03 0.  1.
         11    1    4    4    0    0 -0.20860414831E-01  0.34298784550E-01  0.44362905087E-01  0.59832198667E-01  0.51100000000E-03 0. -1.
</event>
<event>
 8    1  0.2837913E+004  0.1043930E+01  0.7957747E-01            NaN
         13   -1    0    0    0    0  0.00000000000E+00  0.00000000000E+00  0.74505805969E-08  0.10566000000E+00  0.10566000000E+00 0.  1.
     999900   -1    0    0    0    0 -0.00000000000E+00 -0.00000000000E+00 -0.74505805969E-08  0.93827000000E+00  0.93827000000E+00 0.  1.
     999902    2    1    2    0    0 -0.57916852937E-02  0.15722390101E-01  0.64563843493E-02  0.10259738849E+01  0.10258167431E+01 0.  0.
     999903    2    3    3    0    0 -0.41268394731E-01  0.88036285630E-01  0.87795238284E-01  0.13855971695E+00  0.45136717917E-01 0.  0.
         14    1    1    2    0    0  0.57916852937E-02 -0.15722390101E-01 -0.64563843493E-02  0.17956115056E-01  0.00000000000E+00 0. -1.
     999901    1    3    3    0    0  0.35476709437E-01 -0.72313895529E-01 -0.81338853935E-01  0.88741416800E+00  0.88000000000E+00 0. -1.
        -11    1    4    4    0    0 -0.30932290608E-02  0.56540271652E-01  0.37026595776E-01  0.67657965535E-01  0.51100000000E-03 0.  1.
         11    1    4    4    0    0 -0.38175165670E-01  0.31496013978E-01  0.50768642509E-01  0.70901751414E-01  0.51100000000E-03 0. -1.
</event>
<event>
 8    1  0.2837913E+004  0.1043930E+01  0.7957747E-01            NaN
         13   -1    0    0    0    0  0.00000000000E+00  0.00000000000E+00  0.74505805969E-08  0.10566000000E+00  0.10566000000E+00 0. -1.
     999900   -1    0    0    0    0 -0.00000000000E+00 -0.00000000000E+00 -0.74505805969E-08  0.93827000000E+00  0.93827000000E+00 0.  1.
     999902    2    1    2    0    0  0.56179803350E-02 -0.67262920813E-03 -0.12569270585E-01  0.10301459260E+01  0.10300537016E+01 0.  0.
     999903    2    3    3    0    0  0.66966584888E-01 -0.38313855740E-01 -0.11005979278E+00  0.14184140888E+00  0.45313929996E-01 0.  0.
         14    1    1    2    0    0 -0.56179803350E-02  0.67262920813E-03  0.12569270585E-01  0.13784074004E-01  0.00000000000E+00 0. -1.
     999901    1    3    3    0    0 -0.61348604553E-01  0.37641226532E-01  0.97490522198E-01  0.88830451712E+00  0.88000000000E+00 0. -1.
        -11    1    4    4    0    0  0.64601715178E-02  0.14339654881E-02  0.32409111165E-02  0.73861152798E-02  0.51100000000E-03 0. -1.
         11    1    4    4    0    0  0.60506413370E-01 -0.39747821228E-01 -0.11330070390E+00  0.13445529360E+00  0.51100000000E-03 0.  1.
</event>
<event>
 8    1  0.2837913E+004  0.1043930E+01  0.7957747E-01            NaN
         13   -1    0    0    0    0  0.00000000000E+00  0.00000000000E+00  0.74505805969E-08  0.10566000000E+00  0.10566000000E+00 0. -1.
     999900   -1    0    0    0    0 -0.00000000000E+00 -0.00000000000E+00 -0.74505805969E-08  0.93827000000E+00  0.93827000000E+00 0.  1.
     999902    2    1    2    0    0  0.13397679349E-01 -0.27399944712E-02  0.36120516186E-02  0.10297860155E+01  0.10296888779E+01 0.  0.
     999903    2    3    3    0    0  0.85989355272E-01 -0.73102514203E-01  0.72205973020E-01  0.14134605596E+00  0.45020641843E-01 0.  0.
         14    1    1    2    0    0 -0.13397679349E-01  0.27399944712E-02 -0.36120516186E-02  0.14143984535E-01  0.00000000000E+00 0.  1.
     999901    1    3    3    0    0 -0.72591675923E-01  0.70362519732E-01 -0.68593921402E-01  0.88843995951E+00  0.88000000000E+00 0. -1.
        -11    1    4    4    0    0  0.57414958340E-02  0.55669137106E-02  0.10282589891E-01  0.13036413561E-01  0.51100000000E-03 0. -1.
         11    1    4    4    0    0  0.80247859438E-01 -0.78669427913E-01  0.61923383130E-01  0.12830964240E+00  0.51100000000E-03 0.  1.
</event>
<event>
 8    1  0.2837913E+004  0.1043930E+01  0.7957747E-01            NaN
         13   -1    0    0    0    0  0.00000000000E+00  0.00000000000E+00  0.74505805969E-08  0.10566000000E+00  0.10566000000E+00 0. -1.
     999900   -1    0    0    0    0 -0.00000000000E+00 -0.00000000000E+00 -0.74505805969E-08  0.93827000000E+00  0.93827000000E+00 0.  1.
     999902    2    1    2    0    0  0.21185652468E-02  0.96730462118E-02  0.88607852859E-02  0.10306420484E+01  0.10305563848E+01 0.  0.
     999903    2    3    3    0    0 -0.60864030440E-01 -0.59719612835E-01 -0.98904154923E-01  0.13912904747E+00  0.47999975328E-01 0.  0.
         14    1    1    2    0    0 -0.21185652468E-02 -0.96730462118E-02 -0.88607852859E-02  0.13287951595E-01  0.00000000000E+00 0. -1.
     999901    1    3    3    0    0  0.62982595687E-01  0.69392659047E-01  0.10776494021E+00  0.89151300093E+00  0.88000000000E+00 0. -1.
        -11    1    4    4    0    0 -0.42456359999E-01 -0.85596626648E-02 -0.47876906030E-01  0.64562137366E-01  0.51100000000E-03 0. -1.
         11    1    4    4    0    0 -0.18407670442E-01 -0.51159950171E-01 -0.51027248892E-01  0.74566910108E-01  0.51100000000E-03 0.  1.
</event>
<event>
 8    1  0.2837913E+004  0.1043930E+01  0.7957747E-01            NaN
         13   -1    0    0    0    0  0.00000000000E+00  0.00000000000E+00  0.74505805969E-08  0.10566000000E+00  0.10566000000E+00 0. -1.
     999900   -1    0    0    0    0 -0.00000000000E+00 -0.00000000000E+00 -0.74505805969E-08  0.93827000000E+00  0.93827000000E+00 0.  1.
     999902    2    1    2    0    0  0.39650225947E-02  0.11131045336E-01 -0.60787154140E-02  0.10306419469E+01  0.10305562820E+01 0.  0.
     999903    2    3    3    0    0  0.10848656106E-01  0.10028147034E+00  0.88563709996E-01  0.14106206212E+00  0.43369436362E-01 0.  0.
         14    1    1    2    0    0 -0.39650225947E-02 -0.11131045336E-01  0.60787154140E-02  0.13288053113E-01  0.00000000000E+00 0. -1.
     999901    1    3    3    0    0 -0.68836335113E-02 -0.89150424999E-01 -0.94642425410E-01  0.88957988476E+00  0.88000000000E+00 0.  1.
        -11    1    4    4    0    0  0.14296447908E-01  0.36617848044E-01  0.58717935111E-01  0.70663372710E-01  0.51100000000E-03 0.  1.
         11    1    4    4    0    0 -0.34477918021E-02  0.63663622291E-01  0.29845774886E-01  0.70398689413E-01  0.51100000000E-03 0. -1.
</event>
<event>
 8    1  0.2837913E+004  0.1043930E+01  0.7957747E-01            NaN
         13   -1    0    0    0    0  0.00000000000E+00  0.00000000000E+00  0.74505805969E-08  0.10566000000E+00  0.10566000000E+00 0.  1.
     999900   -1    0    0    0    0 -0.00000000000E+00 -0.00000000000E+00 -0.74505805969E-08  0.93827000000E+00  0.93827000000E+00 0. -1.
     999902    2    1    2    0    0 -0.67477052834E-02  0.10481343238E-01  0.63037051339E-02  0.10299612212E+01  0.10298664915E+01 0.  0.
     999903    2    3    3    0    0 -0.11950522257E-01 -0.79854196240E-01 -0.10352320149E+00  0.13853005257E+00  0.44204237102E-01 0.  0.
         14    1    1    2    0    0  0.67477052834E-02 -0.10481343238E-01 -0.63037051339E-02  0.13968778797E-01  0.00000000000E+00 0. -1.
     999901    1    3    3    0    0  0.52028169732E-02  0.90335539477E-01  0.10982690663E+00  0.89143116864E+00  0.88000000000E+00 0.  1.
        -11    1    4    4    0    0  0.16078606576E-02 -0.76172909788E-01 -0.96077424734E-01  0.12262149104E+00  0.51100000000E-03 0.  1.
         11    1    4    4    0    0 -0.13558382914E-01 -0.36812864512E-02 -0.74457767586E-02  0.15908561523E-01  0.51100000000E-03 0. -1.
</event>
<event>
 8    1  0.2837913E+004  0.1043930E+01  0.7957747E-01            NaN
         13   -1    0    0    0    0  0.00000000000E+00  0.00000000000E+00  0.74505805969E-08  0.10566000000E+00  0.10566000000E+00 0.  1.
     999900   -1    0    0    0    0 -0.00000000000E+00 -0.00000000000E+00 -0.74505805969E-08  0.93827000000E+00  0.93827000000E+00 0. -1.
     999902    2    1    2    0    0 -0.20995980729E-02 -0.38865063230E-02 -0.13331354354E-01  0.10298858463E+01  0.10297900845E+01 0.  0.
     999903    2    3    3    0    0 -0.11496743647E+00  0.18477452780E-01 -0.65005632685E-01  0.14089229930E+00  0.45453052839E-01 0.  0.
         14    1    1    2    0    0  0.20995980729E-02  0.38865063230E-02  0.13331354354E-01  0.14044153673E-01  0.00000000000E+00 0.  1.
     999901    1    3    3    0    0  0.11286783840E+00 -0.22363959103E-01  0.51674278330E-01  0.88899354702E+00  0.88000000000E+00 0.  1.
        -11    1    4    4    0    0 -0.59837740344E-01  0.62679596676E-02 -0.58725888824E-01  0.84076355933E-01  0.51100000000E-03 0. -1.
         11    1    4    4    0    0 -0.55129696126E-01  0.12209493112E-01 -0.62797438607E-02  0.56815943369E-01  0.51100000000E-03 0.  1.
</event>
<event>
 8    1  0.2837913E+004  0.1043930E+01  0.7957747E-01            NaN
         13   -1    0    0    0    0  0.00000000000E+00  0.00000000000E+00  0.74505805969E-08  0.10566000000E+00  0.10566000000E+00 0. -1.
     999900   -1    0    0    0    0 -0.00000000000E+00 -0.00000000000E+00 -0.74505805969E-08  0.93827000000E+00  0.93827000000E+00 0.  1.
     999902    2    1    2    0    0  0.61470697621E-02 -0.12363875841E-01 -0.25889694420E-04  0.10301223006E+01  0.10300297576E+01 0.  0.
     999903    2    3    3    0    0  0.25838579085E-03  0.52027119772E-01  0.12133155851E+00  0.13944362277E+00  0.44903105519E-01 0.  0.
         14    1    1    2    0    0 -0.61470697621E-02  0.12363875841E-01  0.25889694420E-04  0.13807699401E-01  0.00000000000E+00 0. -1.
     999901    1    3    3    0    0  0.58886839713E-02 -0.64390995612E-01 -0.12135744820E+00  0.89067867783E+00  0.88000000000E+00 0.  1.
        -11    1    4    4    0    0  0.51373492881E-02  0.41415381407E-01  0.12072656762E+00  0.12773719671E+00  0.51100000000E-03 0. -1.
         11    1    4    4    0    0 -0.48789634973E-02  0.10611738365E-01  0.60499089064E-03  0.11706426052E-01  0.51100000000E-03 0.  1.
</event>
<event>
 8    1  0.2837913E+004  0.1043930E+01  0.7957747E-01            NaN
         13   -1    0    0    0    0  0.00000000000E+00  0.00000000000E+00  0.74505805969E-08  0.10566000000E+00  0.10566000000E+00 0.  1.
     999900   -1    0    0    0    0 -0.00000000000E+00 -0.00000000000E+00 -0.74505805969E-08  0.93827000000E+00  0.93827000000E+00 0. -1.
     999902    2    1    2    0    0  0.49090561738E-02 -0.96509088512E-02  0.86495303507E-02  0.10300716722E+01  0.10299784447E+01 0.  0.
     999903    2    3    3    0    0  0.13349349907E+00 -0.79892294195E-02  0.94009880426E-02  0.14072512286E+00  0.42788310883E-01 0.  0.
         14    1    1    2    0    0 -0.49090561738E-02  0.96509088512E-02 -0.86495303507E-02  0.13858327802E-01  0.00000000000E+00 0.  1.
     999901    1    3    3    0    0 -0.12858444289E+00 -0.16616794318E-02 -0.75145769192E-03  0.88934654934E+00  0.88000000000E+00 0. -1.
        -11    1    4    4    0    0  0.94866388551E-02 -0.13234007379E-01  0.12604452433E-02  0.16339679044E-01  0.51100000000E-03 0. -1.
         11    1    4    4    0    0  0.12400686021E+00  0.52447779591E-02  0.81405427992E-02  0.12438544382E+00  0.51100000000E-03 0.  1.
</event>
<event>
 8    1  0.2837913E+004  0.1043930E+01  0.7957747E-01            NaN
         13   -1    0    0    0    0  0.00000000000E+00  0.00000000000E+00  0.74505805969E-08  0.10566000000E+00  0.10566000000E+00 0.  1.
     999900   -1    0    0    0    0 -0.00000000000E+00 -0.00000000000E+00 -0.74505805969E-08  0.93827000000E+00  0.93827000000E+00 0.  1.
     999902    2    1    2    0    0  0.14846133814E-02 -0.13512841095E-01 -0.69945887740E-02  0.10286419254E+01  0.10285283105E+01 0.  0.
     999903    2    3    3    0    0  0.55521166773E-02  0.69332119949E-01 -0.11322802687E+00  0.13838051692E+00  0.38611041634E-01 0.  0.
         14    1    1    2    0    0 -0.14846133814E-02  0.13512841095E-01  0.69945887740E-02  0.15288074551E-01  0.00000000000E+00 0.  1.
     999901    1    3    3    0    0 -0.40675032959E-02 -0.82844961045E-01  0.10623343810E+00  0.89026140853E+00  0.88000000000E+00 0. -1.
        -11    1    4    4    0    0 -0.12973202229E-01  0.37066597330E-01 -0.77052761627E-01  0.86484829936E-01  0.51100000000E-03 0. -1.
         11    1    4    4    0    0  0.18525318907E-01  0.32265522619E-01 -0.36175265246E-01  0.51895686980E-01  0.51100000000E-03 0.  1.
</event>
<event>
 8    1  0.2837913E+004  0.1043930E+01  0.7957747E-01            NaN
         13   -1    0    0    0    0  0.00000000000E+00  0.00000000000E+00  0.74505805969E-08  0.10566000000E+00  0.10566000000E+00 0. -1.
     999900   -1    0    0    0    0 -0.00000000000E+00 -0.00000000000E+00 -0.74505805969E-08  0.93827000000E+00  0.93827000000E+00 0. -1.
     999902    2    1    2    0    0 -0.97689385758E-02  0.11070312872E-02 -0.11047232249E-01  0.10291415241E+01  0.10290352655E+01 0.  0.
     999903    2    3    3    0    0 -0.13031983439E+00  0.26343046970E-01 -0.15212513480E-02  0.14051330078E+00  0.45436308504E-01 0.  0.
         14    1    1    2    0    0  0.97689385758E-02 -0.11070312872E-02  0.11047232249E-01  0.14788475903E-01  0.00000000000E+00 0. -1.
     999901    1    3    3    0    0  0.12055089581E+00 -0.25236015683E-01 -0.95259809011E-02  0.88862822332E+00  0.88000000000E+00 0.  1.
        -11    1    4    4    0    0 -0.18516795808E-01  0.20992295198E-01 -0.54059244512E-02  0.28513739230E-01  0.51100000000E-03 0. -1.
         11    1    4    4    0    0 -0.11180303858E+00  0.53507517720E-02  0.38846731032E-02  0.11199956155E+00  0.51100000000E-03 0.  1.
</event>
<event>
 8    1  0.2837913E+004  0.1043930E+01  0.7957747E-01            NaN
         13   -1    0    0    0    0  0.00000000000E+00  0.00000000000E+00  0.74505805969E-08  0.10566000000E+00  0.10566000000E+00 0.  1.
     999900   -1    0    0    0    0 -0.00000000000E+00 -0.00000000000E+00 -0.74505805969E-08  0.93827000000E+00  0.93827000000E+00 0. -1.
     999902    2    1    2    0    0  0.90329527988E-02  0.69026669794E-02  0.11566771470E-01  0.10277117618E+01  0.10275837845E+01 0.  0.
     999903    2    3    3    0    0  0.89989574759E-01 -0.17370623730E-01 -0.92331635503E-01  0.13757803801E+00  0.44751798773E-01 0.  0.
         14    1    1    2    0    0 -0.90329527988E-02 -0.69026669794E-02 -0.11566771470E-01  0.16218238188E-01  0.00000000000E+00 0. -1.
     999901    1    3    3    0    0 -0.80956621961E-01  0.24273290710E-01  0.10389840697E+00  0.89013372380E+00  0.88000000000E+00 0.  1.
        -11    1    4    4    0    0  0.45263723863E-01  0.30415571716E-02 -0.18769323647E-01  0.49097906260E-01  0.51100000000E-03 0. -1.
         11    1    4    4    0    0  0.44725850897E-01 -0.20412180902E-01 -0.73562311856E-01  0.88480131748E-01  0.51100000000E-03 0.  1.
</event>
<event>
 8    1  0.2837913E+004  0.1043930E+01  0.7957747E-01            NaN
         13   -1    0    0    0    0  0.00000000000E+00  0.00000000000E+00  0.74505805969E-08  0.10566000000E+00  0.10566000000E+00 0. -1.
     999900   -1    0    0    0    0 -0.00000000000E+00 -0.00000000000E+00 -0.74505805969E-08  0.93827000000E+00  0.93827000000E+00 0. -1.
     999902    2    1    2    0    0  0.98979871401E-02 -0.75450850098E-02 -0.66860385512E-02  0.10298019581E+01  0.10297050409E+01 0.  0.
     999903    2    3    3    0    0 -0.10421990614E+00  0.73356279668E-01  0.28298616355E-01  0.13806665516E+00  0.44929466707E-01 0.  0.
         14    1    1    2    0    0 -0.98979871401E-02  0.75450850098E-02  0.66860385512E-02  0.14128041929E-01  0.00000000000E+00 0. -1.
     999901    1    3    3    0    0  0.11411789328E+00 -0.80901364678E-01 -0.34984654906E-01  0.89173530291E+00  0.88000000000E+00 0.  1.
        -11    1    4    4    0    0 -0.57339857698E-01  0.63687339001E-01  0.28129637229E-01  0.90196862703E-01  0.51100000000E-03 0.  1.
         11    1    4    4    0    0 -0.46880048439E-01  0.96689406672E-02  0.16897912604E-03  0.47869792461E-01  0.51100000000E-03 0. -1.
</event>
<event>
 8    1  0.2837913E+004  0.1043930E+01  0.7957747E-01            NaN
         13   -1    0    0    0    0  0.00000000000E+00  0.00000000000E+00  0.74505805969E-08  0.10566000000E+00  0.10566000000E+00 0.  1.
     999900   -1    0    0    0    0 -0.00000000000E+00 -0.00000000000E+00 -0.74505805969E-08  0.93827000000E+00  0.93827000000E+00 0.  1.
     999902    2    1    2    0    0 -0.10838329551E-01 -0.10368386350E-02 -0.85976655724E-02  0.10300568506E+01  0.10299634222E+01 0.  0.
     999903    2    3    3    0    0  0.36385973802E-02 -0.11408785064E+00 -0.67933151525E-01  0.14072518431E+00  0.46469208814E-01 0.  0.
         14    1    1    2    0    0  0.10838329551E-01  0.10368386350E-02  0.85976655724E-02  0.13873149430E-01  0.00000000000E+00 0. -1.
     999901    1    3    3    0    0 -0.14476926931E-01  0.11305101200E+00  0.59335485953E-01  0.88933166626E+00  0.88000000000E+00 0.  1.
        -11    1    4    4    0    0 -0.95882848005E-02 -0.25911020395E-01  0.15616548103E-02  0.27676995323E-01  0.51100000000E-03 0. -1.
         11    1    4    4    0    0  0.13226882181E-01 -0.88176830241E-01 -0.69494806335E-01  0.11304818898E+00  0.51100000000E-03 0.  1.
</event>
<event>
 8    1  0.2837913E+004  0.1043930E+01  0.7957747E-01            NaN
         13   -1    0    0    0    0  0.00000000000E+00  0.00000000000E+00  0.74505805969E-08  0.10566000000E+00  0.10566000000E+00 0.  1.
     999900   -1    0    0    0    0 -0.00000000000E+00 -0.00000000000E+00 -0.74505805969E-08  0.93827000000E+00  0.93827000000E+00 0. -1.
     999902    2    1    2    0    0  0.12772708143E-01  0.13476675820E-02 -0.49752740580E-02  0.10301564154E+01  0.10300643322E+01 0.  0.
     999903    2    3    3    0    0 -0.10063392412E+00 -0.50764685380E-01  0.66636326642E-01  0.13846982082E+00  0.45047211713E-01 0.  0.
         14    1    1    2    0    0 -0.12772708143E-01 -0.13476675820E-02  0.49752740580E-02  0.13773584616E-01  0.00000000000E+00 0. -1.
     999901    1    3    3    0    0  0.11340663227E+00  0.52112352962E-01 -0.71611600700E-01  0.89168659457E+00  0.88000000000E+00 0. -1.
        -11    1    4    4    0    0 -0.28080096244E-01 -0.18662279441E-01  0.45000579419E-01  0.56232426126E-01  0.51100000000E-03 0. -1.
         11    1    4    4    0    0 -0.72553827879E-01 -0.32102405939E-01  0.21635747224E-01  0.82237394693E-01  0.51100000000E-03 0.  1.
</event>
<event>
 8    1  0.2837913E+004  0.1043930E+01  0.7957747E-01            NaN
         13   -1    0    0    0    0  0.00000000000E+00  0.00000000000E+00  0.74505805969E-08  0.10566000000E+00  0.10566000000E+00 0.  1.
     999900   -1    0    0    0    0 -0.00000000000E+00 -0.00000000000E+00 -0.74505805969E-08  0.93827000000E+00  0.93827000000E+00 0.  1.
     999902    2    1    2    0    0  0.10667846769E-02  0.14055307776E-01  0.22165951450E-02  0.10296610477E+01  0.10295621740E+01 0.  0.
     999903    2    3    3    0    0 -0.66084861502E-01  0.11458917403E+00 -0.20193803415E-01  0.14111244023E+00  0.44800037560E-01 0.  0.
         14    1    1    2    0    0 -0.10667846769E-02 -0.14055307776E-01 -0.22165951450E-02  0.14268952318E-01  0.00000000000E+00 0.  1.
     999901    1    3    3    0    0  0.67151646179E-01 -0.10053386625E+00  0.22410398560E-01  0.88854860746E+00  0.88000000000E+00 0.  1.
        -11    1    4    4    0    0 -0.25093343989E-01  0.83386685839E-01 -0.21036938820E-01  0.89586992380E-01  0.51100000000E-03 0. -1.
         11    1    4    4    0    0 -0.40991517514E-01  0.31202488191E-01  0.84313540527E-03  0.51525447845E-01  0.51100000000E-03 0.  1.
</event>
<event>
 8    1  0.2837913E+004  0.1043930E+01  0.7957747E-01            NaN
         13   -1    0    0    0    0  0.00000000000E+00  0.00000000000E+00  0.74505805969E-08  0.10566000000E+00  0.10566000000E+00 0. -1.
     999900   -1    0    0    0    0 -0.00000000000E+00 -0.00000000000E+00 -0.74505805969E-08  0.93827000000E+00  0.93827000000E+00 0. -1.
     999902    2    1    2    0    0 -0.21147465217E-02  0.12954244255E-01  0.67716813001E-02  0.10291604277E+01  0.10290544426E+01 0.  0.
     999903    2    3    3    0    0  0.48386861942E-01 -0.40843810849E-01  0.11643719281E+00  0.13928899455E+00  0.42828715139E-01 0.  0.
         14    1    1    2    0    0  0.21147465217E-02 -0.12954244255E-01 -0.67716813001E-02  0.14769572259E-01  0.00000000000E+00 0. -1.
     999901    1    3    3    0    0 -0.50501608463E-01  0.53798055104E-01 -0.10966551151E+00  0.88987143319E+00  0.88000000000E+00 0. -1.
        -11    1    4    4    0    0  0.19368279769E-01  0.43452410313E-02  0.16426645757E-01  0.25770277311E-01  0.51100000000E-03 0. -1.
         11    1    4    4    0    0  0.29018582172E-01 -0.45189051880E-01  0.10001054705E+00  0.11351871724E+00  0.51100000000E-03 0.  1.
</event>
<event>
 8    1  0.2837913E+004  0.1043930E+01  0.7957747E-01            NaN
         13   -1    0    0    0    0  0.00000000000E+00  0.00000000000E+00  0.74505805969E-08  0.10566000000E+00  0.10566000000E+00 0.  1.
     999900   -1    0    0    0    0 -0.00000000000E+00 -0.00000000000E+00 -0.74505805969E-08  0.93827000000E+00  0.93827000000E+00 0. -1.
     999902    2    1    2    0    0 -0.12294476196E-01  0.60486743574E-02 -0.20082953855E-02  0.10300817562E+01  0.10299886653E+01 0.  0.
     999903    2    3    3    0    0  0.83454140207E-01  0.94290306033E-01  0.39902337009E-01  0.13951402478E+00  0.44907808711E-01 0.  0.
         14    1    1    2    0    0  0.12294476196E-01 -0.60486743574E-02  0.20082953855E-02  0.13848243815E-01  0.00000000000E+00 0. -1.
     999901    1    3    3    0    0 -0.95748616403E-01 -0.88241631676E-01 -0.41910632394E-01  0.89056773140E+00  0.88000000000E+00 0. -1.
        -11    1    4    4    0    0  0.57030308314E-01  0.50016167464E-01  0.26518555587E-02  0.75903666138E-01  0.51100000000E-03 0. -1.
         11    1    4    4    0    0  0.26423831893E-01  0.44274138569E-01  0.37250481450E-01  0.63610358647E-01  0.51100000000E-03 0.  1.
</event>
<event>
 8    1  0.2837913E+004  0.1043930E+01  0.7957747E-01            NaN
         13   -1    0    0    0    0  0.00000000000E+00  0.00000000000E+00  0.74505805969E-08  0.10566000000E+00  0.10566000000E+00 0. -1.
     999900   -1    0    0    0    0 -0.00000000000E+00 -0.00000000000E+00 -0.74505805969E-08  0.93827000000E+00  0.93827000000E+00 0.  1.
     999902    2    1    2    0    0  0.13209971297E-01 -0.34452466206E-02 -0.16493000943E-02  0.10301788816E+01  0.10300871006E+01 0.  0.
     999903    2    3    3    0    0 -0.34983326839E-01  0.12345451075E+00  0.28665084051E-01  0.13925514510E+00  0.45885280987E-01 0.  0.
         14    1    1    2    0    0 -0.13209971297E-01  0.34452466206E-02  0.16493000943E-02  0.13751118382E-01  0.00000000000E+00 0. -1.
     999901    1    3    3    0    0  0.48193298136E-01 -0.12689975737E+00 -0.30314384146E-01  0.89092373652E+00  0.88000000000E+00 0.  1.
        -11    1    4    4    0    0 -0.41316397066E-01  0.68403735554E-01  0.24930472104E-01  0.83713232314E-01  0.51100000000E-03 0.  1.
         11    1    4    4    0    0  0.63330702269E-02  0.55050775198E-01  0.37346119478E-02  0.55541912785E-01  0.51100000000E-03 0. -1.
</event>
<event>
 8    1  0.2837913E+004  0.1043930E+01  0.7957747E-01            NaN
         13   -1    0    0    0    0  0.00000000000E+00  0.00000000000E+00  0.74505805969E-08  0.10566000000E+00  0.10566000000E+00 0. -1.
     999900   -1    0    0    0    0 -0.00000000000E+00 -0.00000000000E+00 -0.74505805969E-08  0.93827000000E+00  0.93827000000E+00 0. -1.
     999902    2    1    2    0    0  0.13291722192E-02  0.12761851194E-01  0.24417555150E-01  0.10163465168E+01  0.10159721422E+01 0.  0.
     999903    2    3    3    0    0  0.64932117872E-01  0.10014593922E+00  0.23929477845E-01  0.12973411461E+00  0.44865705282E-01 0.  0.
         14    1    1    2    0    0 -0.13291722192E-02 -0.12761851194E-01 -0.24417555150E-01  0.27583483177E-01  0.00000000000E+00 0.  1.
     999901    1    3    3    0    0 -0.63602945653E-01 -0.87384088026E-01  0.48807730512E-03  0.88661240221E+00  0.88000000000E+00 0. -1.
        -11    1    4    4    0    0  0.25746818107E-02  0.19477158158E-01 -0.10289237287E-01  0.22183737315E-01  0.51100000000E-03 0.  1.
         11    1    4    4    0    0  0.62357436061E-01  0.80668781063E-01  0.34218715132E-01  0.10755037730E+00  0.51100000000E-03 0. -1.
</event>
<event>
 7    1  0.2837913E+004  0.1043930E+01  0.7957747E-01            NaN
         13   -1    0    0    0    0  0.00000000000E+00  0.00000000000E+00  0.74505805969E-08  0.10566000000E+00  0.10566000000E+00 0. -1.
     999900   -1    0    0    0    0 -0.00000000000E+00 -0.00000000000E+00 -0.74505805969E-08  0.93827000000E+00  0.93827000000E+00 0. -1.
     999902    2    1    2    0    0  0.64024844914E-02  0.40191987276E-02 -0.11001852547E-01  0.10305813474E+01  0.10304948943E+01 0.  0.
         14    1    1    2    0    0 -0.64024844914E-02 -0.40191987276E-02  0.11001852547E-01  0.13348652574E-01  0.00000000000E+00 0. -1.
     999901    1    3    3    0    0 -0.64322043324E-01 -0.11004452613E+00  0.25433043953E-01  0.88954705481E+00  0.88000000000E+00 0.  1.
        -11    1    3    3    0    0  0.25785907391E-01  0.41443914560E-01 -0.17111173281E-02  0.48843629242E-01  0.51100000000E-03 0.  1.
         11    1    3    3    0    0  0.44938620425E-01  0.72619810297E-01 -0.34723779171E-01  0.92190663379E-01  0.51100000000E-03 0. -1.
</event>
<event>
 8    1  0.2837913E+004  0.1043930E+01  0.7957747E-01            NaN
         13   -1    0    0    0    0  0.00000000000E+00  0.00000000000E+00  0.74505805969E-08  0.10566000000E+00  0.10566000000E+00 0.  1.
     999900   -1    0    0    0    0 -0.00000000000E+00 -0.00000000000E+00 -0.74505805969E-08  0.93827000000E+00  0.93827000000E+00 0. -1.
     999902    2    1    2    0    0 -0.63666769606E-02 -0.11418853085E-01  0.85935625083E-03  0.10308279668E+01  0.10307446987E+01 0.  0.
     999903    2    3    3    0    0  0.11528711237E+00 -0.49590178768E-01  0.44914507385E-01  0.14054848768E+00  0.44567480389E-01 0.  0.
         14    1    1    2    0    0  0.63666769606E-02  0.11418853085E-01 -0.85935625083E-03  0.13102033219E-01  0.00000000000E+00 0. -1.
     999901    1    3    3    0    0 -0.12165378933E+00  0.38171325683E-01 -0.44055151134E-01  0.89027947910E+00  0.88000000000E+00 0. -1.
        -11    1    4    4    0    0  0.74237544778E-01 -0.18956248317E-01  0.72393751315E-02  0.76962471882E-01  0.51100000000E-03 0. -1.
         11    1    4    4    0    0  0.41049567589E-01 -0.30633930451E-01  0.37675132253E-01  0.63586015801E-01  0.51100000000E-03 0.  1.
</event>
<event>
 8    1  0.2837913E+004  0.1043930E+01  0.7957747E-01            NaN
         13   -1    0    0    0    0  0.00000000000E+00  0.00000000000E+00  0.74505805969E-08  0.10566000000E+00  0.10566000000E+00 0. -1.
     999900   -1    0    0    0    0 -0.00000000000E+00 -0.00000000000E+00 -0.74505805969E-08  0.93827000000E+00  0.93827000000E+00 0.  1.
     999902    2    1    2    0    0 -0.73721491153E-02 -0.96437549684E-02  0.60327699583E-02  0.10303747462E+01  0.10302855782E+01 0.  0.
     999903    2    3    3    0    0 -0.69873390145E-01 -0.66827520710E-01 -0.92762590567E-01  0.14080355092E+00  0.43272780917E-01 0.  0.
         14    1    1    2    0    0  0.73721491153E-02  0.96437549684E-02 -0.60327699583E-02  0.13555253809E-01  0.00000000000E+00 0. -1.
     999901    1    3    3    0    0  0.62501241029E-01  0.57183765742E-01  0.98795360525E-01  0.88957119527E+00  0.88000000000E+00 0.  1.
        -11    1    4    4    0    0 -0.25163050970E-01 -0.48826989890E-01 -0.65285605060E-01  0.85321306981E-01  0.51100000000E-03 0. -1.
         11    1    4    4    0    0 -0.44710339175E-01 -0.18000530821E-01 -0.27476985506E-01  0.55482243939E-01  0.51100000000E-03 0.  1.
</event>
<event>
 8    1  0.2837913E+004  0.1043930E+01  0.7957747E-01            NaN
         13   -1    0    0    0    0  0.00000000000E+00  0.00000000000E+00  0.74505805969E-08  0.10566000000E+00  0.10566000000E+00 0.  1.
     999900   -1    0    0    0    0 -0.00000000000E+00 -0.00000000000E+00 -0.74505805969E-08  0.93827000000E+00  0.93827000000E+00 0. -1.
     999902    2    1    2    0    0 -0.93551716439E-02  0.92308267250E-02 -0.62872912744E-02  0.10293609427E+01  0.10292578360E+01 0.  0.
     999903    2    3    3    0    0 -0.15199222453E-01 -0.87341314303E-01 -0.97869437854E-01  0.13933418979E+00  0.44452986758E-01 0.  0.
         14    1    1    2    0    0  0.93551716439E-02 -0.92308267250E-02  0.62872912744E-02  0.14569057282E-01  0.00000000000E+00 0.  1.
     999901    1    3    3    0    0  0.58440508094E-02  0.96572141028E-01  0.91582146579E-01  0.89002675293E+00  0.88000000000E+00 0.  1.
        -11    1    4    4    0    0  0.99216111704E-02 -0.30799902117E-01 -0.55827139041E-01  0.64529085792E-01  0.51100000000E-03 0.  1.
         11    1    4    4    0    0 -0.25120833624E-01 -0.56541412187E-01 -0.42042298812E-01  0.74805104000E-01  0.51100000000E-03 0. -1.
</event>
<event>
 8    1  0.2837913E+004  0.1043930E+01  0.7957747E-01            NaN
         13   -1    0    0    0    0  0.00000000000E+00  0.00000000000E+00  0.74505805969E-08  0.10566000000E+00  0.10566000000E+00 0. -1.
     999900   -1    0    0    0    0 -0.00000000000E+00 -0.00000000000E+00 -0.74505805969E-08  0.93827000000E+00  0.93827000000E+00 0. -1.
     999902    2    1    2    0    0 -0.65791324199E-02 -0.27024411826E-02  0.11901576168E-01  0.10300650915E+01  0.10299717749E+01 0.  0.
     999903    2    3    3    0    0  0.17965443990E-01 -0.10484673732E+00 -0.76788147053E-01  0.13939020108E+00  0.47091539836E-01 0.  0.
         14    1    1    2    0    0  0.65791324199E-02  0.27024411826E-02 -0.11901576168E-01  0.13864908476E-01  0.00000000000E+00 0.  1.
     999901    1    3    3    0    0 -0.24544576410E-01  0.10214429614E+00  0.88689723221E-01  0.89067489045E+00  0.88000000000E+00 0.  1.
        -11    1    4    4    0    0  0.26798352003E-01 -0.34197542155E-01 -0.17901437736E-01  0.46993043672E-01  0.51100000000E-03 0.  1.
         11    1    4    4    0    0 -0.88329080132E-02 -0.70649195167E-01 -0.58886709317E-01  0.92397157407E-01  0.51100000000E-03 0. -1.
</event>
<event>
 7    1  0.2837913E+004  0.1043930E+01  0.7957747E-01            NaN
         13   -1    0    0    0    0  0.00000000000E+00  0.00000000000E+00  0.74505805969E-08  0.10566000000E+00  0.10566000000E+00 0.  1.
     999900   -1    0    0    0    0 -0.00000000000E+00 -0.00000000000E+00 -0.74505805969E-08  0.93827000000E+00  0.93827000000E+00 0. -1.
     999902    2    1    2    0    0 -0.23233782175E-02 -0.11955066226E-01 -0.63158625427E-02  0.10302109689E+01  0.10301196186E+01 0.  0.
         14    1    1    2    0    0  0.23233782175E-02  0.11955066226E-01  0.63158625427E-02  0.13719031106E-01  0.00000000000E+00 0. -1.
     999901    1    3    3    0    0 -0.65759178565E-01 -0.12934067258E+00 -0.34770843487E-01  0.89255940458E+00  0.88000000000E+00 0.  1.
        -11    1    3    3    0    0  0.61317476886E-01  0.10157684812E+00  0.26501872038E-01  0.12157425463E+00  0.51100000000E-03 0.  1.
         11    1    3    3    0    0  0.21183234617E-02  0.15808758237E-01  0.19531089065E-02  0.16077309684E-01  0.51100000000E-03 0. -1.
</event>
<event>
 8    1  0.2837913E+004  0.1043930E+01  0.7957747E-01            NaN
         13   -1    0    0    0    0  0.00000000000E+00  0.00000000000E+00  0.74505805969E-08  0.10566000000E+00  0.10566000000E+00 0.  1.
     999900   -1    0    0    0    0 -0.00000000000E+00 -0.00000000000E+00 -0.74505805969E-08  0.93827000000E+00  0.93827000000E+00 0. -1.
     999902    2    1    2    0    0 -0.13815840190E-02 -0.21550083532E-02 -0.13539830032E-01  0.10301503109E+01  0.10300581455E+01 0.  0.
     999903    2    3    3    0    0  0.10034698604E+00  0.28260428129E-02  0.84624496965E-01  0.13885364424E+00  0.45183237012E-01 0.  0.
         14    1    1    2    0    0  0.13815840190E-02  0.21550083532E-02  0.13539830032E-01  0.13779689136E-01  0.00000000000E+00 0.  1.
     999901    1    3    3    0    0 -0.10172857006E+00 -0.49810511660E-02 -0.98164326996E-01  0.89129666662E+00  0.88000000000E+00 0. -1.
        -11    1    4    4    0    0  0.47571130312E-01  0.46607935631E-02  0.68701324595E-01  0.83695092795E-01  0.51100000000E-03 0. -1.
         11    1    4    4    0    0  0.52775855731E-01 -0.18347507503E-02  0.15923172370E-01  0.55158551447E-01  0.51100000000E-03 0.  1.
</event>
<event>
 8    1  0.2837913E+004  0.1043930E+01  0.7957747E-01            NaN
         13   -1    0    0    0    0  0.00000000000E+00  0.00000000000E+00  0.74505805969E-08  0.10566000000E+00  0.10566000000E+00 0.  1.
     999900   -1    0    0    0    0 -0.00000000000E+00 -0.00000000000E+00 -0.74505805969E-08  0.93827000000E+00  0.93827000000E+00 0. -1.
     999902    2    1    2    0    0  0.60444109438E-02  0.16722611077E-02  0.12199729949E-01  0.10302126835E+01  0.10301213562E+01 0.  0.
     999903    2    3    3    0    0 -0.75588978582E-01  0.10807978337E+00  0.10963234276E-01  0.14005084429E+00  0.45816080420E-01 0.  0.
         14    1    1    2    0    0 -0.60444109438E-02 -0.16722611077E-02 -0.12199729949E-01  0.13717316490E-01  0.00000000000E+00 0. -1.
     999901    1    3    3    0    0  0.81633389526E-01 -0.10640752226E+00  0.12364956727E-02  0.89016183922E+00  0.88000000000E+00 0. -1.
        -11    1    4    4    0    0 -0.23469634838E-01  0.48850113223E-02  0.74948900498E-03  0.23989788449E-01  0.51100000000E-03 0.  1.
         11    1    4    4    0    0 -0.52119343744E-01  0.10319477205E+00  0.10213745271E-01  0.11606105584E+00  0.51100000000E-03 0. -1.
</event>
<event>
 8    1  0.2837913E+004  0.1043930E+01  0.7957747E-01            NaN
         13   -1    0    0    0    0  0.00000000000E+00  0.00000000000E+00  0.74505805969E-08  0.10566000000E+00  0.10566000000E+00 0.  1.
     999900   -1    0    0    0    0 -0.00000000000E+00 -0.00000000000E+00 -0.74505805969E-08  0.93827000000E+00  0.93827000000E+00 0. -1.
     999902    2    1    2    0    0 -0.70480774587E-02 -0.12298867059E-01 -0.39861927158E-02  0.10292049445E+01  0.10290996019E+01 0.  0.
     999903    2    3    3    0    0  0.95583221796E-01  0.58338653111E-01 -0.67586125906E-01  0.13815623970E+00  0.44493948098E-01 0.  0.
         14    1    1    2    0    0  0.70480774587E-02  0.12298867059E-01  0.39861927158E-02  0.14725055489E-01  0.00000000000E+00 0. -1.
     999901    1    3    3    0    0 -0.10263129926E+00 -0.70637520170E-01  0.63599933190E-01  0.89104870481E+00  0.88000000000E+00 0.  1.
        -11    1    4    4    0    0  0.65226983124E-01  0.20418175652E-01 -0.55635652943E-01  0.88130858522E-01  0.51100000000E-03 0.  1.
         11    1    4    4    0    0  0.30356238672E-01  0.37920477458E-01 -0.11950472963E-01  0.50025381178E-01  0.51100000000E-03 0. -1.
</event>
<event>
 7    1  0.2837913E+004  0.1043930E+01  0.7957747E-01            NaN
         13   -1    0    0    0    0  0.00000000000E+00  0.00000000000E+00  0.74505805969E-08  0.10566000000E+00  0.10566000000E+00 0. -1.
     999900   -1    0    0    0    0 -0.00000000000E+00 -0.00000000000E+00 -0.74505805969E-08  0.93827000000E+00  0.93827000000E+00 0. -1.
     999903    2    1    2    0    0 -0.14148614600E-01 -0.67161264517E-01 -0.65394978320E-01  0.10062394787E+00  0.33732135267E-01 0.  0.
         14    1    1    2    0    0 -0.53961175882E-01  0.11962802457E-01 -0.82723736033E-02  0.55886933270E-01  0.00000000000E+00 0. -1.
     999901    1    1    2    0    0  0.68109790482E-01  0.55198462060E-01  0.73667351923E-01  0.88741911886E+00  0.88000000000E+00 0.  1.
        -11    1    3    3    0    0 -0.42467033795E-02 -0.34037018470E-01 -0.54452299865E-01  0.64357339889E-01  0.51100000000E-03 0. -1.
         11    1    3    3    0    0 -0.99019112205E-02 -0.33124246047E-01 -0.10942678455E-01  0.36266607985E-01  0.51100000000E-03 0.  1.
</event>
<event>
 7    1  0.2837913E+004  0.1043930E+01  0.7957747E-01            NaN
         13   -1    0    0    0    0  0.00000000000E+00  0.00000000000E+00  0.74505805969E-08  0.10566000000E+00  0.10566000000E+00 0.  1.
     999900   -1    0    0    0    0 -0.00000000000E+00 -0.00000000000E+00 -0.74505805969E-08  0.93827000000E+00  0.93827000000E+00 0.  1.
     999903    2    1    2    0    0 -0.35677092701E-01 -0.28456084926E-01  0.80818965390E-01  0.10305160083E+00  0.44780839131E-01 0.  0.
         14    1    1    2    0    0  0.55930300771E-01  0.98525077953E-02 -0.51108176373E-03  0.56793764260E-01  0.00000000000E+00 0.  1.
     999901    1    1    2    0    0 -0.20253208071E-01  0.18603577131E-01 -0.80307883626E-01  0.88408463491E+00  0.88000000000E+00 0.  1.
        -11    1    3    3    0    0  0.86136131459E-03 -0.17637665469E-01  0.53004729441E-01  0.55871205917E-01  0.51100000000E-03 0.  1.
         11    1    3    3    0    0 -0.36538454015E-01 -0.10818419457E-01  0.27814235949E-01  0.47180394909E-01  0.51100000000E-03 0. -1.
</event>
<event>
 8    1  0.2837913E+004  0.1043930E+01  0.7957747E-01            NaN
         13   -1    0    0    0    0  0.00000000000E+00  0.00000000000E+00  0.74505805969E-08  0.10566000000E+00  0.10566000000E+00 0.  1.
     999900   -1    0    0    0    0 -0.00000000000E+00 -0.00000000000E+00 -0.74505805969E-08  0.93827000000E+00  0.93827000000E+00 0.  1.
     999902    2    1    2    0    0 -0.48985179132E-02 -0.83503926428E-02  0.98693029156E-02  0.10301051067E+01  0.10300123316E+01 0.  0.
     999903    2    3    3    0    0 -0.67331955873E-01  0.93267746816E-01  0.67008715820E-01  0.14022360168E+00  0.44045721648E-01 0.  0.
         14    1    1    2    0    0  0.48985179132E-02  0.83503926428E-02 -0.98693029156E-02  0.13824893312E-01  0.00000000000E+00 0. -1.
     999901    1    3    3    0    0  0.62433437960E-01 -0.10161813946E+00 -0.57139412905E-01  0.88988150500E+00  0.88000000000E+00 0.  1.
        -11    1    4    4    0    0 -0.52322464975E-01  0.42777970746E-01  0.52514419500E-01  0.85589838758E-01  0.51100000000E-03 0.  1.
         11    1    4    4    0    0 -0.15009490898E-01  0.50489776070E-01  0.14494296320E-01  0.54633762925E-01  0.51100000000E-03 0. -1.
</event>
<event>
 7    1  0.2837913E+004  0.1043930E+01  0.7957747E-01            NaN
         13   -1    0    0    0    0  0.00000000000E+00  0.00000000000E+00  0.74505805969E-08  0.10566000000E+00  0.10566000000E+00 0.  1.
     999900   -1    0    0    0    0 -0.00000000000E+00 -0.00000000000E+00 -0.74505805969E-08  0.93827000000E+00  0.93827000000E+00 0. -1.
     999903    2    1    2    0    0  0.59701799797E-01  0.85521200622E-01  0.51338077415E-02  0.11335101410E+00  0.44089860058E-01 0.  0.
         14    1    1    2    0    0  0.25028865404E-01 -0.14020798024E-01  0.31832679751E-01  0.42852612298E-01  0.00000000000E+00 0.  1.
     999901    1    1    2    0    0 -0.84730665202E-01 -0.71500402598E-01 -0.36966487492E-01  0.88772637361E+00  0.88000000000E+00 0. -1.
        -11    1    3    3    0    0  0.55348952874E-01  0.90808298333E-01  0.43235223645E-02  0.10643593189E+00  0.51100000000E-03 0.  1.
         11    1    3    3    0    0  0.43528469237E-02 -0.52870977112E-02  0.81028537704E-03  0.69150822078E-02  0.51100000000E-03 0. -1.
</event>
<event>
 8    1  0.2837913E+004  0.1043930E+01  0.7957747E-01            NaN
         13   -1    0    0    0    0  0.00000000000E+00  0.00000000000E+00  0.74505805969E-08  0.10566000000E+00  0.10566000000E+00 0.  1.
     999900   -1    0    0    0    0 -0.00000000000E+00 -0.00000000000E+00 -0.74505805969E-08  0.93827000000E+00  0.93827000000E+00 0.  1.
     999902    2    1    2    0    0 -0.67757987745E-02  0.12049433665E-01  0.82320335552E-03  0.10300816079E+01  0.10299885149E+01 0.  0.
     999903    2    3    3    0    0 -0.74487686044E-01  0.92616743698E-01  0.62753597553E-01  0.14164963814E+00  0.44725042131E-01 0.  0.
         14    1    1    2    0    0  0.67757987745E-02 -0.12049433665E-01 -0.82320335552E-03  0.13848392125E-01  0.00000000000E+00 0. -1.
     999901    1    3    3    0    0  0.67711887270E-01 -0.80567310033E-01 -0.61930394197E-01  0.88843196974E+00  0.88000000000E+00 0. -1.
        -11    1    4    4    0    0 -0.34652624664E-01  0.15454303738E-01  0.73784864936E-02  0.38656734007E-01  0.51100000000E-03 0.  1.
         11    1    4    4    0    0 -0.39835061380E-01  0.77162439960E-01  0.55375111059E-01  0.10299290413E+00  0.51100000000E-03 0. -1.
</event>
<event>
 8    1  0.2837913E+004  0.1043930E+01  0.7957747E-01            NaN
         13   -1    0    0    0    0  0.00000000000E+00  0.00000000000E+00  0.74505805969E-08  0.10566000000E+00  0.10566000000E+00 0. -1.
     999900   -1    0    0    0    0 -0.00000000000E+00 -0.00000000000E+00 -0.74505805969E-08  0.93827000000E+00  0.93827000000E+00 0.  1.
     999902    2    1    2    0    0  0.13107316998E-01  0.22028534164E-02 -0.33595924636E-02  0.10302208358E+01  0.10301296177E+01 0.  0.
     999903    2    3    3    0    0  0.49714011398E-01 -0.74727828570E-01  0.97992310142E-01  0.14031601611E+00  0.45059518851E-01 0.  0.
         14    1    1    2    0    0 -0.13107316998E-01 -0.22028534164E-02  0.33595924636E-02  0.13709164219E-01  0.00000000000E+00 0. -1.
     999901    1    3    3    0    0 -0.36606694400E-01  0.76930681987E-01 -0.10135190261E+00  0.88990481967E+00  0.88000000000E+00 0.  1.
        -11    1    4    4    0    0  0.36110987676E-01 -0.72671323458E-01  0.63068265120E-01  0.10277641690E+00  0.51100000000E-03 0.  1.
         11    1    4    4    0    0  0.13603023721E-01 -0.20565051122E-02  0.34924045021E-01  0.37539599216E-01  0.51100000000E-03 0. -1.
</event>
<event>
 8    1  0.2837913E+004  0.1043930E+01  0.7957747E-01            NaN
         13   -1    0    0    0    0  0.00000000000E+00  0.00000000000E+00  0.74505805969E-08  0.10566000000E+00  0.10566000000E+00 0.  1.
     999900   -1    0    0    0    0 -0.00000000000E+00 -0.00000000000E+00 -0.74505805969E-08  0.93827000000E+00  0.93827000000E+00 0.  1.
     999902    2    1    2    0    0 -0.97857208263E-02 -0.86984613462E-02 -0.22742997309E-02  0.10306410572E+01  0.10305553807E+01 0.  0.
     999903    2    3    3    0    0 -0.90960490875E-01 -0.49516118072E-01 -0.86005601154E-01  0.14200932512E+00  0.45210929455E-01 0.  0.
         14    1    1    2    0    0  0.97857208263E-02  0.86984613462E-02  0.22742997309E-02  0.13288942815E-01  0.00000000000E+00 0.  1.
     999901    1    3    3    0    0  0.81174770048E-01  0.40817656726E-01  0.83731301423E-01  0.88863173206E+00  0.88000000000E+00 0. -1.
        -11    1    4    4    0    0 -0.53831579246E-01 -0.38326937762E-01 -0.26970823786E-01  0.71375622863E-01  0.51100000000E-03 0. -1.
         11    1    4    4    0    0 -0.37128911628E-01 -0.11189180310E-01 -0.59034777368E-01  0.70633702258E-01  0.51100000000E-03 0.  1.
</event>
<event>
 7    1  0.2837913E+004  0.1043930E+01  0.7957747E-01            NaN
         13   -1    0    0    0    0  0.00000000000E+00  0.00000000000E+00  0.74505805969E-08  0.10566000000E+00  0.10566000000E+00 0.  1.
     999900   -1    0    0    0    0 -0.00000000000E+00 -0.00000000000E+00 -0.74505805969E-08  0.93827000000E+00  0.93827000000E+00 0. -1.
     999903    2    1    2    0    0 -0.14355221326E-01 -0.14826966739E-01 -0.61627771835E-01  0.79308236095E-01  0.45452202687E-01 0.  0.
         14    1    1    2    0    0  0.23467465966E-01  0.69884766719E-01 -0.26779738901E-01  0.78433137091E-01  0.00000000000E+00 0.  1.
     999901    1    1    2    0    0 -0.91122446405E-02 -0.55057799980E-01  0.88407510736E-01  0.88618862681E+00  0.88000000000E+00 0.  1.
        -11    1    3    3    0    0  0.32768225610E-02  0.10428222741E-01 -0.61562290464E-03  0.10960178292E-01  0.51100000000E-03 0.  1.
         11    1    3    3    0    0 -0.17632043887E-01 -0.25255189480E-01 -0.61012148931E-01  0.68348057803E-01  0.51100000000E-03 0. -1.
</event>
<event>
 8    1  0.2837913E+004  0.1043930E+01  0.7957747E-01            NaN
         13   -1    0    0    0    0  0.00000000000E+00  0.00000000000E+00  0.74505805969E-08  0.10566000000E+00  0.10566000000E+00 0.  1.
     999900   -1    0    0    0    0 -0.00000000000E+00 -0.00000000000E+00 -0.74505805969E-08  0.93827000000E+00  0.93827000000E+00 0. -1.
     999902    2    1    2    0    0  0.11124795554E-01 -0.77948828069E-02  0.37270922324E-02  0.10298441031E+01  0.10297477673E+01 0.  0.
     999903    2    3    3    0    0  0.35805895440E-01  0.10089533166E+00 -0.76755562907E-01  0.13917010150E+00  0.44888424051E-01 0.  0.
         14    1    1    2    0    0 -0.11124795554E-01  0.77948828069E-02 -0.37270922324E-02  0.14085896869E-01  0.00000000000E+00 0. -1.
     999901    1    3    3    0    0 -0.24681099886E-01 -0.10869021447E+00  0.80482655139E-01  0.89067400164E+00  0.88000000000E+00 0.  1.
        -11    1    4    4    0    0  0.10721524266E-01  0.79680536592E-01 -0.39772144474E-01  0.89699629828E-01  0.51100000000E-03 0.  1.
         11    1    4    4    0    0  0.25084371174E-01  0.21214795069E-01 -0.36983418433E-01  0.49470471667E-01  0.51100000000E-03 0. -1.
</event>
<event>
 8    1  0.2837913E+004  0.1043930E+01  0.7957747E-01            NaN
         13   -1    0    0    0    0  0.00000000000E+00  0.00000000000E+00  0.74505805969E-08  0.10566000000E+00  0.10566000000E+00 0. -1.
     999900   -1    0    0    0    0 -0.00000000000E+00 -0.00000000000E+00 -0.74505805969E-08  0.93827000000E+00  0.93827000000E+00 0. -1.
     999902    2    1    2    0    0  0.13525304746E-01  0.10634822842E-02 -0.40470510204E-02  0.10297721935E+01  0.10296748647E+01 0.  0.
     999903    2    3    3    0    0  0.16394215362E-01 -0.13024430143E+00  0.96051832506E-02  0.13992032481E+00  0.47466718826E-01 0.  0.
         14    1    1    2    0    0 -0.13525304746E-01 -0.10634822842E-02  0.40470510204E-02  0.14157806504E-01  0.00000000000E+00 0. -1.
     999901    1    3    3    0    0 -0.28689106158E-02  0.13130778371E+00 -0.13652234271E-01  0.88985186869E+00  0.88000000000E+00 0. -1.
        -11    1    4    4    0    0  0.30433425449E-01 -0.66634213456E-01  0.14181071969E-01  0.74616859426E-01  0.51100000000E-03 0. -1.
         11    1    4    4    0    0 -0.14039210087E-01 -0.63610087974E-01 -0.45758887187E-02  0.65303465379E-01  0.51100000000E-03 0.  1.
</event>
<event>
 8    1  0.2837913E+004  0.1043930E+01  0.7957747E-01            NaN
         13   -1    0    0    0    0  0.00000000000E+00  0.00000000000E+00  0.74505805969E-08  0.10566000000E+00  0.10566000000E+00 0. -1.
     999900   -1    0    0    0    0 -0.00000000000E+00 -0.00000000000E+00 -0.74505805969E-08  0.93827000000E+00  0.93827000000E+00 0. -1.
     999902    2    1    2    0    0  0.29884638519E-02 -0.67516918673E-02  0.99510128504E-02  0.10315389179E+01  0.10314644929E+01 0.  0.
     999903    2    3    3    0    0  0.57584850727E-01  0.12233320710E+00  0.78678200767E-02  0.14044519874E+00  0.37168839962E-01 0.  0.
         14    1    1    2    0    0 -0.29884638519E-02  0.67516918673E-02 -0.99510128504E-02  0.12391082116E-01  0.00000000000E+00 0.  1.
     999901    1    3    3    0    0 -0.54596386875E-01 -0.12908489897E+00  0.20831927737E-02  0.89109371914E+00  0.88000000000E+00 0.  1.
        -11    1    4    4    0    0  0.12080920480E-01  0.56633051784E-01  0.16087403331E-01  0.60102552865E-01  0.51100000000E-03 0.  1.
         11    1    4    4    0    0  0.45503930248E-01  0.65700155317E-01 -0.82195832538E-02  0.80342645877E-01  0.51100000000E-03 0. -1.
</event>
<event>
 8    1  0.2837913E+004  0.1043930E+01  0.7957747E-01            NaN
         13   -1    0    0    0    0  0.00000000000E+00  0.00000000000E+00  0.74505805969E-08  0.10566000000E+00  0.10566000000E+00 0.  1.
     999900   -1    0    0    0    0 -0.00000000000E+00 -0.00000000000E+00 -0.74505805969E-08  0.93827000000E+00  0.93827000000E+00 0. -1.
     999902    2    1    2    0    0 -0.11909326270E-01  0.70170488982E-02  0.46010498206E-02  0.10293615173E+01  0.10292584188E+01 0.  0.
     999903    2    3    3    0    0  0.11243308056E-01 -0.12296060278E+00 -0.43390657441E-01  0.13821986846E+00  0.44455157972E-01 0.  0.
         14    1    1    2    0    0  0.11909326270E-01 -0.70170488982E-02 -0.46010498206E-02  0.14568482656E-01  0.00000000000E+00 0.  1.
     999901    1    3    3    0    0 -0.23152634326E-01  0.12997765168E+00  0.47991707262E-01  0.89114164889E+00  0.88000000000E+00 0.  1.
        -11    1    4    4    0    0 -0.12323102351E-01 -0.89206958319E-01 -0.30452809586E-01  0.95065109250E-01  0.51100000000E-03 0. -1.
         11    1    4    4    0    0  0.23566410407E-01 -0.33753644465E-01 -0.12937847855E-01  0.43154759208E-01  0.51100000000E-03 0.  1.
</event>
<event>
 8    1  0.2837913E+004  0.1043930E+01  0.7957747E-01            NaN
         13   -1    0    0    0    0  0.00000000000E+00  0.00000000000E+00  0.74505805969E-08  0.10566000000E+00  0.10566000000E+00 0. -1.
     999900   -1    0    0    0    0 -0.00000000000E+00 -0.00000000000E+00 -0.74505805969E-08  0.93827000000E+00  0.93827000000E+00 0.  1.
     999902    2    1    2    0    0  0.62002932667E-02  0.81698333159E-02 -0.94959274899E-02  0.10299527881E+01  0.10298579433E+01 0.  0.
     999903    2    3    3    0    0  0.74051392509E-02 -0.13006052838E+00 -0.19205953115E-01  0.13910859908E+00  0.44852609436E-01 0.  0.
         14    1    1    2    0    0 -0.62002932667E-02 -0.81698333159E-02  0.94959274899E-02  0.13977211878E-01  0.00000000000E+00 0. -1.
     999901    1    3    3    0    0 -0.12048459842E-02  0.13823036170E+00  0.97100256251E-02  0.89084418904E+00  0.88000000000E+00 0.  1.
        -11    1    4    4    0    0 -0.16805225117E-01 -0.26346843789E-01 -0.33946992644E-02  0.31438143599E-01  0.51100000000E-03 0.  1.
         11    1    4    4    0    0  0.24210364367E-01 -0.10371368459E+00 -0.15811253851E-01  0.10767045548E+00  0.51100000000E-03 0. -1.
</event>
<event>
 8    1  0.2837913E+004  0.1043930E+01  0.7957747E-01            NaN
         13   -1    0    0    0    0  0.00000000000E+00  0.00000000000E+00  0.74505805969E-08  0.10566000000E+00  0.10566000000E+00 0.  1.
     999900   -1    0    0    0    0 -0.00000000000E+00 -0.00000000000E+00 -0.74505805969E-08  0.93827000000E+00  0.93827000000E+00 0.  1.
     999902    2    1    2    0    0 -0.15011490721E-01 -0.26689814462E-02 -0.31189979945E-02  0.10283673375E+01  0.10282495730E+01 0.  0.
     999903    2    3    3    0    0 -0.59886099083E-01 -0.60797705524E-01 -0.10114784613E+00  0.13988417271E+00  0.45320956948E-01 0.  0.
         14    1    1    2    0    0  0.15011490721E-01  0.26689814462E-02  0.31189979945E-02  0.15562662501E-01  0.00000000000E+00 0.  1.
     999901    1    3    3    0    0  0.44874608362E-01  0.58128724078E-01  0.98028848136E-01  0.88848316478E+00  0.88000000000E+00 0. -1.
        -11    1    4    4    0    0 -0.28555449144E-01 -0.51105613358E-01 -0.41327400251E-01  0.71661792644E-01  0.51100000000E-03 0. -1.
         11    1    4    4    0    0 -0.31330649940E-01 -0.96920921661E-02 -0.59820445879E-01  0.68222380070E-01  0.51100000000E-03 0.  1.
</event>
<event>
 8    1  0.2837913E+004  0.1043930E+01  0.7957747E-01            NaN
         13   -1    0    0    0    0  0.00000000000E+00  0.00000000000E+00  0.74505805969E-08  0.10566000000E+00  0.10566000000E+00 0. -1.
     999900   -1    0    0    0    0 -0.00000000000E+00 -0.00000000000E+00 -0.74505805969E-08  0.93827000000E+00  0.93827000000E+00 0. -1.
     999902    2    1    2    0    0 -0.12180513930E-01 -0.81071348307E-02  0.14636133736E-02  0.10292251464E+01  0.10291200947E+01 0.  0.
     999903    2    3    3    0    0 -0.42778008277E-03 -0.55535925710E-01 -0.12013430026E+00  0.13952088681E+00  0.44152074909E-01 0.  0.
         14    1    1    2    0    0  0.12180513930E-01  0.81071348307E-02 -0.14636133736E-02  0.14704853582E-01  0.00000000000E+00 0.  1.
     999901    1    3    3    0    0 -0.11752733847E-01  0.47428790879E-01  0.12159791363E+00  0.88970425960E+00  0.88000000000E+00 0.  1.
        -11    1    4    4    0    0 -0.16998013274E-01 -0.31647467204E-01 -0.93203071173E-01  0.99887778195E-01  0.51100000000E-03 0.  1.
         11    1    4    4    0    0  0.16570233191E-01 -0.23888458506E-01 -0.26931229085E-01  0.39633108619E-01  0.51100000000E-03 0. -1.
</event>
<event>
 8    1  0.2837913E+004  0.1043930E+01  0.7957747E-01            NaN
         13   -1    0    0    0    0  0.00000000000E+00  0.00000000000E+00  0.74505805969E-08  0.10566000000E+00  0.10566000000E+00 0.  1.
     999900   -1    0    0    0    0 -0.00000000000E+00 -0.00000000000E+00 -0.74505805969E-08  0.93827000000E+00  0.93827000000E+00 0.  1.
     999902    2    1    2    0    0 -0.43619569153E-02  0.11062403461E-01  0.25366217466E-02  0.10317711395E+01  0.10316994943E+01 0.  0.
     999903    2    3    3    0    0  0.31868936855E-01 -0.12802053120E+00 -0.12348178704E-01  0.13998736658E+00  0.45156392035E-01 0.  0.
         14    1    1    2    0    0  0.43619569153E-02 -0.11062403461E-01 -0.25366217466E-02  0.12158860488E-01  0.00000000000E+00 0. -1.
     999901    1    3    3    0    0 -0.36230893770E-01  0.13908293466E+00  0.14884800451E-01  0.89178377293E+00  0.88000000000E+00 0. -1.
        -11    1    4    4    0    0  0.31790180804E-04 -0.88584401743E-01 -0.45271674344E-02  0.88701485945E-01  0.51100000000E-03 0.  1.
         11    1    4    4    0    0  0.31837146674E-01 -0.39436129452E-01 -0.78210112699E-02  0.51285880638E-01  0.51100000000E-03 0. -1.
</event>
<event>
 8    1  0.2837913E+004  0.1043930E+01  0.7957747E-01            NaN
         13   -1    0    0    0    0  0.00000000000E+00  0.00000000000E+00  0.74505805969E-08  0.10566000000E+00  0.10566000000E+00 0. -1.
     999900   -1    0    0    0    0 -0.00000000000E+00 -0.00000000000E+00 -0.74505805969E-08  0.93827000000E+00  0.93827000000E+00 0.  1.
     999902    2    1    2    0    0  0.12210637272E-01  0.54777762859E-02 -0.38552162161E-03  0.10305414107E+01  0.10304544361E+01 0.  0.
     999903    2    3    3    0    0 -0.79663249915E-01 -0.10131454303E+00  0.24852611402E-01  0.13897964957E+00  0.45681732508E-01 0.  0.
         14    1    1    2    0    0 -0.12210637272E-01 -0.54777762859E-02  0.38552162161E-03  0.13388589267E-01  0.00000000000E+00 0. -1.
     999901    1    3    3    0    0  0.91873887187E-01  0.10679231931E+00 -0.25238133023E-01  0.89156176116E+00  0.88000000000E+00 0.  1.
        -11    1    4    4    0    0 -0.20022083981E-01 -0.33679162556E-01  0.28935582635E-01  0.48710357223E-01  0.51100000000E-03 0.  1.
         11    1    4    4    0    0 -0.59641165934E-01 -0.67635380472E-01 -0.40829712332E-02  0.90269292346E-01  0.51100000000E-03 0. -1.
</event>
<event>
 8    1  0.2837913E+004  0.1043930E+01  0.7957747E-01            NaN
         13   -1    0    0    0    0  0.00000000000E+00  0.00000000000E+00  0.74505805969E-08  0.10566000000E+00  0.10566000000E+00 0. -1.
     999900   -1    0    0    0    0 -0.00000000000E+00 -0.00000000000E+00 -0.74505805969E-08  0.93827000000E+00  0.93827000000E+00 0. -1.
     999902    2    1    2    0    0  0.13196720977E-01 -0.56589022661E-02  0.24737756704E-02  0.10293596127E+01  0.10292564870E+01 0.  0.
     999903    2    3    3    0    0 -0.95520018761E-01  0.65563500134E-02 -0.88416231311E-01  0.13793965823E+00  0.45198004877E-01 0.  0.
         14    1    1    2    0    0 -0.13196720977E-01  0.56589022661E-02 -0.24737756704E-02  0.14570387280E-01  0.00000000000E+00 0. -1.
     999901    1    3    3    0    0  0.10871673974E+00 -0.12215252280E-01  0.90890006981E-01  0.89141995449E+00  0.88000000000E+00 0.  1.
        -11    1    4    4    0    0 -0.50560343138E-01 -0.14096408417E-01 -0.26864256951E-01  0.58966146652E-01  0.51100000000E-03 0.  1.
         11    1    4    4    0    0 -0.44959675624E-01  0.20652758430E-01 -0.61551974360E-01  0.78973511582E-01  0.51100000000E-03 0. -1.
</event>
<event>
 8    1  0.2837913E+004  0.1043930E+01  0.7957747E-01            NaN
         13   -1    0    0    0    0  0.00000000000E+00  0.00000000000E+00  0.74505805969E-08  0.10566000000E+00  0.10566000000E+00 0.  1.
     999900   -1    0    0    0    0 -0.00000000000E+00 -0.00000000000E+00 -0.74505805969E-08  0.93827000000E+00  0.93827000000E+00 0.  1.
     999902    2    1    2    0    0 -0.62694545228E-02  0.97875217784E-02  0.89012622848E-02  0.10292898459E+01  0.10291857231E+01 0.  0.
     999903    2    3    3    0    0 -0.63959357415E-01  0.66593528868E-01  0.96749107305E-01  0.14121761277E+00  0.45348946004E-01 0.  0.
         14    1    1    2    0    0  0.62694545228E-02 -0.97875217784E-02 -0.89012622848E-02  0.14640154126E-01  0.00000000000E+00 0. -1.
     999901    1    3    3    0    0  0.57689902892E-01 -0.56806007090E-01 -0.87847845021E-01  0.88807223310E+00  0.88000000000E+00 0.  1.
        -11    1    4    4    0    0 -0.32155813142E-01  0.16803745332E-01  0.64246112813E-01  0.73784729508E-01  0.51100000000E-03 0.  1.
         11    1    4    4    0    0 -0.31803544273E-01  0.49789783536E-01  0.32502994493E-01  0.67432883261E-01  0.51100000000E-03 0. -1.
</event>
<event>
 8    1  0.2837913E+004  0.1043930E+01  0.7957747E-01            NaN
         13   -1    0    0    0    0  0.00000000000E+00  0.00000000000E+00  0.74505805969E-08  0.10566000000E+00  0.10566000000E+00 0.  1.
     999900   -1    0    0    0    0 -0.00000000000E+00 -0.00000000000E+00 -0.74505805969E-08  0.93827000000E+00  0.93827000000E+00 0. -1.
     999902    2    1    2    0    0  0.40446507507E-02 -0.50574855357E-02 -0.12573186309E-01  0.10297870734E+01  0.10296899505E+01 0.  0.
     999903    2    3    3    0    0 -0.56314008443E-01 -0.58237149089E-01  0.10328472851E+00  0.13855517270E+00  0.44350509079E-01 0.  0.
         14    1    1    2    0    0 -0.40446507507E-02  0.50574855357E-02  0.12573186309E-01  0.14142926628E-01  0.00000000000E+00 0.  1.
     999901    1    3    3    0    0  0.60358659193E-01  0.53179663554E-01 -0.11585791482E+00  0.89123190068E+00  0.88000000000E+00 0. -1.
        -11    1    4    4    0    0 -0.28195082222E-01 -0.19307413312E-01  0.13524817895E-01  0.36754873016E-01  0.51100000000E-03 0.  1.
         11    1    4    4    0    0 -0.28118926220E-01 -0.38929735777E-01  0.89759910620E-01  0.10180029968E+00  0.51100000000E-03 0. -1.
</event>
<event>
 8    1  0.2837913E+004  0.1043930E+01  0.7957747E-01            NaN
         13   -1    0    0    0    0  0.00000000000E+00  0.00000000000E+00  0.74505805969E-08  0.10566000000E+00  0.10566000000E+00 0. -1.
     999900   -1    0    0    0    0 -0.00000000000E+00 -0.00000000000E+00 -0.74505805969E-08  0.93827000000E+00  0.93827000000E+00 0. -1.
     999902    2    1    2    0    0  0.56644106632E-02 -0.67806992714E-02 -0.77090966499E-02  0.10322042334E+01  0.10321376293E+01 0.  0.
     999903    2    3    3    0    0 -0.10121604611E+00 -0.88251319800E-02 -0.88756372472E-01  0.14203780366E+00  0.44435043276E-01 0.  0.
         14    1    1    2    0    0 -0.56644106632E-02  0.67806992714E-02  0.77090966499E-02  0.11725766582E-01  0.00000000000E+00 0. -1.
     999901    1    3    3    0    0  0.10688045677E+00  0.20444327085E-02  0.81047275822E-01  0.89016642976E+00  0.88000000000E+00 0.  1.
        -11    1    4    4    0    0 -0.71977907745E-01  0.89211184068E-02 -0.41067981149E-01  0.83350139494E-01  0.51100000000E-03 0.  1.
         11    1    4    4    0    0 -0.29238138362E-01 -0.17746250387E-01 -0.47688391323E-01  0.58687664169E-01  0.51100000000E-03 0. -1.
</event>
<event>
 8    1  0.2837913E+004  0.1043930E+01  0.7957747E-01            NaN
         13   -1    0    0    0    0  0.00000000000E+00  0.00000000000E+00  0.74505805969E-08  0.10566000000E+00  0.10566000000E+00 0.  1.
     999900   -1    0    0    0    0 -0.00000000000E+00 -0.00000000000E+00 -0.74505805969E-08  0.93827000000E+00  0.93827000000E+00 0. -1.
     999902    2    1    2    0    0 -0.52679516539E-02 -0.11872379004E-01  0.61123497371E-02  0.10295750177E+01  0.10294749397E+01 0.  0.
     999903    2    3    3    0    0 -0.72769481114E-02 -0.63161770933E-01 -0.11602309651E+00  0.13965833337E+00  0.44729496708E-01 0.  0.
         14    1    1    2    0    0  0.52679516539E-02  0.11872379004E-01 -0.61123497371E-02  0.14354982311E-01  0.00000000000E+00 0. -1.
     999901    1    3    3    0    0  0.20089964575E-02  0.51289391928E-01  0.12213544625E+00  0.88991668431E+00  0.88000000000E+00 0.  1.
        -11    1    4    4    0    0 -0.20873582672E-01 -0.58551083419E-01 -0.83452720433E-01  0.10406033582E+00  0.51100000000E-03 0. -1.
         11    1    4    4    0    0  0.13596634561E-01 -0.46106875133E-02 -0.32570376078E-01  0.35597997550E-01  0.51100000000E-03 0.  1.
</event>
<event>
 8    1  0.2837913E+004  0.1043930E+01  0.7957747E-01            NaN
         13   -1    0    0    0    0  0.00000000000E+00  0.00000000000E+00  0.74505805969E-08  0.10566000000E+00  0.10566000000E+00 0.  1.
     999900   -1    0    0    0    0 -0.00000000000E+00 -0.00000000000E+00 -0.74505805969E-08  0.93827000000E+00  0.93827000000E+00 0. -1.
     999902    2    1    2    0    0  0.84585065612E-02 -0.25583169991E-02 -0.10765644886E-01  0.10300019553E+01  0.10299077811E+01 0.  0.
     999903    2    3    3    0    0  0.23369176329E-01 -0.11225009393E+00 -0.69163437380E-01  0.14114599613E+00  0.44636410742E-01 0.  0.
         14    1    1    2    0    0 -0.84585065612E-02  0.25583169991E-02  0.10765644886E-01  0.13928044692E-01  0.00000000000E+00 0.  1.
     999901    1    3    3    0    0 -0.14910669768E-01  0.10969177693E+00  0.58397792494E-01  0.88885595918E+00  0.88000000000E+00 0.  1.
        -11    1    4    4    0    0  0.28063698202E-01 -0.10541921661E+00 -0.73728400093E-01  0.13166974022E+00  0.51100000000E-03 0. -1.
         11    1    4    4    0    0 -0.46945218725E-02 -0.68308773160E-02  0.45649627131E-02  0.94762559109E-02  0.51100000000E-03 0.  1.
</event>
<event>
 8    1  0.2837913E+004  0.1043930E+01  0.7957747E-01            NaN
         13   -1    0    0    0    0  0.00000000000E+00  0.00000000000E+00  0.74505805969E-08  0.10566000000E+00  0.10566000000E+00 0.  1.
     999900   -1    0    0    0    0 -0.00000000000E+00 -0.00000000000E+00 -0.74505805969E-08  0.93827000000E+00  0.93827000000E+00 0. -1.
     999902    2    1    2    0    0  0.39198903313E-02  0.29993989262E-02  0.12713403306E-01  0.10302920912E+01  0.10302018251E+01 0.  0.
     999903    2    3    3    0    0 -0.90142943307E-01 -0.59275078480E-01 -0.78786357120E-01  0.13838507057E+00  0.36108898226E-01 0.  0.
         14    1    1    2    0    0 -0.39198903313E-02 -0.29993989262E-02 -0.12713403306E-01  0.13637908848E-01  0.00000000000E+00 0. -1.
     999901    1    3    3    0    0  0.94062833639E-01  0.62274477407E-01  0.91499760426E-01  0.89190702058E+00  0.88000000000E+00 0.  1.
        -11    1    4    4    0    0 -0.44268275785E-01 -0.22062361256E-01 -0.15552231483E-01  0.51851336051E-01  0.51100000000E-03 0.  1.
         11    1    4    4    0    0 -0.45874667522E-01 -0.37212717225E-01 -0.63234125637E-01  0.86533734518E-01  0.51100000000E-03 0. -1.
</event>
<event>
 8    1  0.2837913E+004  0.1043930E+01  0.7957747E-01            NaN
         13   -1    0    0    0    0  0.00000000000E+00  0.00000000000E+00  0.74505805969E-08  0.10566000000E+00  0.10566000000E+00 0. -1.
     999900   -1    0    0    0    0 -0.00000000000E+00 -0.00000000000E+00 -0.74505805969E-08  0.93827000000E+00  0.93827000000E+00 0. -1.
     999902    2    1    2    0    0 -0.51543869997E-02  0.33505881914E-02 -0.12183592381E-01  0.10302832396E+01  0.10301928556E+01 0.  0.
     999903    2    3    3    0    0  0.91750988435E-02 -0.12520392308E+00  0.40920582149E-01  0.13924359407E+00  0.44204973164E-01 0.  0.
         14    1    1    2    0    0  0.51543869997E-02 -0.33505881914E-02  0.12183592381E-01  0.13646760417E-01  0.00000000000E+00 0. -1.
     999901    1    3    3    0    0 -0.14329485843E-01  0.12855451127E+00 -0.53104174531E-01  0.89103964552E+00  0.88000000000E+00 0.  1.
        -11    1    4    4    0    0  0.86238549605E-02 -0.12200279907E-01 -0.69875783064E-02  0.16501668878E-01  0.51100000000E-03 0. -1.
         11    1    4    4    0    0  0.55124388308E-03 -0.11300364317E+00  0.47908160456E-01  0.12274192519E+00  0.51100000000E-03 0.  1.
</event>
<event>
 8    1  0.2837913E+004  0.1043930E+01  0.7957747E-01            NaN
         13   -1    0    0    0    0  0.00000000000E+00  0.00000000000E+00  0.74505805969E-08  0.10566000000E+00  0.10566000000E+00 0. -1.
     999900   -1    0    0    0    0 -0.00000000000E+00 -0.00000000000E+00 -0.74505805969E-08  0.93827000000E+00  0.93827000000E+00 0. -1.
     999902    2    1    2    0    0  0.70968803228E-02  0.88767437293E-02 -0.86546134460E-02  0.10296448810E+01  0.10295457816E+01 0.  0.
     999903    2    3    3    0    0 -0.86376507170E-01 -0.88463310673E-01  0.40863258868E-01  0.13798105424E+00  0.45632303009E-01 0.  0.
         14    1    1    2    0    0 -0.70968803228E-02 -0.88767437293E-02  0.86546134460E-02  0.14285118951E-01  0.00000000000E+00 0. -1.
     999901    1    3    3    0    0  0.93473387493E-01  0.97340054402E-01 -0.49517872314E-01  0.89166382681E+00  0.88000000000E+00 0.  1.
        -11    1    4    4    0    0 -0.67976522481E-01 -0.40715990850E-01  0.15009415212E-01  0.80648268336E-01  0.51100000000E-03 0.  1.
         11    1    4    4    0    0 -0.18399984689E-01 -0.47747319823E-01  0.25853843656E-01  0.57332785905E-01  0.51100000000E-03 0. -1.
</event>
<event>
 8    1  0.2837913E+004  0.1043930E+01  0.7957747E-01            NaN
         13   -1    0    0    0    0  0.00000000000E+00  0.00000000000E+00  0.74505805969E-08  0.10566000000E+00  0.10566000000E+00 0. -1.
     999900   -1    0    0    0    0 -0.00000000000E+00 -0.00000000000E+00 -0.74505805969E-08  0.93827000000E+00  0.93827000000E+00 0. -1.
     999902    2    1    2    0    0  0.18615535069E-02  0.13993866220E-01 -0.20806581544E-02  0.10296603535E+01  0.10295614701E+01 0.  0.
     999903    2    3    3    0    0  0.33796135067E-01  0.12955939051E+00 -0.57189817226E-02  0.14152272603E+00  0.45477036142E-01 0.  0.
         14    1    1    2    0    0 -0.18615535069E-02 -0.13993866220E-01  0.20806581544E-02  0.14269646513E-01  0.00000000000E+00 0.  1.
     999901    1    3    3    0    0 -0.31934581560E-01 -0.11556552429E+00  0.36383235682E-02  0.88813762746E+00  0.88000000000E+00 0. -1.
        -11    1    4    4    0    0  0.26530373283E-01  0.83009902792E-01 -0.24925636722E-01  0.90642446763E-01  0.51100000000E-03 0.  1.
         11    1    4    4    0    0  0.72657617840E-02  0.46549487719E-01  0.19206654999E-01  0.50880279269E-01  0.51100000000E-03 0. -1.
</event>
<event>
 8    1  0.2837913E+004  0.1043930E+01  0.7957747E-01            NaN
         13   -1    0    0    0    0  0.00000000000E+00  0.00000000000E+00  0.74505805969E-08  0.10566000000E+00  0.10566000000E+00 0.  1.
     999900   -1    0    0    0    0 -0.00000000000E+00 -0.00000000000E+00 -0.74505805969E-08  0.93827000000E+00  0.93827000000E+00 0. -1.
     999902    2    1    2    0    0 -0.11836458294E-01  0.11242119898E-02  0.72082976093E-02  0.10300258585E+01  0.10299320094E+01 0.  0.
     999903    2    3    3    0    0  0.22036314709E-01 -0.10813182817E+00 -0.64044022278E-01  0.13976682865E+00  0.57052941837E-01 0.  0.
         14    1    1    2    0    0  0.11836458294E-01 -0.11242119898E-02 -0.72082976093E-02  0.13904141540E-01  0.00000000000E+00 0.  1.
     999901    1    3    3    0    0 -0.33872773003E-01  0.10925604016E+00  0.71252319887E-01  0.89025902981E+00  0.88000000000E+00 0. -1.
        -11    1    4    4    0    0 -0.37415305404E-02 -0.89406660979E-01 -0.59780995271E-01  0.10761774294E+00  0.51100000000E-03 0.  1.
         11    1    4    4    0    0  0.25777845250E-01 -0.18725167194E-01 -0.42630270067E-02  0.32149085717E-01  0.51100000000E-03 0. -1.
</event>
<event>
 8    1  0.2837913E+004  0.1043930E+01  0.7957747E-01            NaN
         13   -1    0    0    0    0  0.00000000000E+00  0.00000000000E+00  0.74505805969E-08  0.10566000000E+00  0.10566000000E+00 0. -1.
     999900   -1    0    0    0    0 -0.00000000000E+00 -0.00000000000E+00 -0.74505805969E-08  0.93827000000E+00  0.93827000000E+00 0.  1.
     999902    2    1    2    0    0  0.29948181874E-02 -0.57190478832E-02 -0.11741397590E-01  0.10305308634E+01  0.10304437508E+01 0.  0.
     999903    2    3    3    0    0 -0.34386083657E-01  0.11654596519E+00  0.51511418386E-01  0.13904503401E+00  0.43757633719E-01 0.  0.
         14    1    1    2    0    0 -0.29948181874E-02  0.57190478832E-02  0.11741397590E-01  0.13399136615E-01  0.00000000000E+00 0. -1.
     999901    1    3    3    0    0  0.37380901844E-01 -0.12226501307E+00 -0.63252815975E-01  0.89148582937E+00  0.88000000000E+00 0. -1.
        -11    1    4    4    0    0 -0.33582096229E-01  0.44573136903E-01  0.32556349302E-01  0.64611908510E-01  0.51100000000E-03 0. -1.
         11    1    4    4    0    0 -0.80398742820E-03  0.71972828285E-01  0.18955069084E-01  0.74433125502E-01  0.51100000000E-03 0.  1.
</event>
<event>
 8    1  0.2837913E+004  0.1043930E+01  0.7957747E-01            NaN
         13   -1    0    0    0    0  0.00000000000E+00  0.00000000000E+00  0.74505805969E-08  0.10566000000E+00  0.10566000000E+00 0.  1.
     999900   -1    0    0    0    0 -0.00000000000E+00 -0.00000000000E+00 -0.74505805969E-08  0.93827000000E+00  0.93827000000E+00 0.  1.
     999902    2    1    2    0    0  0.11405702037E-01 -0.70624498014E-02  0.55382139537E-02  0.10294165562E+01  0.10293142407E+01 0.  0.
     999903    2    3    3    0    0 -0.12492784618E+00  0.31392116933E-01  0.20615769334E-01  0.13796104823E+00  0.44897763067E-01 0.  0.
         14    1    1    2    0    0 -0.11405702037E-01  0.70624498014E-02 -0.55382139537E-02  0.14513443766E-01  0.00000000000E+00 0.  1.
     999901    1    3    3    0    0  0.13633354821E+00 -0.38454566734E-01 -0.15077555380E-01  0.89145550800E+00  0.88000000000E+00 0. -1.
        -11    1    4    4    0    0 -0.41590500222E-01  0.11089846915E-01  0.28804394253E-01  0.51794871007E-01  0.51100000000E-03 0. -1.
         11    1    4    4    0    0 -0.83337345954E-01  0.20302270018E-01 -0.81886249198E-02  0.86166177225E-01  0.51100000000E-03 0.  1.
</event>
<event>
 8    1  0.2837913E+004  0.1043930E+01  0.7957747E-01            NaN
         13   -1    0    0    0    0  0.00000000000E+00  0.00000000000E+00  0.74505805969E-08  0.10566000000E+00  0.10566000000E+00 0. -1.
     999900   -1    0    0    0    0 -0.00000000000E+00 -0.00000000000E+00 -0.74505805969E-08  0.93827000000E+00  0.93827000000E+00 0. -1.
     999902    2    1    2    0    0 -0.10928162143E-01 -0.94231135803E-03 -0.61136244634E-02  0.10313725686E+01  0.10312961196E+01 0.  0.
     999903    2    3    3    0    0  0.35822397602E-01  0.12687549273E+00 -0.59496511034E-02  0.14091031072E+00  0.49393142180E-01 0.  0.
         14    1    1    2    0    0  0.10928162143E-01  0.94231135803E-03  0.61136244634E-02  0.12557431369E-01  0.00000000000E+00 0. -1.
     999901    1    3    3    0    0 -0.46750559745E-01 -0.12781780408E+00 -0.16397335993E-03  0.89046225791E+00  0.88000000000E+00 0.  1.
        -11    1    4    4    0    0  0.25123719486E-01  0.48678272225E-01  0.19237813114E-01  0.58061433345E-01  0.51100000000E-03 0. -1.
         11    1    4    4    0    0  0.10698678116E-01  0.78197220501E-01 -0.25187464218E-01  0.82848877375E-01  0.51100000000E-03 0.  1.
</event>
<event>
 8    1  0.2837913E+004  0.1043930E+01  0.7957747E-01            NaN
         13   -1    0    0    0    0  0.00000000000E+00  0.00000000000E+00  0.74505805969E-08  0.10566000000E+00  0.10566000000E+00 0.  1.
     999900   -1    0    0    0    0 -0.00000000000E+00 -0.00000000000E+00 -0.74505805969E-08  0.93827000000E+00  0.93827000000E+00 0.  1.
     999902    2    1    2    0    0 -0.39949184050E-02 -0.11603061395E-01  0.73478623641E-02  0.10296268015E+01  0.10295274493E+01 0.  0.
     999903    2    3    3    0    0 -0.43588742995E-01  0.60264853272E-01 -0.10754056826E+00  0.13837373999E+00  0.45282303847E-01 0.  0.
         14    1    1    2    0    0  0.39949184050E-02  0.11603061395E-01 -0.73478623641E-02  0.14303198527E-01  0.00000000000E+00 0. -1.
     999901    1    3    3    0    0  0.39593824590E-01 -0.71867914667E-01  0.11488843063E+00  0.89125306148E+00  0.88000000000E+00 0. -1.
        -11    1    4    4    0    0 -0.18370791954E-01  0.27482247209E-01 -0.85141785412E-01  0.91335341752E-01  0.51100000000E-03 0.  1.
         11    1    4    4    0    0 -0.25217951041E-01  0.32782606063E-01 -0.22398782851E-01  0.47038398242E-01  0.51100000000E-03 0. -1.
</event>
<event>
 8    1  0.2837913E+004  0.1043930E+01  0.7957747E-01            NaN
         13   -1    0    0    0    0  0.00000000000E+00  0.00000000000E+00  0.74505805969E-08  0.10566000000E+00  0.10566000000E+00 0. -1.
     999900   -1    0    0    0    0 -0.00000000000E+00 -0.00000000000E+00 -0.74505805969E-08  0.93827000000E+00  0.93827000000E+00 0. -1.
     999902    2    1    2    0    0 -0.47223603481E-02 -0.96947144324E-02  0.84083558360E-02  0.10302556217E+01  0.10301648690E+01 0.  0.
     999903    2    3    3    0    0  0.84986175087E-01 -0.98833710634E-01  0.29411561364E-01  0.14096685156E+00  0.44898340550E-01 0.  0.
         14    1    1    2    0    0  0.47223603481E-02  0.96947144324E-02 -0.84083558360E-02  0.13674378342E-01  0.00000000000E+00 0.  1.
     999901    1    3    3    0    0 -0.89708535435E-01  0.89138996202E-01 -0.21003205528E-01  0.88928877009E+00  0.88000000000E+00 0. -1.
        -11    1    4    4    0    0  0.26729420787E-01 -0.56469857625E-01  0.29123485460E-01  0.68932904205E-01  0.51100000000E-03 0.  1.
         11    1    4    4    0    0  0.58256754300E-01 -0.42363853009E-01  0.28807590445E-03  0.72033947359E-01  0.51100000000E-03 0. -1.
</event>
<event>
 8    1  0.2837913E+004  0.1043930E+01  0.7957747E-01            NaN
         13   -1    0    0    0    0  0.00000000000E+00  0.00000000000E+00  0.74505805969E-08  0.10566000000E+00  0.10566000000E+00 0.  1.
     999900   -1    0    0    0    0 -0.00000000000E+00 -0.00000000000E+00 -0.74505805969E-08  0.93827000000E+00  0.93827000000E+00 0.  1.
     999902    2    1    2    0    0  0.61626661894E-02  0.45665377166E-02 -0.13960746794E-01  0.10280009645E+01  0.10278775456E+01 0.  0.
     999903    2    3    3    0    0 -0.12291366796E+00 -0.40969909367E-01  0.39542216459E-02  0.13723993360E+00  0.45087251659E-01 0.  0.
         14    1    1    2    0    0 -0.61626661894E-02 -0.45665377166E-02  0.13960746794E-01  0.15929035511E-01  0.00000000000E+00 0.  1.
     999901    1    3    3    0    0  0.12907633415E+00  0.45536447083E-01 -0.17914968440E-01  0.89076103089E+00  0.88000000000E+00 0.  1.
        -11    1    4    4    0    0 -0.87643725519E-01 -0.41381764362E-01 -0.13539459943E-01  0.97864452899E-01  0.51100000000E-03 0. -1.
         11    1    4    4    0    0 -0.35269942439E-01  0.41185499559E-03  0.17493681589E-01  0.39375480704E-01  0.51100000000E-03 0.  1.
</event>
<event>
 8    1  0.2837913E+004  0.1043930E+01  0.7957747E-01            NaN
         13   -1    0    0    0    0  0.00000000000E+00  0.00000000000E+00  0.74505805969E-08  0.10566000000E+00  0.10566000000E+00 0.  1.
     999900   -1    0    0    0    0 -0.00000000000E+00 -0.00000000000E+00 -0.74505805969E-08  0.93827000000E+00  0.93827000000E+00 0.  1.
     999902    2    1    2    0    0 -0.12872222797E-01  0.90042925721E-02 -0.56674701368E-02  0.10272299514E+01  0.10270941931E+01 0.  0.
     999903    2    3    3    0    0  0.49021403659E-01 -0.49303295389E-01  0.10811198980E+00  0.13583982286E+00  0.43935659592E-01 0.  0.
         14    1    1    2    0    0  0.12872222797E-01 -0.90042925721E-02  0.56674701368E-02  0.16700048569E-01  0.00000000000E+00 0. -1.
     999901    1    3    3    0    0 -0.61893626456E-01  0.58307587961E-01 -0.11377945993E+00  0.89139012857E+00  0.88000000000E+00 0.  1.
        -11    1    4    4    0    0  0.50728678053E-02 -0.35786559461E-01  0.51152382969E-01  0.62635766382E-01  0.51100000000E-03 0. -1.
         11    1    4    4    0    0  0.43948535854E-01 -0.13516735928E-01  0.56959606829E-01  0.73204056479E-01  0.51100000000E-03 0.  1.
</event>
<event>
 8    1  0.2837913E+004  0.1043930E+01  0.7957747E-01            NaN
         13   -1    0    0    0    0  0.00000000000E+00  0.00000000000E+00  0.74505805969E-08  0.10566000000E+00  0.10566000000E+00 0. -1.
     999900   -1    0    0    0    0 -0.00000000000E+00 -0.00000000000E+00 -0.74505805969E-08  0.93827000000E+00  0.93827000000E+00 0.  1.
     999902    2    1    2    0    0 -0.21596025900E-02 -0.13613341045E-01  0.11268095297E-04  0.10301464205E+01  0.10300542027E+01 0.  0.
     999903    2    3    3    0    0 -0.12704838341E+00  0.31025611681E-01  0.20097806515E-01  0.13998165330E+00  0.45684364156E-01 0.  0.
         14    1    1    2    0    0  0.21596025900E-02  0.13613341045E-01 -0.11268095297E-04  0.13783579532E-01  0.00000000000E+00 0.  1.
     999901    1    3    3    0    0  0.12488878082E+00 -0.44638952726E-01 -0.20086538419E-01  0.89016476716E+00  0.88000000000E+00 0.  1.
        -11    1    4    4    0    0 -0.66077647015E-01  0.47187348861E-02  0.30208816501E-01  0.72810408661E-01  0.51100000000E-03 0. -1.
         11    1    4    4    0    0 -0.60970736393E-01  0.26306876795E-01 -0.10111009986E-01  0.67171244643E-01  0.51100000000E-03 0.  1.
</event>
<event>
 8    1  0.2837913E+004  0.1043930E+01  0.7957747E-01            NaN
         13   -1    0    0    0    0  0.00000000000E+00  0.00000000000E+00  0.74505805969E-08  0.10566000000E+00  0.10566000000E+00 0.  1.
     999900   -1    0    0    0    0 -0.00000000000E+00 -0.00000000000E+00 -0.74505805969E-08  0.93827000000E+00  0.93827000000E+00 0.  1.
     999902    2    1    2    0    0  0.20998065060E-02 -0.12856257271E-01 -0.35091892911E-02  0.10304390049E+01  0.10303506859E+01 0.  0.
     999903    2    3    3    0    0  0.25827019057E-01 -0.38015733254E-01 -0.12604033385E+00  0.14127655564E+00  0.44279436863E-01 0.  0.
         14    1    1    2    0    0 -0.20998065060E-02  0.12856257271E-01  0.35091892911E-02  0.13490995066E-01  0.00000000000E+00 0. -1.
     999901    1    3    3    0    0 -0.23727212551E-01  0.25159475982E-01  0.12253114456E+00  0.88916244929E+00  0.88000000000E+00 0. -1.
        -11    1    4    4    0    0  0.29217969572E-01 -0.92780764443E-02 -0.39360464736E-01  0.49892682366E-01  0.51100000000E-03 0. -1.
         11    1    4    4    0    0 -0.33909505157E-02 -0.28737656809E-01 -0.86679869113E-01  0.91383873275E-01  0.51100000000E-03 0.  1.
</event>
<event>
 8    1  0.2837913E+004  0.1043930E+01  0.7957747E-01            NaN
         13   -1    0    0    0    0  0.00000000000E+00  0.00000000000E+00  0.74505805969E-08  0.10566000000E+00  0.10566000000E+00 0.  1.
     999900   -1    0    0    0    0 -0.00000000000E+00 -0.00000000000E+00 -0.74505805969E-08  0.93827000000E+00  0.93827000000E+00 0. -1.
     999902    2    1    2    0    0 -0.79763514757E-03 -0.54221079679E-02 -0.10440441305E-01  0.10321385501E+01  0.10320711934E+01 0.  0.
     999903    2    3    3    0    0 -0.58410181306E-01 -0.16782044959E-01 -0.12182255729E+00  0.14317610464E+00  0.44331424095E-01 0.  0.
         14    1    1    2    0    0  0.79763514757E-03  0.54221079679E-02  0.10440441305E-01  0.11791449923E-01  0.00000000000E+00 0.  1.
     999901    1    3    3    0    0  0.57612546158E-01  0.11359936991E-01  0.11138211598E+00  0.88896244544E+00  0.88000000000E+00 0.  1.
        -11    1    4    4    0    0 -0.52696788604E-01 -0.27738947414E-02 -0.11508446154E+00  0.12660703152E+00  0.51100000000E-03 0. -1.
         11    1    4    4    0    0 -0.57133927015E-02 -0.14008150217E-01 -0.67380957441E-02  0.16569073116E-01  0.51100000000E-03 0.  1.
</event>
<event>
 8    1  0.2837913E+004  0.1043930E+01  0.7957747E-01            NaN
         13   -1    0    0    0    0  0.00000000000E+00  0.00000000000E+00  0.74505805969E-08  0.10566000000E+00  0.10566000000E+00 0.  1.
     999900   -1    0    0    0    0 -0.00000000000E+00 -0.00000000000E+00 -0.74505805969E-08  0.93827000000E+00  0.93827000000E+00 0.  1.
     999902    2    1    2    0    0 -0.26271828335E-02 -0.75678842522E-02 -0.35179646710E-02  0.10351806550E+01  0.10351436797E+01 0.  0.
     999903    2    3    3    0    0 -0.38069688022E-02  0.13309478987E+00 -0.29833792031E-01  0.14362027989E+00  0.44810864157E-01 0.  0.
         14    1    1    2    0    0  0.26271828335E-02  0.75678842522E-02  0.35179646710E-02  0.87493449539E-02  0.00000000000E+00 0.  1.
     999901    1    3    3    0    0  0.11797859687E-02 -0.14066267412E+00  0.26315827360E-01  0.89156037516E+00  0.88000000000E+00 0. -1.
        -11    1    4    4    0    0  0.28057554098E-02  0.11873102797E-01  0.10070010706E-01  0.15827478323E-01  0.51100000000E-03 0.  1.
         11    1    4    4    0    0 -0.66127242120E-02  0.12122168707E+00 -0.39903802737E-01  0.12779280156E+00  0.51100000000E-03 0. -1.
</event>
<event>
 8    1  0.2837913E+004  0.1043930E+01  0.7957747E-01            NaN
         13   -1    0    0    0    0  0.00000000000E+00  0.00000000000E+00  0.74505805969E-08  0.10566000000E+00  0.10566000000E+00 0.  1.
     999900   -1    0    0    0    0 -0.00000000000E+00 -0.00000000000E+00 -0.74505805969E-08  0.93827000000E+00  0.93827000000E+00 0.  1.
     999902    2    1    2    0    0 -0.41214624953E-02  0.10236742421E-01  0.93388022354E-02  0.10294734937E+01  0.10293719850E+01 0.  0.
     999903    2    3    3    0    0  0.51792663296E-01 -0.20019559355E-01  0.12061973956E+00  0.14018991668E+00  0.44953625446E-01 0.  0.
         14    1    1    2    0    0  0.41214624953E-02 -0.10236742421E-01 -0.93388022354E-02  0.14456506344E-01  0.00000000000E+00 0. -1.
     999901    1    3    3    0    0 -0.55914125791E-01  0.30256301776E-01 -0.11128093732E+00  0.88928357697E+00  0.88000000000E+00 0.  1.
        -11    1    4    4    0    0  0.49478720513E-01 -0.46646501639E-02  0.61550049536E-01  0.79111139947E-01  0.51100000000E-03 0.  1.
         11    1    4    4    0    0  0.23139427831E-02 -0.15354909191E-01  0.59069690022E-01  0.61078776738E-01  0.51100000000E-03 0. -1.
</event>
<event>
 8    1  0.2837913E+004  0.1043930E+01  0.7957747E-01            NaN
         13   -1    0    0    0    0  0.00000000000E+00  0.00000000000E+00  0.74505805969E-08  0.10566000000E+00  0.10566000000E+00 0. -1.
     999900   -1    0    0    0    0 -0.00000000000E+00 -0.00000000000E+00 -0.74505805969E-08  0.93827000000E+00  0.93827000000E+00 0. -1.
     999902    2    1    2    0    0 -0.89866469761E-02  0.19810299319E-02  0.10254048816E-01  0.10301521257E+01  0.10300599848E+01 0.  0.
     999903    2    3    3    0    0 -0.11926846124E-01 -0.94987442587E-01 -0.90533990548E-01  0.13910231882E+00  0.44589099000E-01 0.  0.
         14    1    1    2    0    0  0.89866469761E-02 -0.19810299319E-02 -0.10254048816E-01  0.13777874313E-01  0.00000000000E+00 0.  1.
     999901    1    3    3    0    0  0.29401991484E-02  0.96968472519E-01  0.10078803936E+00  0.89104980686E+00  0.88000000000E+00 0.  1.
        -11    1    4    4    0    0  0.16469244974E-01 -0.37646044470E-01 -0.28742865040E-01  0.50148520477E-01  0.51100000000E-03 0. -1.
         11    1    4    4    0    0 -0.28396091099E-01 -0.57341398117E-01 -0.61791125508E-01  0.88953798347E-01  0.51100000000E-03 0.  1.
</event>
<event>
 8    1  0.2837913E+004  0.1043930E+01  0.7957747E-01            NaN
         13   -1    0    0    0    0  0.00000000000E+00  0.00000000000E+00  0.74505805969E-08  0.10566000000E+00  0.10566000000E+00 0. -1.
     999900   -1    0    0    0    0 -0.00000000000E+00 -0.00000000000E+00 -0.74505805969E-08  0.93827000000E+00  0.93827000000E+00 0. -1.
     999902    2    1    2    0    0 -0.10871393595E-01  0.83432097662E-02  0.16313687096E-02  0.10301293583E+01  0.10300369105E+01 0.  0.
     999903    2    3    3    0    0  0.12298401373E+00  0.46273511522E-01 -0.50173993279E-02  0.13917471074E+00  0.45586404905E-01 0.  0.
         14    1    1    2    0    0  0.10871393595E-01 -0.83432097662E-02 -0.16313687096E-02  0.13800641716E-01  0.00000000000E+00 0. -1.
     999901    1    3    3    0    0 -0.13385540733E+00 -0.37930301756E-01  0.66487680375E-02  0.89095464754E+00  0.88000000000E+00 0.  1.
        -11    1    4    4    0    0  0.64059709438E-01  0.15787847378E-01 -0.23933614791E-01  0.70185337044E-01  0.51100000000E-03 0.  1.
         11    1    4    4    0    0  0.58924304292E-01  0.30485664145E-01  0.18916215463E-01  0.68989373697E-01  0.51100000000E-03 0. -1.
</event>
<event>
 8    1  0.2837913E+004  0.1043930E+01  0.7957747E-01            NaN
         13   -1    0    0    0    0  0.00000000000E+00  0.00000000000E+00  0.74505805969E-08  0.10566000000E+00  0.10566000000E+00 0.  1.
     999900   -1    0    0    0    0 -0.00000000000E+00 -0.00000000000E+00 -0.74505805969E-08  0.93827000000E+00  0.93827000000E+00 0.  1.
     999902    2    1    2    0    0  0.82424680200E-02  0.68517657219E-02  0.85306781244E-02  0.10302311883E+01  0.10301401089E+01 0.  0.
     999903    2    3    3    0    0  0.20451438323E-01 -0.12687588473E+00 -0.28268337430E-01  0.13928432626E+00  0.45664791510E-01 0.  0.
         14    1    1    2    0    0 -0.82424680200E-02 -0.68517657219E-02 -0.85306781244E-02  0.13698811694E-01  0.00000000000E+00 0. -1.
     999901    1    3    3    0    0 -0.12208970303E-01  0.13372765045E+00  0.36799015554E-01  0.89094686205E+00  0.88000000000E+00 0. -1.
        -11    1    4    4    0    0  0.10858870685E-01 -0.12375568006E-01 -0.17255076951E-01  0.23855157883E-01  0.51100000000E-03 0.  1.
         11    1    4    4    0    0  0.95925676379E-02 -0.11450031672E+00 -0.11013260479E-01  0.11542916837E+00  0.51100000000E-03 0. -1.
</event>
<event>
 8    1  0.2837913E+004  0.1043930E+01  0.7957747E-01            NaN
         13   -1    0    0    0    0  0.00000000000E+00  0.00000000000E+00  0.74505805969E-08  0.10566000000E+00  0.10566000000E+00 0.  1.
     999900   -1    0    0    0    0 -0.00000000000E+00 -0.00000000000E+00 -0.74505805969E-08  0.93827000000E+00  0.93827000000E+00 0.  1.
     999902    2    1    2    0    0  0.57303219717E-02  0.99495740020E-03  0.11675458345E-01  0.10308861180E+01  0.10308035921E+01 0.  0.
     999903    2    3    3    0    0  0.27625039341E-01 -0.12062923712E+00 -0.48045155613E-01  0.14024681105E+00  0.45235775500E-01 0.  0.
         14    1    1    2    0    0 -0.57303219717E-02 -0.99495740020E-03 -0.11675458345E-01  0.13043882003E-01  0.00000000000E+00 0. -1.
     999901    1    3    3    0    0 -0.21894717370E-01  0.12162419452E+00  0.59720613958E-01  0.89063930694E+00  0.88000000000E+00 0. -1.
        -11    1    4    4    0    0  0.86843666668E-02 -0.36056377527E-02  0.46648534406E-02  0.10509083054E-01  0.51100000000E-03 0. -1.
         11    1    4    4    0    0  0.18940672675E-01 -0.11702359937E+00 -0.52710009053E-01  0.12973772800E+00  0.51100000000E-03 0.  1.
</event>
<event>
 8    1  0.2837913E+004  0.1043930E+01  0.7957747E-01            NaN
         13   -1    0    0    0    0  0.00000000000E+00  0.00000000000E+00  0.74505805969E-08  0.10566000000E+00  0.10566000000E+00 0.  1.
     999900   -1    0    0    0    0 -0.00000000000E+00 -0.00000000000E+00 -0.74505805969E-08  0.93827000000E+00  0.93827000000E+00 0.  1.
     999902    2    1    2    0    0 -0.81556289008E-02 -0.16081108975E-02  0.11350060038E-01  0.10298614476E+01  0.10297653505E+01 0.  0.
     999903    2    3    3    0    0 -0.84616850569E-01 -0.64182355722E-01  0.80829440551E-01  0.14161078544E+00  0.47337404943E-01 0.  0.
         14    1    1    2    0    0  0.81556289008E-02  0.16081108975E-02 -0.11350060038E-01  0.14068552388E-01  0.00000000000E+00 0. -1.
     999901    1    3    3    0    0  0.76461221668E-01  0.62574244825E-01 -0.69479380513E-01  0.88825066217E+00  0.88000000000E+00 0.  1.
        -11    1    4    4    0    0 -0.59105773950E-01 -0.57826982604E-01  0.37206927841E-01  0.90675625345E-01  0.51100000000E-03 0.  1.
         11    1    4    4    0    0 -0.25511076619E-01 -0.63553731179E-02  0.43622512709E-01  0.50935160094E-01  0.51100000000E-03 0. -1.
</event>
<event>
 8    1  0.2837913E+004  0.1043930E+01  0.7957747E-01            NaN
         13   -1    0    0    0    0  0.00000000000E+00  0.00000000000E+00  0.74505805969E-08  0.10566000000E+00  0.10566000000E+00 0. -1.
     999900   -1    0    0    0    0 -0.00000000000E+00 -0.00000000000E+00 -0.74505805969E-08  0.93827000000E+00  0.93827000000E+00 0.  1.
     999902    2    1    2    0    0 -0.29638851740E-03 -0.95959532126E-02  0.95288915673E-02  0.10304033619E+01  0.10303145725E+01 0.  0.
     999903    2    3    3    0    0 -0.50212092615E-01 -0.91075281927E-01 -0.83562491530E-01  0.14034917020E+00  0.43580251983E-01 0.  0.
         14    1    1    2    0    0  0.29638851740E-03  0.95959532126E-02 -0.95288915673E-02  0.13526638116E-01  0.00000000000E+00 0.  1.
     999901    1    3    3    0    0  0.49915704098E-01  0.81479328715E-01  0.93091383097E-01  0.89005419168E+00  0.88000000000E+00 0. -1.
        -11    1    4    4    0    0 -0.10019574920E-01 -0.18289514478E-01 -0.43092233345E-01  0.47875880327E-01  0.51100000000E-03 0.  1.
         11    1    4    4    0    0 -0.40192517695E-01 -0.72785767450E-01 -0.40470258185E-01  0.92473289876E-01  0.51100000000E-03 0. -1.
</event>
<event>
 8    1  0.2837913E+004  0.1043930E+01  0.7957747E-01            NaN
         13   -1    0    0    0    0  0.00000000000E+00  0.00000000000E+00  0.74505805969E-08  0.10566000000E+00  0.10566000000E+00 0. -1.
     999900   -1    0    0    0    0 -0.00000000000E+00 -0.00000000000E+00 -0.74505805969E-08  0.93827000000E+00  0.93827000000E+00 0.  1.
     999902    2    1    2    0    0  0.29342482834E-03  0.10014190063E-01 -0.13506981773E-01  0.10271130842E+01  0.10269754033E+01 0.  0.
     999903    2    3    3    0    0  0.12418446450E+00  0.25839341361E-01 -0.29134194144E-01  0.13815659769E+00  0.46357215544E-01 0.  0.
         14    1    1    2    0    0 -0.29342482834E-03 -0.10014190063E-01  0.13506981773E-01  0.16816915810E-01  0.00000000000E+00 0. -1.
     999901    1    3    3    0    0 -0.12389103967E+00 -0.15825151298E-01  0.15627212371E-01  0.88895648650E+00  0.88000000000E+00 0. -1.
        -11    1    4    4    0    0  0.11086752362E+00  0.37124742769E-01 -0.20601891676E-01  0.11872048425E+00  0.51100000000E-03 0.  1.
         11    1    4    4    0    0  0.13316940876E-01 -0.11285401408E-01 -0.85323024676E-02  0.19436113440E-01  0.51100000000E-03 0. -1.
</event>
<event>
 8    1  0.2837913E+004  0.1043930E+01  0.7957747E-01            NaN
         13   -1    0    0    0    0  0.00000000000E+00  0.00000000000E+00  0.74505805969E-08  0.10566000000E+00  0.10566000000E+00 0.  1.
     999900   -1    0    0    0    0 -0.00000000000E+00 -0.00000000000E+00 -0.74505805969E-08  0.93827000000E+00  0.93827000000E+00 0. -1.
     999902    2    1    2    0    0 -0.94993752837E-02 -0.10088517425E-02 -0.77570741949E-02  0.10316243869E+01  0.10315509913E+01 0.  0.
     999903    2    3    3    0    0  0.10600850103E+00  0.53581532676E-01  0.58635630868E-01  0.13992366874E+00  0.45074526425E-01 0.  0.
         14    1    1    2    0    0  0.94993752837E-02  0.10088517425E-02  0.77570741949E-02  0.12305613056E-01  0.00000000000E+00 0.  1.
     999901    1    3    3    0    0 -0.11550787631E+00 -0.54590384418E-01 -0.66392705063E-01  0.89170071820E+00  0.88000000000E+00 0. -1.
        -11    1    4    4    0    0  0.39172780767E-01  0.44723202058E-01  0.31069426685E-01  0.67083842696E-01  0.51100000000E-03 0.  1.
         11    1    4    4    0    0  0.66835720260E-01  0.88583306178E-02  0.27566204183E-01  0.72839826044E-01  0.51100000000E-03 0. -1.
</event>
<event>
 8    1  0.2837913E+004  0.1043930E+01  0.7957747E-01            NaN
         13   -1    0    0    0    0  0.00000000000E+00  0.00000000000E+00  0.74505805969E-08  0.10566000000E+00  0.10566000000E+00 0.  1.
     999900   -1    0    0    0    0 -0.00000000000E+00 -0.00000000000E+00 -0.74505805969E-08  0.93827000000E+00  0.93827000000E+00 0.  1.
     999902    2    1    2    0    0  0.17461478709E-02 -0.10387075317E-01  0.89965830595E-02  0.10300779650E+01  0.10299848228E+01 0.  0.
     999903    2    3    3    0    0 -0.12167739240E+00  0.12583770780E-01  0.44898451427E-01  0.14044322301E+00  0.52389778014E-01 0.  0.
         14    1    1    2    0    0 -0.17461478709E-02  0.10387075317E-01 -0.89965830595E-02  0.13852034969E-01  0.00000000000E+00 0. -1.
     999901    1    3    3    0    0  0.12342354027E+00 -0.22970846097E-01 -0.35901868368E-01  0.88963474202E+00  0.88000000000E+00 0. -1.
        -11    1    4    4    0    0 -0.92309300679E-01  0.22706488889E-01  0.52308831790E-01  0.10850376322E+00  0.51100000000E-03 0.  1.
         11    1    4    4    0    0 -0.29368091719E-01 -0.10122718109E-01 -0.74103803634E-02  0.31939459783E-01  0.51100000000E-03 0. -1.
</event>
<event>
 8    1  0.2837913E+004  0.1043930E+01  0.7957747E-01            NaN
         13   -1    0    0    0    0  0.00000000000E+00  0.00000000000E+00  0.74505805969E-08  0.10566000000E+00  0.10566000000E+00 0. -1.
     999900   -1    0    0    0    0 -0.00000000000E+00 -0.00000000000E+00 -0.74505805969E-08  0.93827000000E+00  0.93827000000E+00 0.  1.
     999902    2    1    2    0    0 -0.32088569604E-02  0.10614875541E-01  0.85811862619E-02  0.10299082632E+01  0.10298128089E+01 0.  0.
     999903    2    3    3    0    0  0.37149490285E-01  0.95701014093E-01  0.85013375681E-01  0.14158944274E+00  0.47765338109E-01 0.  0.
         14    1    1    2    0    0  0.32088569604E-02 -0.10614875541E-01 -0.85811862619E-02  0.14021736819E-01  0.00000000000E+00 0. -1.
     999901    1    3    3    0    0 -0.40358347246E-01 -0.85086138551E-01 -0.76432189419E-01  0.88831882044E+00  0.88000000000E+00 0.  1.
        -11    1    4    4    0    0  0.35829632467E-01  0.27944471505E-01  0.33030897750E-01  0.56177908270E-01  0.51100000000E-03 0. -1.
         11    1    4    4    0    0  0.13198578180E-02  0.67756542588E-01  0.51982477931E-01  0.85411534473E-01  0.51100000000E-03 0.  1.
</event>
<event>
 8    1  0.2837913E+004  0.1043930E+01  0.7957747E-01            NaN
         13   -1    0    0    0    0  0.00000000000E+00  0.00000000000E+00  0.74505805969E-08  0.10566000000E+00  0.10566000000E+00 0. -1.
     999900   -1    0    0    0    0 -0.00000000000E+00 -0.00000000000E+00 -0.74505805969E-08  0.93827000000E+00  0.93827000000E+00 0.  1.
     999902    2    1    2    0    0  0.16604185004E-01 -0.13699582340E-02  0.19121852844E-03  0.10272682981E+01  0.10271331676E+01 0.  0.
     999903    2    3    3    0    0 -0.82945726789E-01 -0.87088560734E-01  0.43527692504E-01  0.13646197027E+00  0.47568879657E-01 0.  0.
         14    1    1    2    0    0 -0.16604185004E-01  0.13699582340E-02 -0.19121852844E-03  0.16661701886E-01  0.00000000000E+00 0.  1.
     999901    1    3    3    0    0  0.99549911793E-01  0.85718602500E-01 -0.43336473975E-01  0.89080632785E+00  0.88000000000E+00 0. -1.
        -11    1    4    4    0    0 -0.32571716651E-01 -0.74335059284E-02  0.21310678100E-01  0.39630541986E-01  0.51100000000E-03 0. -1.
         11    1    4    4    0    0 -0.50374010137E-01 -0.79655054805E-01  0.22217014404E-01  0.96831428283E-01  0.51100000000E-03 0.  1.
</event>
<event>
 8    1  0.2837913E+004  0.1043930E+01  0.7957747E-01            NaN
         13   -1    0    0    0    0  0.00000000000E+00  0.00000000000E+00  0.74505805969E-08  0.10566000000E+00  0.10566000000E+00 0.  1.
     999900   -1    0    0    0    0 -0.00000000000E+00 -0.00000000000E+00 -0.74505805969E-08  0.93827000000E+00  0.93827000000E+00 0. -1.
     999902    2    1    2    0    0  0.73188833469E-02 -0.62655573950E-02  0.10797184135E-01  0.10294592554E+01  0.10293575453E+01 0.  0.
     999903    2    3    3    0    0 -0.56202486539E-01 -0.91803993869E-01 -0.75171232851E-01  0.13887385399E+00  0.45260803036E-01 0.  0.
         14    1    1    2    0    0 -0.73188833469E-02  0.62655573950E-02 -0.10797184135E-01  0.14470744561E-01  0.00000000000E+00 0. -1.
     999901    1    3    3    0    0  0.63521369886E-01  0.85538436474E-01  0.85968416986E-01  0.89058540144E+00  0.88000000000E+00 0.  1.
        -11    1    4    4    0    0 -0.21666847026E-01 -0.59547010238E-01 -0.20487504148E-01  0.66598030268E-01  0.51100000000E-03 0. -1.
         11    1    4    4    0    0 -0.34535639513E-01 -0.32256983632E-01 -0.54683728702E-01  0.72275823727E-01  0.51100000000E-03 0.  1.
</event>
<event>
 8    1  0.2837913E+004  0.1043930E+01  0.7957747E-01            NaN
         13   -1    0    0    0    0  0.00000000000E+00  0.00000000000E+00  0.74505805969E-08  0.10566000000E+00  0.10566000000E+00 0.  1.
     999900   -1    0    0    0    0 -0.00000000000E+00 -0.00000000000E+00 -0.74505805969E-08  0.93827000000E+00  0.93827000000E+00 0.  1.
     999902    2    1    2    0    0 -0.77954730535E-02 -0.11997683904E-01 -0.17966755113E-02  0.10295098106E+01  0.10294088149E+01 0.  0.
     999903    2    3    3    0    0  0.68269900529E-01 -0.11208682974E+00 -0.22133426980E-01  0.14034314365E+00  0.44520474621E-01 0.  0.
         14    1    1    2    0    0  0.77954730535E-02  0.11997683904E-01  0.17966755113E-02  0.14420189391E-01  0.00000000000E+00 0.  1.
     999901    1    3    3    0    0 -0.76065373583E-01  0.10008914583E+00  0.20336751469E-01  0.88916666696E+00  0.88000000000E+00 0.  1.
        -11    1    4    4    0    0  0.38258642949E-01 -0.23580411837E-01 -0.38064356526E-02  0.45105539084E-01  0.51100000000E-03 0. -1.
         11    1    4    4    0    0  0.30011257581E-01 -0.88506417901E-01 -0.18326991327E-01  0.95237604565E-01  0.51100000000E-03 0.  1.
</event>
<event>
 8    1  0.2837913E+004  0.1043930E+01  0.7957747E-01            NaN
         13   -1    0    0    0    0  0.00000000000E+00  0.00000000000E+00  0.74505805969E-08  0.10566000000E+00  0.10566000000E+00 0. -1.
     999900   -1    0    0    0    0 -0.00000000000E+00 -0.00000000000E+00 -0.74505805969E-08  0.93827000000E+00  0.93827000000E+00 0.  1.
     999902    2    1    2    0    0 -0.31726916080E-02 -0.56974579110E-02 -0.11755688611E-01  0.10304866666E+01  0.10303989746E+01 0.  0.
     999903    2    3    3    0    0 -0.12761865172E+00  0.21379195027E-01  0.31237563683E-01  0.14027974577E+00  0.44260947130E-01 0.  0.
         14    1    1    2    0    0  0.31726916080E-02  0.56974579110E-02  0.11755688611E-01  0.13443333419E-01  0.00000000000E+00 0. -1.
     999901    1    3    3    0    0  0.12444596011E+00 -0.27076652938E-01 -0.42993252294E-01  0.89020692081E+00  0.88000000000E+00 0. -1.
        -11    1    4    4    0    0 -0.98480537075E-01  0.18966232199E-01  0.42524826902E-01  0.10893464174E+00  0.51100000000E-03 0. -1.
         11    1    4    4    0    0 -0.29138114645E-01  0.24129628284E-02 -0.11287263219E-01  0.31345104030E-01  0.51100000000E-03 0.  1.
</event>
<event>
 8    1  0.2837913E+004  0.1043930E+01  0.7957747E-01            NaN
         13   -1    0    0    0    0  0.00000000000E+00  0.00000000000E+00  0.74505805969E-08  0.10566000000E+00  0.10566000000E+00 0. -1.
     999900   -1    0    0    0    0 -0.00000000000E+00 -0.00000000000E+00 -0.74505805969E-08  0.93827000000E+00  0.93827000000E+00 0.  1.
     999902    2    1    2    0    0 -0.18173359508E-02 -0.36342183631E-02  0.13298615482E-01  0.10300244821E+01  0.10299306144E+01 0.  0.
     999903    2    3    3    0    0 -0.52154001825E-01  0.12074332108E+00  0.17011460968E-01  0.13984622052E+00  0.44368751376E-01 0.  0.
         14    1    1    2    0    0  0.18173359508E-02  0.36342183631E-02 -0.13298615482E-01  0.13905517855E-01  0.00000000000E+00 0.  1.
     999901    1    3    3    0    0  0.50336665874E-01 -0.12437753944E+00 -0.37128454857E-02  0.89017826163E+00  0.88000000000E+00 0.  1.
        -11    1    4    4    0    0 -0.21423529480E-01  0.67201060664E-01  0.30180558110E-01  0.76720775404E-01  0.51100000000E-03 0. -1.
         11    1    4    4    0    0 -0.30730472345E-01  0.53542260412E-01 -0.13169097142E-01  0.63125445116E-01  0.51100000000E-03 0.  1.
</event>
<event>
 8    1  0.2837913E+004  0.1043930E+01  0.7957747E-01            NaN
         13   -1    0    0    0    0  0.00000000000E+00  0.00000000000E+00  0.74505805969E-08  0.10566000000E+00  0.10566000000E+00 0. -1.
     999900   -1    0    0    0    0 -0.00000000000E+00 -0.00000000000E+00 -0.74505805969E-08  0.93827000000E+00  0.93827000000E+00 0. -1.
     999902    2    1    2    0    0  0.92035244954E-02 -0.99853258187E-02 -0.33111835407E-02  0.10299523202E+01  0.10298574690E+01 0.  0.
     999903    2    3    3    0    0  0.51010133099E-01 -0.71211256433E-01 -0.10125968853E+00  0.14141964402E+00  0.45529270489E-01 0.  0.
         14    1    1    2    0    0 -0.92035244954E-02  0.99853258187E-02  0.33111835407E-02  0.13977679753E-01  0.00000000000E+00 0. -1.
     999901    1    3    3    0    0 -0.41806608603E-01  0.61225930615E-01  0.97948504986E-01  0.88853267623E+00  0.88000000000E+00 0. -1.
        -11    1    4    4    0    0  0.45985331333E-02 -0.41769722244E-01 -0.31036802141E-01  0.52243663841E-01  0.51100000000E-03 0.  1.
         11    1    4    4    0    0  0.46411599965E-01 -0.29441534189E-01 -0.70222886386E-01  0.89175980174E-01  0.51100000000E-03 0. -1.
</event>
<event>
 8    1  0.2837913E+004  0.1043930E+01  0.7957747E-01            NaN
         13   -1    0    0    0    0  0.00000000000E+00  0.00000000000E+00  0.74505805969E-08  0.10566000000E+00  0.10566000000E+00 0.  1.
     999900   -1    0    0    0    0 -0.00000000000E+00 -0.00000000000E+00 -0.74505805969E-08  0.93827000000E+00  0.93827000000E+00 0.  1.
     999902    2    1    2    0    0 -0.46414736600E-03  0.10173651979E-01 -0.93372049281E-02  0.10301132702E+01  0.10300206053E+01 0.  0.
     999903    2    3    3    0    0 -0.13171512530E+00  0.11973405334E-01 -0.12270485360E-01  0.14037248631E+00  0.45405213726E-01 0.  0.
         14    1    1    2    0    0  0.46414736600E-03 -0.10173651979E-01  0.93372049281E-02  0.13816729831E-01  0.00000000000E+00 0.  1.
     999901    1    3    3    0    0  0.13125097794E+00 -0.17997533549E-02  0.29332804316E-02  0.88974078386E+00  0.88000000000E+00 0. -1.
        -11    1    4    4    0    0 -0.11718069975E+00  0.84597735466E-02 -0.25703066565E-01  0.12026551008E+00  0.51100000000E-03 0.  1.
         11    1    4    4    0    0 -0.14534425557E-01  0.35136317871E-02  0.13432581205E-01  0.20106976238E-01  0.51100000000E-03 0. -1.
</event>
<event>
 8    1  0.2837913E+004  0.1043930E+01  0.7957747E-01            NaN
         13   -1    0    0    0    0  0.00000000000E+00  0.00000000000E+00  0.74505805969E-08  0.10566000000E+00  0.10566000000E+00 0.  1.
     999900   -1    0    0    0    0 -0.00000000000E+00 -0.00000000000E+00 -0.74505805969E-08  0.93827000000E+00  0.93827000000E+00 0.  1.
     999902    2    1    2    0    0 -0.17974062777E-02  0.81577058524E-02 -0.10418163991E-01  0.10305764621E+01  0.10304899452E+01 0.  0.
     999903    2    3    3    0    0 -0.12058488751E-01  0.12913444454E+00 -0.36054814883E-01  0.14187071832E+00  0.44791060751E-01 0.  0.
         14    1    1    2    0    0  0.17974062777E-02 -0.81577058524E-02  0.10418163991E-01  0.13353537922E-01  0.00000000000E+00 0.  1.
     999901    1    3    3    0    0  0.10261082473E-01 -0.12097673869E+00  0.25636650892E-01  0.88870574376E+00  0.88000000000E+00 0. -1.
        -11    1    4    4    0    0 -0.16641042026E-01  0.93968854662E-01 -0.64118200684E-02  0.95647490734E-01  0.51100000000E-03 0. -1.
         11    1    4    4    0    0  0.45825532747E-02  0.35165589877E-01 -0.29642994815E-01  0.46223227587E-01  0.51100000000E-03 0.  1.
</event>
<event>
 8    1  0.2837913E+004  0.1043930E+01  0.7957747E-01            NaN
         13   -1    0    0    0    0  0.00000000000E+00  0.00000000000E+00  0.74505805969E-08  0.10566000000E+00  0.10566000000E+00 0. -1.
     999900   -1    0    0    0    0 -0.00000000000E+00 -0.00000000000E+00 -0.74505805969E-08  0.93827000000E+00  0.93827000000E+00 0.  1.
     999902    2    1    2    0    0 -0.93688818804E-02  0.98203406029E-02  0.37784931629E-02  0.10298412794E+01  0.10297449047E+01 0.  0.
     999903    2    3    3    0    0  0.16314903169E-02  0.10828305631E+00  0.77815929796E-01  0.14119204794E+00  0.46389583182E-01 0.  0.
         14    1    1    2    0    0  0.93688818804E-02 -0.98203406029E-02 -0.37784931629E-02  0.14088720589E-01  0.00000000000E+00 0. -1.
     999901    1    3    3    0    0 -0.11000372197E-01 -0.98462715703E-01 -0.74037436633E-01  0.88864923147E+00  0.88000000000E+00 0.  1.
        -11    1    4    4    0    0 -0.16221424333E-01  0.90927176636E-01  0.66642229226E-01  0.11389615400E+00  0.51100000000E-03 0.  1.
         11    1    4    4    0    0  0.17852914650E-01  0.17355879670E-01  0.11173700569E-01  0.27295893941E-01  0.51100000000E-03 0. -1.
</event>
<event>
 8    1  0.2837913E+004  0.1043930E+01  0.7957747E-01            NaN
         13   -1    0    0    0    0  0.00000000000E+00  0.00000000000E+00  0.74505805969E-08  0.10566000000E+00  0.10566000000E+00 0. -1.
     999900   -1    0    0    0    0 -0.00000000000E+00 -0.00000000000E+00 -0.74505805969E-08  0.93827000000E+00  0.93827000000E+00 0.  1.
     999902    2    1    2    0    0  0.16358699454E-01  0.60405389490E-02  0.96699025867E-03  0.10264648854E+01  0.10263162917E+01 0.  0.
     999903    2    3    3    0    0 -0.10742069136E+00  0.22479794436E-01 -0.64984444876E-01  0.13520668569E+00  0.44870075667E-01 0.  0.
         14    1    1    2    0    0 -0.16358699454E-01 -0.60405389490E-02 -0.96699025867E-03  0.17465114623E-01  0.00000000000E+00 0.  1.
     999901    1    3    3    0    0  0.12377939081E+00 -0.16439255487E-01  0.65951435134E-01  0.89125819969E+00  0.88000000000E+00 0. -1.
        -11    1    4    4    0    0 -0.67234244246E-01  0.99341834990E-02 -0.63598647880E-01  0.93081581069E-01  0.51100000000E-03 0. -1.
         11    1    4    4    0    0 -0.40186447111E-01  0.12545610937E-01 -0.13857969962E-02  0.42125104623E-01  0.51100000000E-03 0.  1.
</event>
<event>
 8    1  0.2837913E+004  0.1043930E+01  0.7957747E-01            NaN
         13   -1    0    0    0    0  0.00000000000E+00  0.00000000000E+00  0.74505805969E-08  0.10566000000E+00  0.10566000000E+00 0. -1.
     999900   -1    0    0    0    0 -0.00000000000E+00 -0.00000000000E+00 -0.74505805969E-08  0.93827000000E+00  0.93827000000E+00 0.  1.
     999902    2    1    2    0    0  0.73485909230E-02 -0.10770278627E-01  0.55456001641E-02  0.10297612184E+01  0.10296637376E+01 0.  0.
     999903    2    3    3    0    0  0.11852658682E+00 -0.17868548078E-01 -0.57781119052E-01  0.14047993246E+00  0.45034619033E-01 0.  0.
         14    1    1    2    0    0 -0.73485909230E-02  0.10770278627E-01 -0.55456001641E-02  0.14168781579E-01  0.00000000000E+00 0.  1.
     999901    1    3    3    0    0 -0.11117799589E+00  0.70982694507E-02  0.63326719216E-01  0.88928128596E+00  0.88000000000E+00 0.  1.
        -11    1    4    4    0    0  0.94991917398E-01 -0.32177357800E-01 -0.48537500591E-01  0.11142260458E+00  0.51100000000E-03 0.  1.
         11    1    4    4    0    0  0.23534669418E-01  0.14308809723E-01 -0.92436184612E-02  0.29057327880E-01  0.51100000000E-03 0. -1.
</event>
<event>
 8    1  0.2837913E+004  0.1043930E+01  0.7957747E-01            NaN
         13   -1    0    0    0    0  0.00000000000E+00  0.00000000000E+00  0.74505805969E-08  0.10566000000E+00  0.10566000000E+00 0.  1.
     999900   -1    0    0    0    0 -0.00000000000E+00 -0.00000000000E+00 -0.74505805969E-08  0.93827000000E+00  0.93827000000E+00 0.  1.
     999902    2    1    2    0    0  0.87677905346E-02 -0.13209015648E-04 -0.10681778962E-01  0.10301106394E+01  0.10300179390E+01 0.  0.
     999903    2    3    3    0    0  0.40277571768E-01  0.68007928658E-01  0.10545271528E+00  0.13932056187E+00  0.45194940557E-01 0.  0.
         14    1    1    2    0    0 -0.87677905346E-02  0.13209015648E-04  0.10681778962E-01  0.13819360590E-01  0.00000000000E+00 0.  1.
     999901    1    3    3    0    0 -0.31509781233E-01 -0.68021137674E-01 -0.11613449425E+00  0.89079007754E+00  0.88000000000E+00 0.  1.
        -11    1    4    4    0    0  0.42550660058E-01  0.64054844872E-01  0.71326177175E-01  0.10488692242E+00  0.51100000000E-03 0. -1.
         11    1    4    4    0    0 -0.22730882899E-02  0.39530837861E-02  0.34126538110E-01  0.34433639456E-01  0.51100000000E-03 0.  1.
</event>
<event>
 8    1  0.2837913E+004  0.1043930E+01  0.7957747E-01            NaN
         13   -1    0    0    0    0  0.00000000000E+00  0.00000000000E+00  0.74505805969E-08  0.10566000000E+00  0.10566000000E+00 0.  1.
     999900   -1    0    0    0    0 -0.00000000000E+00 -0.00000000000E+00 -0.74505805969E-08  0.93827000000E+00  0.93827000000E+00 0. -1.
     999902    2    1    2    0    0 -0.10137917431E-02  0.34674263289E-02 -0.13144071481E-01  0.10302985131E+01  0.10302083327E+01 0.  0.
     999903    2    3    3    0    0  0.39122040792E-01 -0.11503370947E+00 -0.59883063351E-01  0.14022102347E+00  0.36230729461E-01 0.  0.
         14    1    1    2    0    0  0.10137917431E-02 -0.34674263289E-02  0.13144071481E-01  0.13631486864E-01  0.00000000000E+00 0.  1.
     999901    1    3    3    0    0 -0.40135832536E-01  0.11850113580E+00  0.46738991871E-01  0.89007748966E+00  0.88000000000E+00 0.  1.
        -11    1    4    4    0    0  0.33770820515E-01 -0.50022911974E-01 -0.19181688926E-01  0.63332127326E-01  0.51100000000E-03 0.  1.
         11    1    4    4    0    0  0.53512202775E-02 -0.65010797499E-01 -0.40701374425E-01  0.76888896149E-01  0.51100000000E-03 0. -1.
</event>
<event>
 8    1  0.2837913E+004  0.1043930E+01  0.7957747E-01            NaN
         13   -1    0    0    0    0  0.00000000000E+00  0.00000000000E+00  0.74505805969E-08  0.10566000000E+00  0.10566000000E+00 0.  1.
     999900   -1    0    0    0    0 -0.00000000000E+00 -0.00000000000E+00 -0.74505805969E-08  0.93827000000E+00  0.93827000000E+00 0. -1.
     999902    2    1    2    0    0  0.71509241599E-02 -0.11639198979E-01  0.20020481752E-02  0.10301236657E+01  0.10300311412E+01 0.  0.
     999903    2    3    3    0    0  0.12467693205E+00  0.36094737344E-01  0.27625233329E-01  0.14065897344E+00  0.46632883712E-01 0.  0.
         14    1    1    2    0    0 -0.71509241599E-02  0.11639198979E-01 -0.20020481752E-02  0.13806334275E-01  0.00000000000E+00 0.  1.
     999901    1    3    3    0    0 -0.11752600789E+00 -0.47733936323E-01 -0.25623185154E-01  0.88946469229E+00  0.88000000000E+00 0.  1.
        -11    1    4    4    0    0  0.10580154186E+00  0.19932114690E-01  0.61968492470E-02  0.10784209529E+00  0.51100000000E-03 0.  1.
         11    1    4    4    0    0  0.18875390191E-01  0.16162622654E-01  0.21428384082E-01  0.32816878146E-01  0.51100000000E-03 0. -1.
</event>
<event>
 8    1  0.2837913E+004  0.1043930E+01  0.7957747E-01            NaN
         13   -1    0    0    0    0  0.00000000000E+00  0.00000000000E+00  0.74505805969E-08  0.10566000000E+00  0.10566000000E+00 0.  1.
     999900   -1    0    0    0    0 -0.00000000000E+00 -0.00000000000E+00 -0.74505805969E-08  0.93827000000E+00  0.93827000000E+00 0. -1.
     999902    2    1    2    0    0 -0.90037375696E-02  0.13038285500E-01  0.53941507205E-02  0.10271919881E+01  0.10270556068E+01 0.  0.
     999903    2    3    3    0    0  0.10866052059E-01  0.12471900908E+00  0.39595432531E-01  0.13925217023E+00  0.46373120703E-01 0.  0.
         14    1    1    2    0    0  0.90037375696E-02 -0.13038285500E-01 -0.53941507205E-02  0.16738011859E-01  0.00000000000E+00 0. -1.
     999901    1    3    3    0    0 -0.19869789629E-01 -0.11168072357E+00 -0.34201281810E-01  0.88793981791E+00  0.88000000000E+00 0. -1.
        -11    1    4    4    0    0 -0.11630888783E-01  0.28298755916E-01  0.24281858613E-01  0.39063626802E-01  0.51100000000E-03 0.  1.
         11    1    4    4    0    0  0.22496940842E-01  0.96420253159E-01  0.15313573918E-01  0.10018854343E+00  0.51100000000E-03 0. -1.
</event>
<event>
 8    1  0.2837913E+004  0.1043930E+01  0.7957747E-01            NaN
         13   -1    0    0    0    0  0.00000000000E+00  0.00000000000E+00  0.74505805969E-08  0.10566000000E+00  0.10566000000E+00 0. -1.
     999900   -1    0    0    0    0 -0.00000000000E+00 -0.00000000000E+00 -0.74505805969E-08  0.93827000000E+00  0.93827000000E+00 0.  1.
     999902    2    1    2    0    0 -0.16202565976E-01 -0.63598866987E-02 -0.15221123992E-02  0.10264575036E+01  0.10263087833E+01 0.  0.
     999903    2    3    3    0    0 -0.16757212201E-01  0.25000261932E-01 -0.12574785954E+00  0.13717925539E+00  0.45823647516E-01 0.  0.
         14    1    1    2    0    0  0.16202565976E-01  0.63598866987E-02  0.15221123992E-02  0.17472496364E-01  0.00000000000E+00 0. -1.
     999901    1    3    3    0    0  0.55464622535E-03 -0.31360148631E-01  0.12422574714E+00  0.88927824825E+00  0.88000000000E+00 0. -1.
        -11    1    4    4    0    0  0.80426272720E-02  0.10035946171E-02 -0.77132814842E-01  0.77559160014E-01  0.51100000000E-03 0. -1.
         11    1    4    4    0    0 -0.24799839473E-01  0.23996667315E-01 -0.48615044700E-01  0.59620095374E-01  0.51100000000E-03 0.  1.
</event>
<event>
 8    1  0.2837913E+004  0.1043930E+01  0.7957747E-01            NaN
         13   -1    0    0    0    0  0.00000000000E+00  0.00000000000E+00  0.74505805969E-08  0.10566000000E+00  0.10566000000E+00 0. -1.
     999900   -1    0    0    0    0 -0.00000000000E+00 -0.00000000000E+00 -0.74505805969E-08  0.93827000000E+00  0.93827000000E+00 0.  1.
     999902    2    1    2    0    0  0.54351624444E-02 -0.67420362010E-02 -0.36982780332E-02  0.10345133497E+01  0.10344704913E+01 0.  0.
     999903    2    3    3    0    0  0.12031894275E+00  0.25511668818E-01 -0.61217314178E-01  0.14459929541E+00  0.45098818676E-01 0.  0.
         14    1    1    2    0    0 -0.54351624444E-02  0.67420362010E-02  0.36982780332E-02  0.94166503250E-02  0.00000000000E+00 0. -1.
     999901    1    3    3    0    0 -0.11488378031E+00 -0.32253705019E-01  0.57519036144E-01  0.88991405427E+00  0.88000000000E+00 0.  1.
        -11    1    4    4    0    0  0.69188139664E-01  0.17624483773E-01 -0.10533539008E-01  0.72172277665E-01  0.51100000000E-03 0.  1.
         11    1    4    4    0    0  0.51130803089E-01  0.78871850457E-02 -0.50683775170E-01  0.72427017741E-01  0.51100000000E-03 0. -1.
</event>
<event>
 8    1  0.2837913E+004  0.1043930E+01  0.7957747E-01            NaN
         13   -1    0    0    0    0  0.00000000000E+00  0.00000000000E+00  0.74505805969E-08  0.10566000000E+00  0.10566000000E+00 0. -1.
     999900   -1    0    0    0    0 -0.00000000000E+00 -0.00000000000E+00 -0.74505805969E-08  0.93827000000E+00  0.93827000000E+00 0.  1.
     999902    2    1    2    0    0  0.73216352086E-03  0.13188243272E-01 -0.22998150314E-02  0.10305227269E+01  0.10304355077E+01 0.  0.
     999903    2    3    3    0    0 -0.43541655964E-01  0.67960713094E-01  0.10635030624E+00  0.14104813846E+00  0.45493465437E-01 0.  0.
         14    1    1    2    0    0 -0.73216352086E-03 -0.13188243272E-01  0.22998150314E-02  0.13407273146E-01  0.00000000000E+00 0. -1.
     999901    1    3    3    0    0  0.44273819484E-01 -0.54772469822E-01 -0.10865012127E+00  0.88947458839E+00  0.88000000000E+00 0. -1.
        -11    1    4    4    0    0  0.35780801839E-03  0.40276987588E-01  0.53556706206E-01  0.67014518251E-01  0.51100000000E-03 0.  1.
         11    1    4    4    0    0 -0.43899463982E-01  0.27683725506E-01  0.52793600036E-01  0.74033620211E-01  0.51100000000E-03 0. -1.
</event>
<event>
 8    1  0.2837913E+004  0.1043930E+01  0.7957747E-01            NaN
         13   -1    0    0    0    0  0.00000000000E+00  0.00000000000E+00  0.74505805969E-08  0.10566000000E+00  0.10566000000E+00 0. -1.
     999900   -1    0    0    0    0 -0.00000000000E+00 -0.00000000000E+00 -0.74505805969E-08  0.93827000000E+00  0.93827000000E+00 0.  1.
     999902    2    1    2    0    0  0.37410156544E-02  0.30091725508E-03  0.13223314783E-01  0.10301843897E+01  0.10300926827E+01 0.  0.
     999903    2    3    3    0    0 -0.32159272790E-01 -0.12561757379E-01 -0.12626952899E+00  0.13838142233E+00  0.44871009785E-01 0.  0.
         14    1    1    2    0    0 -0.37410156544E-02 -0.30091725508E-03 -0.13223314783E-01  0.13745610323E-01  0.00000000000E+00 0.  1.
     999901    1    3    3    0    0  0.35900288445E-01  0.12862674635E-01  0.13949284377E+00  0.89180296735E+00  0.88000000000E+00 0. -1.
        -11    1    4    4    0    0 -0.19466557938E-01 -0.29194391889E-01 -0.69079486622E-01  0.77482230148E-01  0.51100000000E-03 0.  1.
         11    1    4    4    0    0 -0.12692714853E-01  0.16632634510E-01 -0.57190042368E-01  0.60899192180E-01  0.51100000000E-03 0. -1.
</event>
<event>
 8    1  0.2837913E+004  0.1043930E+01  0.7957747E-01            NaN
         13   -1    0    0    0    0  0.00000000000E+00  0.00000000000E+00  0.74505805969E-08  0.10566000000E+00  0.10566000000E+00 0.  1.
     999900   -1    0    0    0    0 -0.00000000000E+00 -0.00000000000E+00 -0.74505805969E-08  0.93827000000E+00  0.93827000000E+00 0. -1.
     999902    2    1    2    0    0 -0.17205833365E-02  0.10431784389E-01  0.90321959761E-02  0.10300244940E+01  0.10299306264E+01 0.  0.
     999903    2    3    3    0    0 -0.77598283044E-02 -0.12306979207E+00 -0.45177761274E-01  0.13828581993E+00  0.43307611601E-01 0.  0.
         14    1    1    2    0    0  0.17205833365E-02 -0.10431784389E-01 -0.90321959761E-02  0.13905505985E-01  0.00000000000E+00 0. -1.
     999901    1    3    3    0    0  0.60392449679E-02  0.13350157646E+00  0.54209957250E-01  0.89173867409E+00  0.88000000000E+00 0.  1.
        -11    1    4    4    0    0  0.12777335943E-01 -0.15577453058E-01 -0.73258299648E-03  0.20167180180E-01  0.51100000000E-03 0. -1.
         11    1    4    4    0    0 -0.20537164247E-01 -0.10749233902E+00 -0.44445178277E-01  0.11811863975E+00  0.51100000000E-03 0.  1.
</event>
<event>
 8    1  0.2837913E+004  0.1043930E+01  0.7957747E-01            NaN
         13   -1    0    0    0    0  0.00000000000E+00  0.00000000000E+00  0.74505805969E-08  0.10566000000E+00  0.10566000000E+00 0. -1.
     999900   -1    0    0    0    0 -0.00000000000E+00 -0.00000000000E+00 -0.74505805969E-08  0.93827000000E+00  0.93827000000E+00 0. -1.
     999902    2    1    2    0    0  0.11955779961E-02 -0.13262220873E-01 -0.38283201268E-02  0.10300746060E+01  0.10299814182E+01 0.  0.
     999903    2    3    3    0    0 -0.54825594103E-02  0.12415459953E+00 -0.41933665025E-01  0.13857026084E+00  0.44708633199E-01 0.  0.
         14    1    1    2    0    0 -0.11955779961E-02  0.13262220873E-01  0.38283201268E-02  0.13855394048E-01  0.00000000000E+00 0. -1.
     999901    1    3    3    0    0  0.66781374065E-02 -0.13741682041E+00  0.38105344898E-01  0.89150434512E+00  0.88000000000E+00 0. -1.
        -11    1    4    4    0    0 -0.13064022129E-01  0.85310714044E-01 -0.84364414328E-02  0.86718056193E-01  0.51100000000E-03 0.  1.
         11    1    4    4    0    0  0.75814627188E-02  0.38843885491E-01 -0.33497223592E-01  0.51852204643E-01  0.51100000000E-03 0. -1.
</event>
<event>
 8    1  0.2837913E+004  0.1043930E+01  0.7957747E-01            NaN
         13   -1    0    0    0    0  0.00000000000E+00  0.00000000000E+00  0.74505805969E-08  0.10566000000E+00  0.10566000000E+00 0.  1.
     999900   -1    0    0    0    0 -0.00000000000E+00 -0.00000000000E+00 -0.74505805969E-08  0.93827000000E+00  0.93827000000E+00 0.  1.
     999902    2    1    2    0    0 -0.44767642756E-02 -0.77815525330E-02  0.83165982112E-02  0.10316923620E+01  0.10316197798E+01 0.  0.
     999903    2    3    3    0    0  0.11636934764E+00  0.20605354095E-01  0.62416376709E-01  0.14133491396E+00  0.45971166348E-01 0.  0.
         14    1    1    2    0    0  0.44767642756E-02  0.77815525330E-02 -0.83165982112E-02  0.12237638008E-01  0.00000000000E+00 0. -1.
     999901    1    3    3    0    0 -0.12084611191E+00 -0.28386906627E-01 -0.54099778498E-01  0.89035744803E+00  0.88000000000E+00 0.  1.
        -11    1    4    4    0    0  0.16267322151E-02  0.11426371153E-01  0.38156389257E-02  0.12166693751E-01  0.51100000000E-03 0. -1.
         11    1    4    4    0    0  0.11474261542E+00  0.91789829413E-02  0.58600737783E-01  0.12916822021E+00  0.51100000000E-03 0.  1.
</event>
<event>
 8    1  0.2837913E+004  0.1043930E+01  0.7957747E-01            NaN
         13   -1    0    0    0    0  0.00000000000E+00  0.00000000000E+00  0.74505805969E-08  0.10566000000E+00  0.10566000000E+00 0. -1.
     999900   -1    0    0    0    0 -0.00000000000E+00 -0.00000000000E+00 -0.74505805969E-08  0.93827000000E+00  0.93827000000E+00 0. -1.
     999902    2    1    2    0    0 -0.11981722351E-01  0.29904792674E-02  0.51965380241E-02  0.10305319164E+01  0.10304448176E+01 0.  0.
     999903    2    3    3    0    0 -0.13416108506E+00 -0.15185328975E-01  0.12116747959E-01  0.14187785211E+00  0.41865479534E-01 0.  0.
         14    1    1    2    0    0  0.11981722351E-01 -0.29904792674E-02 -0.51965380241E-02  0.13398083601E-01  0.00000000000E+00 0.  1.
     999901    1    3    3    0    0  0.12217936271E+00  0.18175808243E-01 -0.69202099353E-02  0.88865406429E+00  0.88000000000E+00 0.  1.
        -11    1    4    4    0    0 -0.41635641298E-01  0.10128932416E-01 -0.86773204563E-02  0.43722750480E-01  0.51100000000E-03 0. -1.
         11    1    4    4    0    0 -0.92525443762E-01 -0.25314261391E-01  0.20794068416E-01  0.98155101627E-01  0.51100000000E-03 0.  1.
</event>
<event>
 8    1  0.2837913E+004  0.1043930E+01  0.7957747E-01            NaN
         13   -1    0    0    0    0  0.00000000000E+00  0.00000000000E+00  0.74505805969E-08  0.10566000000E+00  0.10566000000E+00 0. -1.
     999900   -1    0    0    0    0 -0.00000000000E+00 -0.00000000000E+00 -0.74505805969E-08  0.93827000000E+00  0.93827000000E+00 0.  1.
     999902    2    1    2    0    0 -0.49002321835E-02  0.12576829319E-01 -0.40035170970E-02  0.10298510419E+01  0.10297548016E+01 0.  0.
     999903    2    3    3    0    0  0.63046713536E-01  0.46843951709E-01  0.10658065270E+00  0.13967135124E+00  0.44490526257E-01 0.  0.
         14    1    1    2    0    0  0.49002321835E-02 -0.12576829319E-01  0.40035170970E-02  0.14078958070E-01  0.00000000000E+00 0. -1.
     999901    1    3    3    0    0 -0.67946945720E-01 -0.34267122390E-01 -0.11058416980E+00  0.89017969069E+00  0.88000000000E+00 0.  1.
        -11    1    4    4    0    0  0.68285975498E-02  0.26462512529E-01  0.51812890634E-01  0.58580978744E-01  0.51100000000E-03 0.  1.
         11    1    4    4    0    0  0.56218115986E-01  0.20381439180E-01  0.54767762070E-01  0.81090372494E-01  0.51100000000E-03 0. -1.
</event>
<event>
 8    1  0.2837913E+004  0.1043930E+01  0.7957747E-01            NaN
         13   -1    0    0    0    0  0.00000000000E+00  0.00000000000E+00  0.74505805969E-08  0.10566000000E+00  0.10566000000E+00 0.  1.
     999900   -1    0    0    0    0 -0.00000000000E+00 -0.00000000000E+00 -0.74505805969E-08  0.93827000000E+00  0.93827000000E+00 0.  1.
     999902    2    1    2    0    0 -0.86314858213E-02 -0.30927054729E-02 -0.70109155996E-02  0.10323878896E+01  0.10323233671E+01 0.  0.
     999903    2    3    3    0    0  0.46051284900E-01  0.47631118775E-01  0.11552378243E+00  0.14077257796E+00  0.45625980334E-01 0.  0.
         14    1    1    2    0    0  0.86314858213E-02  0.30927054729E-02  0.70109155996E-02  0.11542110386E-01  0.00000000000E+00 0.  1.
     999901    1    3    3    0    0 -0.54682770721E-01 -0.50723824248E-01 -0.12253469803E+00  0.89161531166E+00  0.88000000000E+00 0.  1.
        -11    1    4    4    0    0 -0.16491138901E-02  0.18259268584E-01  0.90304670880E-02  0.20443358889E-01  0.51100000000E-03 0. -1.
         11    1    4    4    0    0  0.47700398790E-01  0.29371850191E-01  0.10649331534E+00  0.12032921907E+00  0.51100000000E-03 0.  1.
</event>
<event>
 8    1  0.2837913E+004  0.1043930E+01  0.7957747E-01            NaN
         13   -1    0    0    0    0  0.00000000000E+00  0.00000000000E+00  0.74505805969E-08  0.10566000000E+00  0.10566000000E+00 0. -1.
     999900   -1    0    0    0    0 -0.00000000000E+00 -0.00000000000E+00 -0.74505805969E-08  0.93827000000E+00  0.93827000000E+00 0. -1.
     999902    2    1    2    0    0 -0.12910933397E-01  0.38975133703E-02 -0.38000912538E-02  0.10299184510E+01  0.10298231364E+01 0.  0.
     999903    2    3    3    0    0  0.11191193140E+00  0.35283590243E-01  0.59228928783E-01  0.13832521933E+00  0.43088144170E-01 0.  0.
         14    1    1    2    0    0  0.12910933397E-01 -0.38975133703E-02  0.38000912538E-02  0.14011548993E-01  0.00000000000E+00 0. -1.
     999901    1    3    3    0    0 -0.12482286480E+00 -0.31386076873E-01 -0.63029020037E-01  0.89159323167E+00  0.88000000000E+00 0. -1.
        -11    1    4    4    0    0  0.77008597550E-01  0.36810735324E-01  0.58312141698E-01  0.10337273007E+00  0.51100000000E-03 0.  1.
         11    1    4    4    0    0  0.34903333853E-01 -0.15271450808E-02  0.91678708507E-03  0.34952489264E-01  0.51100000000E-03 0. -1.
</event>
<event>
 8    1  0.2837913E+004  0.1043930E+01  0.7957747E-01            NaN
         13   -1    0    0    0    0  0.00000000000E+00  0.00000000000E+00  0.74505805969E-08  0.10566000000E+00  0.10566000000E+00 0. -1.
     999900   -1    0    0    0    0 -0.00000000000E+00 -0.00000000000E+00 -0.74505805969E-08  0.93827000000E+00  0.93827000000E+00 0. -1.
     999902    2    1    2    0    0 -0.90802076177E-02 -0.95416807620E-02  0.31679912291E-02  0.10303826752E+01  0.10302936122E+01 0.  0.
     999903    2    3    3    0    0 -0.21220987059E-01  0.72462577616E-01 -0.10810641300E+00  0.13951001873E+00  0.45550997237E-01 0.  0.
         14    1    1    2    0    0  0.90802076177E-02  0.95416807620E-02 -0.31679912291E-02  0.13547324849E-01  0.00000000000E+00 0.  1.
     999901    1    3    3    0    0  0.12140779442E-01 -0.82004258378E-01  0.11127440423E+00  0.89087265642E+00  0.88000000000E+00 0. -1.
        -11    1    4    4    0    0  0.10017313721E-01  0.56333320724E-02 -0.45665023883E-02  0.12377199582E-01  0.51100000000E-03 0.  1.
         11    1    4    4    0    0 -0.31238300780E-01  0.66829245544E-01 -0.10353991061E+00  0.12713281915E+00  0.51100000000E-03 0. -1.
</event>
<event>
 8    1  0.2837913E+004  0.1043930E+01  0.7957747E-01            NaN
         13   -1    0    0    0    0  0.00000000000E+00  0.00000000000E+00  0.74505805969E-08  0.10566000000E+00  0.10566000000E+00 0.  1.
     999900   -1    0    0    0    0 -0.00000000000E+00 -0.00000000000E+00 -0.74505805969E-08  0.93827000000E+00  0.93827000000E+00 0.  1.
     999902    2    1    2    0    0 -0.31547377139E-02  0.12820407679E-01 -0.44059330316E-02  0.10300113985E+01  0.10299173527E+01 0.  0.
     999903    2    3    3    0    0  0.70958727636E-01  0.79513758727E-01 -0.81678731208E-01  0.14101651987E+00  0.43089034434E-01 0.  0.
         14    1    1    2    0    0  0.31547377139E-02 -0.12820407679E-01  0.44059330316E-02  0.13918601545E-01  0.00000000000E+00 0.  1.
     999901    1    3    3    0    0 -0.74113465350E-01 -0.66693351048E-01  0.77272798177E-01  0.88899487859E+00  0.88000000000E+00 0. -1.
        -11    1    4    4    0    0  0.37483899677E-01  0.40783658335E-01 -0.68608612236E-01  0.88180226333E-01  0.51100000000E-03 0.  1.
         11    1    4    4    0    0  0.33474827959E-01  0.38730100392E-01 -0.13070118972E-01  0.52836293532E-01  0.51100000000E-03 0. -1.
</event>
<event>
 8    1  0.2837913E+004  0.1043930E+01  0.7957747E-01            NaN
         13   -1    0    0    0    0  0.00000000000E+00  0.00000000000E+00  0.74505805969E-08  0.10566000000E+00  0.10566000000E+00 0. -1.
     999900   -1    0    0    0    0 -0.00000000000E+00 -0.00000000000E+00 -0.74505805969E-08  0.93827000000E+00  0.93827000000E+00 0.  1.
     999902    2    1    2    0    0 -0.51785992781E-02 -0.10873076700E-01 -0.60802670710E-02  0.10304388423E+01  0.10303505212E+01 0.  0.
     999903    2    3    3    0    0 -0.84243647345E-01  0.11593221929E-01  0.10183463611E+00  0.14004474828E+00  0.44842429662E-01 0.  0.
         14    1    1    2    0    0  0.51785992781E-02  0.10873076700E-01  0.60802670710E-02  0.13491157662E-01  0.00000000000E+00 0. -1.
     999901    1    3    3    0    0  0.79065048067E-01 -0.22466298629E-01 -0.10791490318E+00  0.89039409405E+00  0.88000000000E+00 0.  1.
        -11    1    4    4    0    0 -0.48248368305E-01  0.26740350448E-01  0.45568093716E-01  0.71551825078E-01  0.51100000000E-03 0. -1.
         11    1    4    4    0    0 -0.35995279040E-01 -0.15147128518E-01  0.56266542391E-01  0.68492923205E-01  0.51100000000E-03 0.  1.
</event>
<event>
 8    1  0.2837913E+004  0.1043930E+01  0.7957747E-01            NaN
         13   -1    0    0    0    0  0.00000000000E+00  0.00000000000E+00  0.74505805969E-08  0.10566000000E+00  0.10566000000E+00 0.  1.
     999900   -1    0    0    0    0 -0.00000000000E+00 -0.00000000000E+00 -0.74505805969E-08  0.93827000000E+00  0.93827000000E+00 0. -1.
     999902    2    1    2    0    0 -0.14368913055E-02  0.98499561797E-02 -0.38248952880E-02  0.10332662241E+01  0.10332111951E+01 0.  0.
     999903    2    3    3    0    0 -0.37831966471E-01 -0.57668374258E-01  0.11682017017E+00  0.14172903568E+00  0.41027653124E-01 0.  0.
         14    1    1    2    0    0  0.14368913055E-02 -0.98499561797E-02  0.38248952880E-02  0.10663775941E-01  0.00000000000E+00 0.  1.
     999901    1    3    3    0    0  0.36395075165E-01  0.67518330437E-01 -0.12064506545E+00  0.89153718838E+00  0.88000000000E+00 0.  1.
        -11    1    4    4    0    0 -0.22808166755E-01 -0.60746994396E-01  0.95593432258E-01  0.11553689978E+00  0.51100000000E-03 0. -1.
         11    1    4    4    0    0 -0.15023799716E-01  0.30786201381E-02  0.21226737909E-01  0.26192135902E-01  0.51100000000E-03 0.  1.
</event>
<event>
 8    1  0.2837913E+004  0.1043930E+01  0.7957747E-01            NaN
         13   -1    0    0    0    0  0.00000000000E+00  0.00000000000E+00  0.74505805969E-08  0.10566000000E+00  0.10566000000E+00 0.  1.
     999900   -1    0    0    0    0 -0.00000000000E+00 -0.00000000000E+00 -0.74505805969E-08  0.93827000000E+00  0.93827000000E+00 0. -1.
     999902    2    1    2    0    0 -0.73428616147E-02  0.11097885447E-01  0.62476124522E-02  0.10292292062E+01  0.10291242129E+01 0.  0.
     999903    2    3    3    0    0 -0.33490812227E-03  0.13089055627E+00 -0.22314768537E-01  0.14062625490E+00  0.46317866828E-01 0.  0.
         14    1    1    2    0    0  0.73428616147E-02 -0.11097885447E-01 -0.62476124522E-02  0.14700793837E-01  0.00000000000E+00 0. -1.
     999901    1    3    3    0    0 -0.70079534925E-02 -0.11979267082E+00  0.28562380989E-01  0.88860295127E+00  0.88000000000E+00 0.  1.
        -11    1    4    4    0    0 -0.20556262179E-01  0.45255194536E-01 -0.16767919657E-01  0.52459668297E-01  0.51100000000E-03 0.  1.
         11    1    4    4    0    0  0.20221354057E-01  0.85635361732E-01 -0.55468488799E-02  0.88166586598E-01  0.51100000000E-03 0. -1.
</event>
<event>
 8    1  0.2837913E+004  0.1043930E+01  0.7957747E-01            NaN
         13   -1    0    0    0    0  0.00000000000E+00  0.00000000000E+00  0.74505805969E-08  0.10566000000E+00  0.10566000000E+00 0. -1.
     999900   -1    0    0    0    0 -0.00000000000E+00 -0.00000000000E+00 -0.74505805969E-08  0.93827000000E+00  0.93827000000E+00 0.  1.
     999902    2    1    2    0    0 -0.54694558686E-02  0.12612249031E-01  0.57096097751E-03  0.10301710113E+01  0.10300791245E+01 0.  0.
     999903    2    3    3    0    0 -0.71604255086E-02  0.64883928462E-01 -0.11627325835E+00  0.14090853070E+00  0.45547201343E-01 0.  0.
         14    1    1    2    0    0  0.54694558686E-02 -0.12612249031E-01 -0.57096097751E-03  0.13758988682E-01  0.00000000000E+00 0. -1.
     999901    1    3    3    0    0  0.16909696400E-02 -0.52271679431E-01  0.11684421933E+00  0.88926248062E+00  0.88000000000E+00 0. -1.
        -11    1    4    4    0    0 -0.10613612708E-01  0.12211251619E-01 -0.66195902763E-01  0.68146328620E-01  0.51100000000E-03 0.  1.
         11    1    4    4    0    0  0.34531871999E-02  0.52672676843E-01 -0.50077355587E-01  0.72762202078E-01  0.51100000000E-03 0. -1.
</event>
<event>
 8    1  0.2837913E+004  0.1043930E+01  0.7957747E-01            NaN
         13   -1    0    0    0    0  0.00000000000E+00  0.00000000000E+00  0.74505805969E-08  0.10566000000E+00  0.10566000000E+00 0.  1.
     999900   -1    0    0    0    0 -0.00000000000E+00 -0.00000000000E+00 -0.74505805969E-08  0.93827000000E+00  0.93827000000E+00 0. -1.
     999902    2    1    2    0    0 -0.67850931376E-02  0.73181453423E-03  0.14314812696E-01  0.10280716614E+01  0.10279493441E+01 0.  0.
     999903    2    3    3    0    0  0.31933495447E-01  0.55849264914E-02 -0.12358968708E+00  0.13647739667E+00  0.47965920335E-01 0.  0.
         14    1    1    2    0    0  0.67850931376E-02 -0.73181453423E-03 -0.14314812696E-01  0.15858338624E-01  0.00000000000E+00 0. -1.
     999901    1    3    3    0    0 -0.38718588585E-01 -0.48531119571E-02  0.13790449978E+00  0.89159426471E+00  0.88000000000E+00 0.  1.
        -11    1    4    4    0    0  0.67928848709E-02  0.22763461957E-01 -0.78883338798E-01  0.82384226319E-01  0.51100000000E-03 0.  1.
         11    1    4    4    0    0  0.25140610576E-01 -0.17178535466E-01 -0.44706348283E-01  0.54093170351E-01  0.51100000000E-03 0. -1.
</event>
<event>
 8    1  0.2837913E+004  0.1043930E+01  0.7957747E-01            NaN
         13   -1    0    0    0    0  0.00000000000E+00  0.00000000000E+00  0.74505805969E-08  0.10566000000E+00  0.10566000000E+00 0.  1.
     999900   -1    0    0    0    0 -0.00000000000E+00 -0.00000000000E+00 -0.74505805969E-08  0.93827000000E+00  0.93827000000E+00 0.  1.
     999902    2    1    2    0    0 -0.68290985586E-02 -0.96107071806E-02  0.74083117625E-02  0.10300057276E+01  0.10299116047E+01 0.  0.
     999903    2    3    3    0    0  0.13583897403E-01  0.13075788295E+00 -0.16608886751E-02  0.13860105970E+00  0.43878798698E-01 0.  0.
         14    1    1    2    0    0  0.68290985586E-02  0.96107071806E-02 -0.74083117625E-02  0.13924272434E-01  0.00000000000E+00 0. -1.
     999901    1    3    3    0    0 -0.20412995961E-01 -0.14036859013E+00  0.90692004376E-02  0.89140466787E+00  0.88000000000E+00 0.  1.
        -11    1    4    4    0    0  0.22371269076E-01  0.11567816640E+00 -0.11796615516E-01  0.11841171023E+00  0.51100000000E-03 0.  1.
         11    1    4    4    0    0 -0.87873716730E-02  0.15079716556E-01  0.10135726841E-01  0.20189349468E-01  0.51100000000E-03 0. -1.
</event>
<event>
 8    1  0.2837913E+004  0.1043930E+01  0.7957747E-01            NaN
         13   -1    0    0    0    0  0.00000000000E+00  0.00000000000E+00  0.74505805969E-08  0.10566000000E+00  0.10566000000E+00 0. -1.
     999900   -1    0    0    0    0 -0.00000000000E+00 -0.00000000000E+00 -0.74505805969E-08  0.93827000000E+00  0.93827000000E+00 0.  1.
     999902    2    1    2    0    0 -0.36261823894E-02  0.13694769168E-01  0.54818055742E-02  0.10287396710E+01  0.10286275150E+01 0.  0.
     999903    2    3    3    0    0 -0.43165677458E-01  0.19701595667E-01  0.12396006634E+00  0.13989966750E+00  0.44208487167E-01 0.  0.
         14    1    1    2    0    0  0.36261823894E-02 -0.13694769168E-01 -0.54818055742E-02  0.15190328951E-01  0.00000000000E+00 0.  1.
     999901    1    3    3    0    0  0.39539495069E-01 -0.60068264989E-02 -0.11847826076E+00  0.88884000355E+00  0.88000000000E+00 0.  1.
        -11    1    4    4    0    0 -0.11176035158E-01 -0.93276529200E-02  0.66129474097E-01  0.67714675929E-01  0.51100000000E-03 0.  1.
         11    1    4    4    0    0 -0.31989642300E-01  0.29029248587E-01  0.57830592242E-01  0.72184991571E-01  0.51100000000E-03 0. -1.
</event>
<event>
 8    1  0.2837913E+004  0.1043930E+01  0.7957747E-01            NaN
         13   -1    0    0    0    0  0.00000000000E+00  0.00000000000E+00  0.74505805969E-08  0.10566000000E+00  0.10566000000E+00 0. -1.
     999900   -1    0    0    0    0 -0.00000000000E+00 -0.00000000000E+00 -0.74505805969E-08  0.93827000000E+00  0.93827000000E+00 0.  1.
     999902    2    1    2    0    0 -0.13419808476E-01  0.11460306371E-02 -0.18862326952E-02  0.10303299074E+01  0.10302401446E+01 0.  0.
     999903    2    3    3    0    0  0.28147115039E-02  0.57088065146E-01  0.11980051201E+00  0.14004864019E+00  0.44659703948E-01 0.  0.
         14    1    1    2    0    0  0.13419808476E-01 -0.11460306371E-02  0.18862326952E-02  0.13600092629E-01  0.00000000000E+00 0.  1.
     999901    1    3    3    0    0 -0.16234519980E-01 -0.55942034509E-01 -0.12168674471E+00  0.89028126719E+00  0.88000000000E+00 0.  1.
        -11    1    4    4    0    0  0.56560219362E-02  0.52462985554E-01  0.59608608914E-01  0.79610318521E-01  0.51100000000E-03 0.  1.
         11    1    4    4    0    0 -0.28413104322E-02  0.46250795927E-02  0.60191903097E-01  0.60438321664E-01  0.51100000000E-03 0. -1.
</event>
<event>
 8    1  0.2837913E+004  0.1043930E+01  0.7957747E-01            NaN
         13   -1    0    0    0    0  0.00000000000E+00  0.00000000000E+00  0.74505805969E-08  0.10566000000E+00  0.10566000000E+00 0.  1.
     999900   -1    0    0    0    0 -0.00000000000E+00 -0.00000000000E+00 -0.74505805969E-08  0.93827000000E+00  0.93827000000E+00 0.  1.
     999902    2    1    2    0    0  0.56008463747E-02 -0.17081522098E-03  0.13015216029E-01  0.10297598022E+01  0.10296623018E+01 0.  0.
     999903    2    3    3    0    0 -0.92798179369E-01 -0.21926418148E-01 -0.91080256332E-01  0.13791253841E+00  0.40397837200E-01 0.  0.
         14    1    1    2    0    0 -0.56008463747E-02  0.17081522098E-03 -0.13015216029E-01  0.14170197820E-01  0.00000000000E+00 0. -1.
     999901    1    3    3    0    0  0.98399025744E-01  0.21755602927E-01  0.10409547236E+00  0.89184726377E+00  0.88000000000E+00 0. -1.
        -11    1    4    4    0    0 -0.53572724386E-01  0.53106349587E-02 -0.34823843942E-01  0.64118646817E-01  0.51100000000E-03 0.  1.
         11    1    4    4    0    0 -0.39225454984E-01 -0.27237053107E-01 -0.56256412390E-01  0.73793891594E-01  0.51100000000E-03 0. -1.
</event>
<event>
 8    1  0.2837913E+004  0.1043930E+01  0.7957747E-01            NaN
         13   -1    0    0    0    0  0.00000000000E+00  0.00000000000E+00  0.74505805969E-08  0.10566000000E+00  0.10566000000E+00 0.  1.
     999900   -1    0    0    0    0 -0.00000000000E+00 -0.00000000000E+00 -0.74505805969E-08  0.93827000000E+00  0.93827000000E+00 0. -1.
     999902    2    1    2    0    0 -0.95646040401E-02 -0.54707826176E-02 -0.78985872028E-02  0.10303727587E+01  0.10302835644E+01 0.  0.
     999903    2    3    3    0    0 -0.35444090637E-01  0.12370855180E+00 -0.32781860698E-01  0.14021758929E+00  0.45013693522E-01 0.  0.
         14    1    1    2    0    0  0.95646040401E-02  0.54707826176E-02  0.78985872028E-02  0.13557241338E-01  0.00000000000E+00 0.  1.
     999901    1    3    3    0    0  0.25879486597E-01 -0.12917933442E+00  0.24883273495E-01  0.89015516938E+00  0.88000000000E+00 0.  1.
        -11    1    4    4    0    0 -0.14270115601E-01  0.11032113021E+00 -0.27961530899E-01  0.11470177113E+00  0.51100000000E-03 0. -1.
         11    1    4    4    0    0 -0.21173975036E-01  0.13387421595E-01 -0.48203297984E-02  0.25515818155E-01  0.51100000000E-03 0.  1.
</event>
<event>
 8    1  0.2837913E+004  0.1043930E+01  0.7957747E-01            NaN
         13   -1    0    0    0    0  0.00000000000E+00  0.00000000000E+00  0.74505805969E-08  0.10566000000E+00  0.10566000000E+00 0.  1.
     999900   -1    0    0    0    0 -0.00000000000E+00 -0.00000000000E+00 -0.74505805969E-08  0.93827000000E+00  0.93827000000E+00 0. -1.
     999902    2    1    2    0    0  0.63603197328E-02  0.10376574788E-01 -0.68999083452E-02  0.10299394422E+01  0.10298444149E+01 0.  0.
     999903    2    3    3    0    0  0.62962232461E-01  0.54663419156E-03  0.11641985415E+00  0.13948553097E+00  0.44023736605E-01 0.  0.
         14    1    1    2    0    0 -0.63603197328E-02 -0.10376574788E-01  0.68999083452E-02  0.13990557766E-01  0.00000000000E+00 0.  1.
     999901    1    3    3    0    0 -0.56601912729E-01  0.98299405965E-02 -0.12331976250E+00  0.89045391126E+00  0.88000000000E+00 0. -1.
        -11    1    4    4    0    0  0.24655517798E-01  0.18625885216E-01  0.29175454484E-01  0.42500428508E-01  0.51100000000E-03 0.  1.
         11    1    4    4    0    0  0.38306714663E-01 -0.18079251024E-01  0.87244399668E-01  0.96985102466E-01  0.51100000000E-03 0. -1.
</event>
<event>
 8    1  0.2837913E+004  0.1043930E+01  0.7957747E-01            NaN
         13   -1    0    0    0    0  0.00000000000E+00  0.00000000000E+00  0.74505805969E-08  0.10566000000E+00  0.10566000000E+00 0. -1.
     999900   -1    0    0    0    0 -0.00000000000E+00 -0.00000000000E+00 -0.74505805969E-08  0.93827000000E+00  0.93827000000E+00 0.  1.
     999902    2    1    2    0    0  0.99021318629E-02  0.40397538790E-02 -0.90252686666E-02  0.10299361692E+01  0.10298410971E+01 0.  0.
     999903    2    3    3    0    0  0.91873866048E-01 -0.86698370241E-01 -0.43880000168E-01  0.14079747094E+00  0.44057448226E-01 0.  0.
         14    1    1    2    0    0 -0.99021318629E-02 -0.40397538790E-02  0.90252686666E-02  0.13993830831E-01  0.00000000000E+00 0. -1.
     999901    1    3    3    0    0 -0.81971734185E-01  0.90738124120E-01  0.34854731502E-01  0.88913869823E+00  0.88000000000E+00 0. -1.
        -11    1    4    4    0    0  0.31561686699E-02 -0.26217007997E-01 -0.85351974522E-02  0.27756145725E-01  0.51100000000E-03 0. -1.
         11    1    4    4    0    0  0.88717697378E-01 -0.60481362244E-01 -0.35344802716E-01  0.11304132522E+00  0.51100000000E-03 0.  1.
</event>
<event>
 8    1  0.2837913E+004  0.1043930E+01  0.7957747E-01            NaN
         13   -1    0    0    0    0  0.00000000000E+00  0.00000000000E+00  0.74505805969E-08  0.10566000000E+00  0.10566000000E+00 0.  1.
     999900   -1    0    0    0    0 -0.00000000000E+00 -0.00000000000E+00 -0.74505805969E-08  0.93827000000E+00  0.93827000000E+00 0. -1.
     999902    2    1    2    0    0  0.12305279241E-01  0.42358191693E-03  0.69917055258E-02  0.10297707887E+01  0.10296734405E+01 0.  0.
     999903    2    3    3    0    0 -0.44864383115E-01  0.11608316754E+00 -0.43019283304E-01  0.13895845770E+00  0.44392336851E-01 0.  0.
         14    1    1    2    0    0 -0.12305279241E-01 -0.42358191693E-03 -0.69917055258E-02  0.14159211312E-01  0.00000000000E+00 0. -1.
     999901    1    3    3    0    0  0.57169662356E-01 -0.11565958562E+00  0.50010988830E-01  0.89081233099E+00  0.88000000000E+00 0. -1.
        -11    1    4    4    0    0 -0.10913109119E-01  0.57445483270E-01 -0.40540362213E-01  0.71153788291E-01  0.51100000000E-03 0. -1.
         11    1    4    4    0    0 -0.33951273996E-01  0.58637684270E-01 -0.24789210908E-02  0.67804669406E-01  0.51100000000E-03 0.  1.
</event>
<event>
 7    1  0.2837913E+004  0.1043930E+01  0.7957747E-01            NaN
         13   -1    0    0    0    0  0.00000000000E+00  0.00000000000E+00  0.74505805969E-08  0.10566000000E+00  0.10566000000E+00 0.  1.
     999900   -1    0    0    0    0 -0.00000000000E+00 -0.00000000000E+00 -0.74505805969E-08  0.93827000000E+00  0.93827000000E+00 0.  1.
     999903    2    1    2    0    0 -0.81378489973E-01 -0.61342201600E-01 -0.38542349054E-01  0.11775896115E+00  0.44680375265E-01 0.  0.
         14    1    1    2    0    0 -0.13425943645E-01 -0.16632686164E-02  0.36404267269E-01  0.38836749357E-01  0.00000000000E+00 0.  1.
     999901    1    1    2    0    0  0.94804433618E-01  0.63005470217E-01  0.21380817854E-02  0.88733428949E+00  0.88000000000E+00 0.  1.
        -11    1    3    3    0    0 -0.12778913971E-01 -0.34500619180E-01 -0.62312451526E-02  0.37318666954E-01  0.51100000000E-03 0. -1.
         11    1    3    3    0    0 -0.68599576002E-01 -0.26841582420E-01 -0.32311103902E-01  0.80440294199E-01  0.51100000000E-03 0.  1.
</event>
<event>
 8    1  0.2837913E+004  0.1043930E+01  0.7957747E-01            NaN
         13   -1    0    0    0    0  0.00000000000E+00  0.00000000000E+00  0.74505805969E-08  0.10566000000E+00  0.10566000000E+00 0.  1.
     999900   -1    0    0    0    0 -0.00000000000E+00 -0.00000000000E+00 -0.74505805969E-08  0.93827000000E+00  0.93827000000E+00 0.  1.
     999902    2    1    2    0    0 -0.42127577826E-03  0.11666894919E-01 -0.43771006851E-02  0.10314619239E+01  0.10313865656E+01 0.  0.
     999903    2    3    3    0    0  0.93663411808E-01  0.63071905657E-01 -0.73590748940E-01  0.14225726095E+00  0.45504175293E-01 0.  0.
         14    1    1    2    0    0  0.42127577826E-03 -0.11666894919E-01  0.43771006851E-02  0.12468076064E-01  0.00000000000E+00 0. -1.
     999901    1    3    3    0    0 -0.94084687587E-01 -0.51405010738E-01  0.69213648255E-01  0.88920466298E+00  0.88000000000E+00 0.  1.
        -11    1    4    4    0    0  0.11964167590E-01  0.31443825524E-01 -0.14850471943E-01  0.36778432642E-01  0.51100000000E-03 0. -1.
         11    1    4    4    0    0  0.81699244218E-01  0.31628080133E-01 -0.58740276998E-01  0.10547882831E+00  0.51100000000E-03 0.  1.
</event>
<event>
 8    1  0.2837913E+004  0.1043930E+01  0.7957747E-01            NaN
         13   -1    0    0    0    0  0.00000000000E+00  0.00000000000E+00  0.74505805969E-08  0.10566000000E+00  0.10566000000E+00 0. -1.
     999900   -1    0    0    0    0 -0.00000000000E+00 -0.00000000000E+00 -0.74505805969E-08  0.93827000000E+00  0.93827000000E+00 0. -1.
     999902    2    1    2    0    0  0.78530596911E-02  0.89344108448E-02  0.13633507828E-01  0.10258367200E+01  0.10256771468E+01 0.  0.
     999903    2    3    3    0    0  0.18289988192E-01  0.84697234598E-01  0.98236017324E-01  0.13847742441E+00  0.44916998517E-01 0.  0.
         14    1    1    2    0    0 -0.78530596911E-02 -0.89344108448E-02 -0.13633507828E-01  0.18093279950E-01  0.00000000000E+00 0.  1.
     999901    1    3    3    0    0 -0.10436928500E-01 -0.75762823753E-01 -0.84602509496E-01  0.88735929564E+00  0.88000000000E+00 0. -1.
        -11    1    4    4    0    0 -0.97814506689E-02  0.57987426761E-01  0.57286798809E-01  0.82099067463E-01  0.51100000000E-03 0.  1.
         11    1    4    4    0    0  0.28071438860E-01  0.26709807837E-01  0.40949218515E-01  0.56378356950E-01  0.51100000000E-03 0. -1.
</event>
<event>
 7    1  0.2837913E+004  0.1043930E+01  0.7957747E-01            NaN
         13   -1    0    0    0    0  0.00000000000E+00  0.00000000000E+00  0.74505805969E-08  0.10566000000E+00  0.10566000000E+00 0. -1.
     999900   -1    0    0    0    0 -0.00000000000E+00 -0.00000000000E+00 -0.74505805969E-08  0.93827000000E+00  0.93827000000E+00 0. -1.
     999902    2    1    2    0    0  0.51852581010E-02  0.11914608525E-01 -0.58469430370E-02  0.10296810863E+01  0.10295824921E+01 0.  0.
         14    1    1    2    0    0 -0.51852581010E-02 -0.11914608525E-01  0.58469430370E-02  0.14248913669E-01  0.00000000000E+00 0.  1.
     999901    1    3    3    0    0 -0.97349997056E-01 -0.48555244562E-01 -0.62925697198E-02  0.88672105543E+00  0.88000000000E+00 0. -1.
        -11    1    3    3    0    0  0.10359055377E+00  0.38122468955E-01 -0.20543287794E-01  0.11227917556E+00  0.51100000000E-03 0. -1.
         11    1    3    3    0    0 -0.10552986164E-02  0.22347384133E-01  0.20988914477E-01  0.30680855344E-01  0.51100000000E-03 0.  1.
</event>
<event>
 8    1  0.2837913E+004  0.1043930E+01  0.7957747E-01            NaN
         13   -1    0    0    0    0  0.00000000000E+00  0.00000000000E+00  0.74505805969E-08  0.10566000000E+00  0.10566000000E+00 0.  1.
     999900   -1    0    0    0    0 -0.00000000000E+00 -0.00000000000E+00 -0.74505805969E-08  0.93827000000E+00  0.93827000000E+00 0.  1.
     999902    2    1    2    0    0  0.91489707418E-02 -0.10233512578E-01 -0.14872503856E-02  0.10301227425E+01  0.10300302055E+01 0.  0.
     999903    2    3    3    0    0  0.96286126179E-01 -0.12296105330E-02 -0.92446167343E-01  0.14110785025E+00  0.45744961571E-01 0.  0.
         14    1    1    2    0    0 -0.91489707418E-02  0.10233512578E-01  0.14872503856E-02  0.13807257477E-01  0.00000000000E+00 0. -1.
     999901    1    3    3    0    0 -0.87137155437E-01 -0.90039020451E-02  0.90958916958E-01  0.88901489227E+00  0.88000000000E+00 0. -1.
        -11    1    4    4    0    0  0.59642347991E-01  0.21108267584E-01 -0.48876127166E-01  0.79949393756E-01  0.51100000000E-03 0.  1.
         11    1    4    4    0    0  0.36643778188E-01 -0.22337878117E-01 -0.43570040177E-01  0.61158456494E-01  0.51100000000E-03 0. -1.
</event>
<event>
 8    1  0.2837913E+004  0.1043930E+01  0.7957747E-01            NaN
         13   -1    0    0    0    0  0.00000000000E+00  0.00000000000E+00  0.74505805969E-08  0.10566000000E+00  0.10566000000E+00 0.  1.
     999900   -1    0    0    0    0 -0.00000000000E+00 -0.00000000000E+00 -0.74505805969E-08  0.93827000000E+00  0.93827000000E+00 0. -1.
     999902    2    1    2    0    0  0.90578844988E-03 -0.12169709486E-01  0.71423618816E-02  0.10297901409E+01  0.10296930604E+01 0.  0.
     999903    2    3    3    0    0 -0.12598329636E+00  0.24848148389E-01  0.32831456208E-01  0.13954798778E+00  0.43663656945E-01 0.  0.
         14    1    1    2    0    0 -0.90578844988E-03  0.12169709486E-01 -0.71423618816E-02  0.14139859085E-01  0.00000000000E+00 0. -1.
     999901    1    3    3    0    0  0.12688908481E+00 -0.37017857876E-01 -0.25689094326E-01  0.89024215313E+00  0.88000000000E+00 0.  1.
        -11    1    4    4    0    0 -0.11357173709E-01  0.50018252243E-02  0.18575163378E-01  0.22345054615E-01  0.51100000000E-03 0. -1.
         11    1    4    4    0    0 -0.11462612265E+00  0.19846323165E-01  0.14256292830E-01  0.11720293317E+00  0.51100000000E-03 0.  1.
</event>
<event>
 8    1  0.2837913E+004  0.1043930E+01  0.7957747E-01            NaN
         13   -1    0    0    0    0  0.00000000000E+00  0.00000000000E+00  0.74505805969E-08  0.10566000000E+00  0.10566000000E+00 0.  1.
     999900   -1    0    0    0    0 -0.00000000000E+00 -0.00000000000E+00 -0.74505805969E-08  0.93827000000E+00  0.93827000000E+00 0. -1.
     999902    2    1    2    0    0 -0.87948580067E-02 -0.10547847576E-01 -0.17826204944E-02  0.10300813773E+01  0.10299882812E+01 0.  0.
     999903    2    3    3    0    0 -0.12092538129E+00  0.33909628294E-01  0.44940282062E-01  0.14062494155E+00  0.44530152724E-01 0.  0.
         14    1    1    2    0    0  0.87948580067E-02  0.10547847576E-01  0.17826204944E-02  0.13848622736E-01  0.00000000000E+00 0.  1.
     999901    1    3    3    0    0  0.11213052329E+00 -0.44457475870E-01 -0.46722902556E-01  0.88945643572E+00  0.88000000000E+00 0. -1.
        -11    1    4    4    0    0 -0.76312560711E-01  0.40738891483E-01  0.19010657894E-01  0.88571611909E-01  0.51100000000E-03 0. -1.
         11    1    4    4    0    0 -0.44612820583E-01 -0.68292631896E-02  0.25929624168E-01  0.52053329640E-01  0.51100000000E-03 0.  1.
</event>
<event>
 7    1  0.2837913E+004  0.1043930E+01  0.7957747E-01            NaN
         13   -1    0    0    0    0  0.00000000000E+00  0.00000000000E+00  0.74505805969E-08  0.10566000000E+00  0.10566000000E+00 0. -1.
     999900   -1    0    0    0    0 -0.00000000000E+00 -0.00000000000E+00 -0.74505805969E-08  0.93827000000E+00  0.93827000000E+00 0. -1.
     999903    2    1    2    0    0  0.80891591718E-01 -0.55213676164E-01 -0.54548551896E-01  0.12060618794E+00  0.44478179017E-01 0.  0.
         14    1    1    2    0    0 -0.35394618082E-01  0.14302362237E-01 -0.79278968830E-02  0.38989589684E-01  0.00000000000E+00 0.  1.
     999901    1    1    2    0    0 -0.45496973636E-01  0.40911313927E-01  0.62476448779E-01  0.88433422238E+00  0.88000000000E+00 0.  1.
        -11    1    3    3    0    0  0.55362020702E-01 -0.56274380840E-01 -0.52834371209E-01  0.94992058495E-01  0.51100000000E-03 0.  1.
         11    1    3    3    0    0  0.25529571016E-01  0.10607046761E-02 -0.17141806874E-02  0.25614129442E-01  0.51100000000E-03 0. -1.
</event>
<event>
 8    1  0.2837913E+004  0.1043930E+01  0.7957747E-01            NaN
         13   -1    0    0    0    0  0.00000000000E+00  0.00000000000E+00  0.74505805969E-08  0.10566000000E+00  0.10566000000E+00 0.  1.
     999900   -1    0    0    0    0 -0.00000000000E+00 -0.00000000000E+00 -0.74505805969E-08  0.93827000000E+00  0.93827000000E+00 0. -1.
     999902    2    1    2    0    0 -0.88174546822E-02  0.10162985725E-01  0.35738134294E-02  0.10300085802E+01  0.10299144962E+01 0.  0.
     999903    2    3    3    0    0  0.58427454343E-01  0.61597236402E-01 -0.10162286668E+00  0.13970879845E+00  0.44534867015E-01 0.  0.
         14    1    1    2    0    0  0.88174546822E-02 -0.10162985725E-01 -0.35738134294E-02  0.13921419768E-01  0.00000000000E+00 0. -1.
     999901    1    3    3    0    0 -0.67244909025E-01 -0.51434250677E-01  0.10519668011E+00  0.89029978178E+00  0.88000000000E+00 0.  1.
        -11    1    4    4    0    0  0.53381642043E-01  0.32469228031E-01 -0.85902436444E-01  0.10622306804E+00  0.51100000000E-03 0.  1.
         11    1    4    4    0    0  0.50458122994E-02  0.29128008372E-01 -0.15720430233E-01  0.33485730411E-01  0.51100000000E-03 0. -1.
</event>
<event>
 8    1  0.2837913E+004  0.1043930E+01  0.7957747E-01            NaN
         13   -1    0    0    0    0  0.00000000000E+00  0.00000000000E+00  0.74505805969E-08  0.10566000000E+00  0.10566000000E+00 0.  1.
     999900   -1    0    0    0    0 -0.00000000000E+00 -0.00000000000E+00 -0.74505805969E-08  0.93827000000E+00  0.93827000000E+00 0. -1.
     999902    2    1    2    0    0  0.81910113928E-02  0.91010309104E-02 -0.48829612162E-02  0.10307480145E+01  0.10306637205E+01 0.  0.
     999903    2    3    3    0    0  0.23397494869E-01  0.11041915747E+00  0.72561595059E-01  0.14142565495E+00  0.44678828295E-01 0.  0.
         14    1    1    2    0    0 -0.81910113928E-02 -0.91010309104E-02  0.48829612162E-02  0.13181985492E-01  0.00000000000E+00 0.  1.
     999901    1    3    3    0    0 -0.15206483476E-01 -0.10131812656E+00 -0.77444556275E-01  0.88932235956E+00  0.88000000000E+00 0. -1.
        -11    1    4    4    0    0  0.14287151827E-01  0.57395626055E-01  0.63648533377E-01  0.86889455745E-01  0.51100000000E-03 0.  1.
         11    1    4    4    0    0  0.91103430414E-02  0.53023531418E-01  0.89130616817E-02  0.54536199207E-01  0.51100000000E-03 0. -1.
</event>
<event>
 8    1  0.2837913E+004  0.1043930E+01  0.7957747E-01            NaN
         13   -1    0    0    0    0  0.00000000000E+00  0.00000000000E+00  0.74505805969E-08  0.10566000000E+00  0.10566000000E+00 0.  1.
     999900   -1    0    0    0    0 -0.00000000000E+00 -0.00000000000E+00 -0.74505805969E-08  0.93827000000E+00  0.93827000000E+00 0. -1.
     999902    2    1    2    0    0 -0.53614592101E-02 -0.15831215486E-02  0.13524781490E-01  0.10292954097E+01  0.10291913667E+01 0.  0.
     999903    2    3    3    0    0  0.30424148285E-01 -0.48687422309E-02  0.13018651132E+00  0.14086906824E+00  0.44116133199E-01 0.  0.
         14    1    1    2    0    0  0.53614592101E-02  0.15831215486E-02 -0.13524781490E-01  0.14634590293E-01  0.00000000000E+00 0. -1.
     999901    1    3    3    0    0 -0.35785607495E-01  0.32856206823E-02 -0.11666172983E+00  0.88842634147E+00  0.88000000000E+00 0. -1.
        -11    1    4    4    0    0  0.28008449691E-01  0.16272745346E-01  0.83266395079E-01  0.89346679657E-01  0.51100000000E-03 0. -1.
         11    1    4    4    0    0  0.24156985947E-02 -0.21141487577E-01  0.46920116236E-01  0.51522388583E-01  0.51100000000E-03 0.  1.
</event>
<event>
 8    1  0.2837913E+004  0.1043930E+01  0.7957747E-01            NaN
         13   -1    0    0    0    0  0.00000000000E+00  0.00000000000E+00  0.74505805969E-08  0.10566000000E+00  0.10566000000E+00 0. -1.
     999900   -1    0    0    0    0 -0.00000000000E+00 -0.00000000000E+00 -0.74505805969E-08  0.93827000000E+00  0.93827000000E+00 0. -1.
     999902    2    1    2    0    0  0.46376900476E-02 -0.10654205682E-02 -0.13311643191E-01  0.10297934115E+01  0.10296963762E+01 0.  0.
     999903    2    3    3    0    0 -0.52448381061E-01 -0.11993090633E+00  0.14536163637E-01  0.13953315541E+00  0.46086293385E-01 0.  0.
         14    1    1    2    0    0 -0.46376900476E-02  0.10654205682E-02  0.13311643191E-01  0.14136588500E-01  0.00000000000E+00 0. -1.
     999901    1    3    3    0    0  0.57086071108E-01  0.11886548576E+00 -0.27847806828E-01  0.89026025609E+00  0.88000000000E+00 0.  1.
        -11    1    4    4    0    0 -0.25318281529E-01 -0.16987040895E-01 -0.60847962524E-02  0.31094385416E-01  0.51100000000E-03 0.  1.
         11    1    4    4    0    0 -0.27130099531E-01 -0.10294386543E+00  0.20620959889E-01  0.10843877000E+00  0.51100000000E-03 0. -1.
</event>
<event>
 8    1  0.2837913E+004  0.1043930E+01  0.7957747E-01            NaN
         13   -1    0    0    0    0  0.00000000000E+00  0.00000000000E+00  0.74505805969E-08  0.10566000000E+00  0.10566000000E+00 0. -1.
     999900   -1    0    0    0    0 -0.00000000000E+00 -0.00000000000E+00 -0.74505805969E-08  0.93827000000E+00  0.93827000000E+00 0.  1.
     999902    2    1    2    0    0 -0.67208500407E-02 -0.20348210680E-02  0.11812036377E-01  0.10301882925E+01  0.10300966379E+01 0.  0.
     999903    2    3    3    0    0  0.12293189114E+00  0.24619979404E-01  0.42973645779E-01  0.13974382056E+00  0.44308102071E-01 0.  0.
         14    1    1    2    0    0  0.67208500407E-02  0.20348210680E-02 -0.11812036377E-01  0.13741707515E-01  0.00000000000E+00 0.  1.
     999901    1    3    3    0    0 -0.12965274118E+00 -0.26654800472E-01 -0.31161609402E-01  0.89044447193E+00  0.88000000000E+00 0.  1.
        -11    1    4    4    0    0  0.11240178853E+00  0.14621668746E-01  0.24028987881E-01  0.11586892871E+00  0.51100000000E-03 0.  1.
         11    1    4    4    0    0  0.10530102610E-01  0.99983106575E-02  0.18944657898E-01  0.23874891850E-01  0.51100000000E-03 0. -1.
</event>
<event>
 8    1  0.2837913E+004  0.1043930E+01  0.7957747E-01            NaN
         13   -1    0    0    0    0  0.00000000000E+00  0.00000000000E+00  0.74505805969E-08  0.10566000000E+00  0.10566000000E+00 0.  1.
     999900   -1    0    0    0    0 -0.00000000000E+00 -0.00000000000E+00 -0.74505805969E-08  0.93827000000E+00  0.93827000000E+00 0. -1.
     999902    2    1    2    0    0 -0.21601334208E-02 -0.11462889038E-03 -0.14390170135E-01  0.10293781509E+01  0.10292752893E+01 0.  0.
     999903    2    3    3    0    0  0.22414897625E-01 -0.12805055444E+00  0.20440893615E-01  0.13910586883E+00  0.45091467968E-01 0.  0.
         14    1    1    2    0    0  0.21601334208E-02  0.11462889038E-03  0.14390170135E-01  0.14551849116E-01  0.00000000000E+00 0.  1.
     999901    1    3    3    0    0 -0.24575031046E-01  0.12793592555E+00 -0.34831063751E-01  0.89027228206E+00  0.88000000000E+00 0. -1.
        -11    1    4    4    0    0  0.28298990713E-01 -0.44204714379E-01 -0.46427060019E-03  0.52491583295E-01  0.51100000000E-03 0. -1.
         11    1    4    4    0    0 -0.58840930874E-02 -0.83845840057E-01  0.20905164216E-01  0.86614285532E-01  0.51100000000E-03 0.  1.
</event>
<event>
 8    1  0.2837913E+004  0.1043930E+01  0.7957747E-01            NaN
         13   -1    0    0    0    0  0.00000000000E+00  0.00000000000E+00  0.74505805969E-08  0.10566000000E+00  0.10566000000E+00 0. -1.
     999900   -1    0    0    0    0 -0.00000000000E+00 -0.00000000000E+00 -0.74505805969E-08  0.93827000000E+00  0.93827000000E+00 0.  1.
     999902    2    1    2    0    0 -0.10629818895E-01  0.78863727940E-02  0.32245850144E-02  0.10303070094E+01  0.10302169420E+01 0.  0.
     999903    2    3    3    0    0 -0.12286448544E+00  0.22572560047E-01 -0.49775617357E-01  0.14147557094E+00  0.43960469047E-01 0.  0.
         14    1    1    2    0    0  0.10629818895E-01 -0.78863727940E-02 -0.32245850144E-02  0.13622990645E-01  0.00000000000E+00 0. -1.
     999901    1    3    3    0    0  0.11223466655E+00 -0.14686187253E-01  0.53000202371E-01  0.88883143842E+00  0.88000000000E+00 0. -1.
        -11    1    4    4    0    0 -0.44068734495E-01  0.19019220659E-01 -0.39037321274E-01  0.61870491251E-01  0.51100000000E-03 0. -1.
         11    1    4    4    0    0 -0.78795750945E-01  0.35533393882E-02 -0.10738296083E-01  0.79605079685E-01  0.51100000000E-03 0.  1.
</event>
<event>
 8    1  0.2837913E+004  0.1043930E+01  0.7957747E-01            NaN
         13   -1    0    0    0    0  0.00000000000E+00  0.00000000000E+00  0.74505805969E-08  0.10566000000E+00  0.10566000000E+00 0. -1.
     999900   -1    0    0    0    0 -0.00000000000E+00 -0.00000000000E+00 -0.74505805969E-08  0.93827000000E+00  0.93827000000E+00 0. -1.
     999902    2    1    2    0    0  0.50107280651E-02 -0.13429584270E-01 -0.13510048176E-02  0.10295325577E+01  0.10294318827E+01 0.  0.
     999903    2    3    3    0    0  0.81761534503E-01  0.95536649008E-01  0.36075736253E-01  0.13870985528E+00  0.46116866521E-01 0.  0.
         14    1    1    2    0    0 -0.50107280651E-02  0.13429584270E-01  0.13510048176E-02  0.14397442253E-01  0.00000000000E+00 0. -1.
     999901    1    3    3    0    0 -0.76750806438E-01 -0.10896623328E+00 -0.37426741071E-01  0.89082270247E+00  0.88000000000E+00 0. -1.
        -11    1    4    4    0    0  0.47105219659E-01  0.39496376635E-01 -0.39702824561E-02  0.61602676485E-01  0.51100000000E-03 0.  1.
         11    1    4    4    0    0  0.34656314844E-01  0.56040272373E-01  0.40046018709E-01  0.77107178794E-01  0.51100000000E-03 0. -1.
</event>
<event>
 8    1  0.2837913E+004  0.1043930E+01  0.7957747E-01            NaN
         13   -1    0    0    0    0  0.00000000000E+00  0.00000000000E+00  0.74505805969E-08  0.10566000000E+00  0.10566000000E+00 0.  1.
     999900   -1    0    0    0    0 -0.00000000000E+00 -0.00000000000E+00 -0.74505805969E-08  0.93827000000E+00  0.93827000000E+00 0.  1.
     999902    2    1    2    0    0 -0.10626685758E-01 -0.40583994900E-02  0.96392747653E-02  0.10290198466E+01  0.10289118194E+01 0.  0.
     999903    2    3    3    0    0  0.10552852412E+00 -0.38193673990E-01 -0.65545841795E-01  0.13755473146E+00  0.45055750305E-01 0.  0.
         14    1    1    2    0    0  0.10626685758E-01  0.40583994900E-02 -0.96392747653E-02  0.14910153407E-01  0.00000000000E+00 0.  1.
     999901    1    3    3    0    0 -0.11615520987E+00  0.34135274500E-01  0.75185116560E-01  0.89146511513E+00  0.88000000000E+00 0. -1.
        -11    1    4    4    0    0  0.23340410691E-01  0.61791281853E-02 -0.27769963319E-01  0.36802015979E-01  0.51100000000E-03 0.  1.
         11    1    4    4    0    0  0.82188113426E-01 -0.44372802175E-01 -0.37775878476E-01  0.10075271548E+00  0.51100000000E-03 0. -1.
</event>
<event>
 8    1  0.2837913E+004  0.1043930E+01  0.7957747E-01            NaN
         13   -1    0    0    0    0  0.00000000000E+00  0.00000000000E+00  0.74505805969E-08  0.10566000000E+00  0.10566000000E+00 0. -1.
     999900   -1    0    0    0    0 -0.00000000000E+00 -0.00000000000E+00 -0.74505805969E-08  0.93827000000E+00  0.93827000000E+00 0. -1.
     999902    2    1    2    0    0 -0.24190403407E-02 -0.12369044564E-01  0.56665157071E-02  0.10301113742E+01  0.10300186837E+01 0.  0.
     999903    2    3    3    0    0 -0.44722332072E-02  0.12515906749E+00 -0.34578888198E-01  0.13851847955E+00  0.48029955478E-01 0.  0.
         14    1    1    2    0    0  0.24190403407E-02  0.12369044564E-01 -0.56665157071E-02  0.13818625831E-01  0.00000000000E+00 0. -1.
     999901    1    3    3    0    0  0.20531928664E-02 -0.13752811205E+00  0.40245403905E-01  0.89159289462E+00  0.88000000000E+00 0.  1.
        -11    1    4    4    0    0  0.17294977670E-01  0.38297058477E-01  0.13112021050E-02  0.42044753687E-01  0.51100000000E-03 0. -1.
         11    1    4    4    0    0 -0.21767210877E-01  0.86862009008E-01 -0.35890090303E-01  0.96473725860E-01  0.51100000000E-03 0.  1.
</event>
<event>
 8    1  0.2837913E+004  0.1043930E+01  0.7957747E-01            NaN
         13   -1    0    0    0    0  0.00000000000E+00  0.00000000000E+00  0.74505805969E-08  0.10566000000E+00  0.10566000000E+00 0. -1.
     999900   -1    0    0    0    0 -0.00000000000E+00 -0.00000000000E+00 -0.74505805969E-08  0.93827000000E+00  0.93827000000E+00 0.  1.
     999902    2    1    2    0    0  0.11679749710E-01  0.52054822095E-02  0.57285304472E-02  0.10299182314E+01  0.10298229138E+01 0.  0.
     999903    2    3    3    0    0  0.70936896839E-01  0.48828252206E-01 -0.10130219239E+00  0.14038468443E+00  0.45049793488E-01 0.  0.
         14    1    1    2    0    0 -0.11679749710E-01 -0.52054822095E-02 -0.57285304472E-02  0.14011768604E-01  0.00000000000E+00 0.  1.
     999901    1    3    3    0    0 -0.59257147129E-01 -0.43622769997E-01  0.10703072284E+00  0.88953354697E+00  0.88000000000E+00 0. -1.
        -11    1    4    4    0    0  0.50012424258E-01  0.23051804133E-01 -0.32390937940E-01  0.63891018427E-01  0.51100000000E-03 0.  1.
         11    1    4    4    0    0  0.20924472580E-01  0.25776448073E-01 -0.68911254448E-01  0.76493666003E-01  0.51100000000E-03 0. -1.
</event>
<event>
 8    1  0.2837913E+004  0.1043930E+01  0.7957747E-01            NaN
         13   -1    0    0    0    0  0.00000000000E+00  0.00000000000E+00  0.74505805969E-08  0.10566000000E+00  0.10566000000E+00 0.  1.
     999900   -1    0    0    0    0 -0.00000000000E+00 -0.00000000000E+00 -0.74505805969E-08  0.93827000000E+00  0.93827000000E+00 0. -1.
     999902    2    1    2    0    0 -0.45535790528E-02  0.67834398280E-02  0.12884458311E-01  0.10286735455E+01  0.10285604036E+01 0.  0.
     999903    2    3    3    0    0 -0.11267583291E+00 -0.44183727397E-01 -0.49764479481E-01  0.13838541050E+00  0.45010813504E-01 0.  0.
         14    1    1    2    0    0  0.45535790528E-02 -0.67834398280E-02 -0.12884458311E-01  0.15256454504E-01  0.00000000000E+00 0.  1.
     999901    1    3    3    0    0  0.10812225385E+00  0.50967167225E-01  0.62648937792E-01  0.89028813500E+00  0.88000000000E+00 0.  1.
        -11    1    4    4    0    0 -0.27701557334E-01  0.68928390984E-02 -0.28248094108E-02  0.28690210504E-01  0.51100000000E-03 0.  1.
         11    1    4    4    0    0 -0.84974275573E-01 -0.51076566495E-01 -0.46939670070E-01  0.10969519999E+00  0.51100000000E-03 0. -1.
</event>
<event>
 8    1  0.2837913E+004  0.1043930E+01  0.7957747E-01            NaN
         13   -1    0    0    0    0  0.00000000000E+00  0.00000000000E+00  0.74505805969E-08  0.10566000000E+00  0.10566000000E+00 0.  1.
     999900   -1    0    0    0    0 -0.00000000000E+00 -0.00000000000E+00 -0.74505805969E-08  0.93827000000E+00  0.93827000000E+00 0.  1.
     999902    2    1    2    0    0 -0.11243673528E-01  0.45317779543E-02  0.73886185741E-02  0.10297332085E+01  0.10296353392E+01 0.  0.
     999903    2    3    3    0    0  0.22487468211E-01  0.62976677308E-01  0.11483886076E+00  0.14063301684E+00  0.46021010120E-01 0.  0.
         14    1    1    2    0    0  0.11243673528E-01 -0.45317779543E-02 -0.73886185741E-02  0.14196791549E-01  0.00000000000E+00 0.  1.
     999901    1    3    3    0    0 -0.33731141740E-01 -0.58444899354E-01 -0.10745024219E+00  0.88910019161E+00  0.88000000000E+00 0.  1.
        -11    1    4    4    0    0 -0.84044667889E-02  0.33222532416E-01  0.29918770626E-01  0.45494677478E-01  0.51100000000E-03 0.  1.
         11    1    4    4    0    0  0.30891935000E-01  0.29754144893E-01  0.84920090135E-01  0.95138339358E-01  0.51100000000E-03 0. -1.
</event>
<event>
 8    1  0.2837913E+004  0.1043930E+01  0.7957747E-01            NaN
         13   -1    0    0    0    0  0.00000000000E+00  0.00000000000E+00  0.74505805969E-08  0.10566000000E+00  0.10566000000E+00 0. -1.
     999900   -1    0    0    0    0 -0.00000000000E+00 -0.00000000000E+00 -0.74505805969E-08  0.93827000000E+00  0.93827000000E+00 0.  1.
     999902    2    1    2    0    0 -0.10480593448E-01 -0.81932725635E-02 -0.32480696660E-02  0.10302361141E+01  0.10301451006E+01 0.  0.
     999903    2    3    3    0    0 -0.43805562591E-01  0.75649752774E-01  0.98995246286E-01  0.13973406351E+00  0.45647971565E-01 0.  0.
         14    1    1    2    0    0  0.10480593448E-01  0.81932725635E-02  0.32480696660E-02  0.13693885894E-01  0.00000000000E+00 0. -1.
     999901    1    3    3    0    0  0.33324969143E-01 -0.83843025337E-01 -0.10224331595E+00  0.89050205060E+00  0.88000000000E+00 0. -1.
        -11    1    4    4    0    0 -0.25541735969E-01  0.28048218851E-01  0.73530853383E-01  0.82741346238E-01  0.51100000000E-03 0.  1.
         11    1    4    4    0    0 -0.18263826622E-01  0.47601533922E-01  0.25464392903E-01  0.56992717268E-01  0.51100000000E-03 0. -1.
</event>
<event>
 8    1  0.2837913E+004  0.1043930E+01  0.7957747E-01            NaN
         13   -1    0    0    0    0  0.00000000000E+00  0.00000000000E+00  0.74505805969E-08  0.10566000000E+00  0.10566000000E+00 0.  1.
     999900   -1    0    0    0    0 -0.00000000000E+00 -0.00000000000E+00 -0.74505805969E-08  0.93827000000E+00  0.93827000000E+00 0.  1.
     999902    2    1    2    0    0 -0.10843931255E-01 -0.88836069335E-02  0.35549681817E-02  0.10294680805E+01  0.10293664953E+01 0.  0.
     999903    2    3    3    0    0 -0.30539835097E-01  0.11562386578E+00 -0.46434169682E-01  0.13908111220E+00  0.53720236333E-01 0.  0.
         14    1    1    2    0    0  0.10843931255E-01  0.88836069335E-02 -0.35549681817E-02  0.14461919513E-01  0.00000000000E+00 0. -1.
     999901    1    3    3    0    0  0.19695903842E-01 -0.12450747271E+00  0.49989137864E-01  0.89038696829E+00  0.88000000000E+00 0.  1.
        -11    1    4    4    0    0  0.39376550254E-02  0.40440484690E-01 -0.38518348465E-01  0.55989840315E-01  0.51100000000E-03 0. -1.
         11    1    4    4    0    0 -0.34477490123E-01  0.75183381089E-01 -0.79158212177E-02  0.83091271887E-01  0.51100000000E-03 0.  1.
</event>
<event>
 8    1  0.2837913E+004  0.1043930E+01  0.7957747E-01            NaN
         13   -1    0    0    0    0  0.00000000000E+00  0.00000000000E+00  0.74505805969E-08  0.10566000000E+00  0.10566000000E+00 0.  1.
     999900   -1    0    0    0    0 -0.00000000000E+00 -0.00000000000E+00 -0.74505805969E-08  0.93827000000E+00  0.93827000000E+00 0. -1.
     999902    2    1    2    0    0 -0.10290115385E-01  0.97496902048E-02  0.85605767979E-02  0.10273702171E+01  0.10272367481E+01 0.  0.
     999903    2    3    3    0    0 -0.21583221152E-01 -0.17815807742E-01 -0.12619233045E+00  0.13661450599E+00  0.44224207631E-01 0.  0.
         14    1    1    2    0    0  0.10290115385E-01 -0.97496902048E-02 -0.85605767979E-02  0.16559782874E-01  0.00000000000E+00 0. -1.
     999901    1    3    3    0    0  0.11293105766E-01  0.27565497947E-01  0.13475290725E+00  0.89075571114E+00  0.88000000000E+00 0.  1.
        -11    1    4    4    0    0 -0.63244195682E-02  0.14889000364E-01 -0.36144557764E-01  0.39602661421E-01  0.51100000000E-03 0.  1.
         11    1    4    4    0    0 -0.15258801584E-01 -0.32704808106E-01 -0.90047772687E-01  0.97011844565E-01  0.51100000000E-03 0. -1.
</event>
<event>
 8    1  0.2837913E+004  0.1043930E+01  0.7957747E-01            NaN
         13   -1    0    0    0    0  0.00000000000E+00  0.00000000000E+00  0.74505805969E-08  0.10566000000E+00  0.10566000000E+00 0. -1.
     999900   -1    0    0    0    0 -0.00000000000E+00 -0.00000000000E+00 -0.74505805969E-08  0.93827000000E+00  0.93827000000E+00 0.  1.
     999902    2    1    2    0    0  0.74931850693E-02 -0.41593238383E-02  0.10579196413E-01  0.10303150379E+01  0.10302250774E+01 0.  0.
     999903    2    3    3    0    0  0.11490541478E+00 -0.11611002864E-01  0.69042752537E-01  0.14182705145E+00  0.44832366779E-01 0.  0.
         14    1    1    2    0    0 -0.74931850693E-02  0.41593238383E-02 -0.10579196413E-01  0.13614962138E-01  0.00000000000E+00 0. -1.
     999901    1    3    3    0    0 -0.10741222971E+00  0.74516790262E-02 -0.58463556124E-01  0.88848798642E+00  0.88000000000E+00 0.  1.
        -11    1    4    4    0    0  0.29929341328E-01 -0.22788920979E-01  0.27367283274E-01  0.46522357061E-01  0.51100000000E-03 0.  1.
         11    1    4    4    0    0  0.84976073451E-01  0.11177918115E-01  0.41675469263E-01  0.95304694385E-01  0.51100000000E-03 0. -1.
</event>
<event>
 8    1  0.2837913E+004  0.1043930E+01  0.7957747E-01            NaN
         13   -1    0    0    0    0  0.00000000000E+00  0.00000000000E+00  0.74505805969E-08  0.10566000000E+00  0.10566000000E+00 0.  1.
     999900   -1    0    0    0    0 -0.00000000000E+00 -0.00000000000E+00 -0.74505805969E-08  0.93827000000E+00  0.93827000000E+00 0.  1.
     999902    2    1    2    0    0 -0.72291439232E-02 -0.10502746162E-01 -0.42922348200E-02  0.10304766927E+01  0.10303888696E+01 0.  0.
     999903    2    3    3    0    0 -0.11652964744E+00  0.62820396107E-01  0.14517810630E-01  0.14048978204E+00  0.44733110019E-01 0.  0.
         14    1    1    2    0    0  0.72291439232E-02  0.10502746162E-01  0.42922348200E-02  0.13453307346E-01  0.00000000000E+00 0.  1.
     999901    1    3    3    0    0  0.10930050352E+00 -0.73323142269E-01 -0.18810045450E-01  0.88998691062E+00  0.88000000000E+00 0.  1.
        -11    1    4    4    0    0 -0.53715439063E-01  0.28547485180E-01  0.29142820245E-01  0.67452741951E-01  0.51100000000E-03 0. -1.
         11    1    4    4    0    0 -0.62814208375E-01  0.34272910926E-01 -0.14625009615E-01  0.73037040085E-01  0.51100000000E-03 0.  1.
</event>
<event>
 8    1  0.2837913E+004  0.1043930E+01  0.7957747E-01            NaN
         13   -1    0    0    0    0  0.00000000000E+00  0.00000000000E+00  0.74505805969E-08  0.10566000000E+00  0.10566000000E+00 0. -1.
     999900   -1    0    0    0    0 -0.00000000000E+00 -0.00000000000E+00 -0.74505805969E-08  0.93827000000E+00  0.93827000000E+00 0.  1.
     999902    2    1    2    0    0 -0.17369836090E-01 -0.95057708010E-03 -0.47020751759E-02  0.10259098914E+01  0.10257516176E+01 0.  0.
     999903    2    3    3    0    0 -0.24014605880E-01 -0.11452726176E+00 -0.47367751235E-01  0.13756076174E+00  0.54644893012E-01 0.  0.
         14    1    1    2    0    0  0.17369836090E-01  0.95057708010E-03  0.47020751759E-02  0.18020108589E-01  0.00000000000E+00 0. -1.
     999901    1    3    3    0    0  0.66447697892E-02  0.11357668468E+00  0.42665676059E-01  0.88834912967E+00  0.88000000000E+00 0. -1.
        -11    1    4    4    0    0 -0.23399497806E-01 -0.37487606110E-01  0.48933757867E-02  0.44464180607E-01  0.51100000000E-03 0. -1.
         11    1    4    4    0    0 -0.61510807365E-03 -0.77039655651E-01 -0.52261127021E-01  0.93096581136E-01  0.51100000000E-03 0.  1.
</event>
<event>
 7    1  0.2837913E+004  0.1043930E+01  0.7957747E-01            NaN
         13   -1    0    0    0    0  0.00000000000E+00  0.00000000000E+00  0.74505805969E-08  0.10566000000E+00  0.10566000000E+00 0. -1.
     999900   -1    0    0    0    0 -0.00000000000E+00 -0.00000000000E+00 -0.74505805969E-08  0.93827000000E+00  0.93827000000E+00 0. -1.
     999903    2    1    2    0    0 -0.17712662797E-01 -0.10421704655E-01  0.10826316435E+00  0.11923675824E+00  0.45542742674E-01 0.  0.
         14    1    1    2    0    0  0.37302832743E-01 -0.40432158526E-02  0.14303483691E-02  0.37548566172E-01  0.00000000000E+00 0. -1.
     999901    1    1    2    0    0 -0.19590169947E-01  0.14464920508E-01 -0.10969351272E+00  0.88714467558E+00  0.88000000000E+00 0. -1.
        -11    1    3    3    0    0  0.11057075550E-01 -0.16642602237E-01  0.52573333156E-01  0.56244569596E-01  0.51100000000E-03 0.  1.
         11    1    3    3    0    0 -0.28769738346E-01  0.62208975817E-02  0.55689831195E-01  0.62992188648E-01  0.51100000000E-03 0. -1.
</event>
<event>
 8    1  0.2837913E+004  0.1043930E+01  0.7957747E-01            NaN
         13   -1    0    0    0    0  0.00000000000E+00  0.00000000000E+00  0.74505805969E-08  0.10566000000E+00  0.10566000000E+00 0.  1.
     999900   -1    0    0    0    0 -0.00000000000E+00 -0.00000000000E+00 -0.74505805969E-08  0.93827000000E+00  0.93827000000E+00 0. -1.
     999902    2    1    2    0    0 -0.91329726005E-02  0.48549892090E-02  0.10764018306E-01  0.10290019660E+01  0.10288936776E+01 0.  0.
     999903    2    3    3    0    0 -0.34804077869E-01 -0.10279742435E+00  0.74360834483E-01  0.13979299011E+00  0.47264279219E-01 0.  0.
         14    1    1    2    0    0  0.91329726005E-02 -0.48549892090E-02 -0.10764018306E-01  0.14928033991E-01  0.00000000000E+00 0. -1.
     999901    1    3    3    0    0  0.25671105269E-01  0.10765241356E+00 -0.63596816177E-01  0.88920897590E+00  0.88000000000E+00 0. -1.
        -11    1    4    4    0    0 -0.22368523443E-01 -0.63669235323E-01  0.71973176159E-01  0.98663679108E-01  0.51100000000E-03 0.  1.
         11    1    4    4    0    0 -0.12435554427E-01 -0.39128189025E-01  0.23876583239E-02  0.41129311003E-01  0.51100000000E-03 0. -1.
</event>
<event>
 8    1  0.2837913E+004  0.1043930E+01  0.7957747E-01            NaN
         13   -1    0    0    0    0  0.00000000000E+00  0.00000000000E+00  0.74505805969E-08  0.10566000000E+00  0.10566000000E+00 0.  1.
     999900   -1    0    0    0    0 -0.00000000000E+00 -0.00000000000E+00 -0.74505805969E-08  0.93827000000E+00  0.93827000000E+00 0. -1.
     999902    2    1    2    0    0  0.10335152677E-01  0.62665836484E-02 -0.72761834377E-02  0.10298222611E+01  0.10297256242E+01 0.  0.
     999903    2    3    3    0    0 -0.29898470922E-01  0.12957477179E+00  0.13937137922E-02  0.14027247562E+00  0.44619333574E-01 0.  0.
         14    1    1    2    0    0 -0.10335152677E-01 -0.62665836484E-02  0.72761834377E-02  0.14107738901E-01  0.00000000000E+00 0.  1.
     999901    1    3    3    0    0  0.40233623599E-01 -0.12330818815E+00 -0.86698972300E-02  0.88954978548E+00  0.88000000000E+00 0. -1.
        -11    1    4    4    0    0  0.57834891702E-02  0.72271349049E-01 -0.35006260187E-02  0.72588650241E-01  0.51100000000E-03 0. -1.
         11    1    4    4    0    0 -0.35681960092E-01  0.57303422746E-01  0.48943398110E-02  0.67683825376E-01  0.51100000000E-03 0.  1.
</event>
<event>
 8    1  0.2837913E+004  0.1043930E+01  0.7957747E-01            NaN
         13   -1    0    0    0    0  0.00000000000E+00  0.00000000000E+00  0.74505805969E-08  0.10566000000E+00  0.10566000000E+00 0. -1.
     999900   -1    0    0    0    0 -0.00000000000E+00 -0.00000000000E+00 -0.74505805969E-08  0.93827000000E+00  0.93827000000E+00 0.  1.
     999902    2    1    2    0    0 -0.85067067467E-03  0.21215808005E-02  0.16345649539E-01  0.10274253036E+01  0.10272927282E+01 0.  0.
     999903    2    3    3    0    0  0.98886988780E-01 -0.44329892339E-01  0.74137566623E-01  0.13869292216E+00  0.44671825213E-01 0.  0.
         14    1    1    2    0    0  0.85067067467E-03 -0.21215808005E-02 -0.16345649539E-01  0.16504696439E-01  0.00000000000E+00 0.  1.
     999901    1    3    3    0    0 -0.99737659455E-01  0.46451473139E-01 -0.57791917084E-01  0.88873238140E+00  0.88000000000E+00 0.  1.
        -11    1    4    4    0    0  0.79371830546E-01 -0.27863758219E-01  0.75615015181E-01  0.11311130867E+00  0.51100000000E-03 0.  1.
         11    1    4    4    0    0  0.19515158234E-01 -0.16466134120E-01 -0.14774485577E-02  0.25581613495E-01  0.51100000000E-03 0. -1.
</event>
<event>
 8    1  0.2837913E+004  0.1043930E+01  0.7957747E-01            NaN
         13   -1    0    0    0    0  0.00000000000E+00  0.00000000000E+00  0.74505805969E-08  0.10566000000E+00  0.10566000000E+00 0. -1.
     999900   -1    0    0    0    0 -0.00000000000E+00 -0.00000000000E+00 -0.74505805969E-08  0.93827000000E+00  0.93827000000E+00 0. -1.
     999902    2    1    2    0    0  0.84616960373E-02  0.86531121346E-02  0.87445645363E-02  0.10289986887E+01  0.10288903524E+01 0.  0.
     999903    2    3    3    0    0 -0.10899443067E+00  0.72496341809E-01  0.14340287161E-01  0.13888453205E+00  0.44133478409E-01 0.  0.
         14    1    1    2    0    0 -0.84616960373E-02 -0.86531121346E-02 -0.87445645363E-02  0.14931311341E-01  0.00000000000E+00 0.  1.
     999901    1    3    3    0    0  0.11745612670E+00 -0.63843229674E-01 -0.55957226245E-02  0.89011415660E+00  0.88000000000E+00 0. -1.
        -11    1    4    4    0    0 -0.57932122023E-01  0.24149335716E-01 -0.11793290697E-01  0.63864418921E-01  0.51100000000E-03 0. -1.
         11    1    4    4    0    0 -0.51062308642E-01  0.48347006092E-01  0.26133577857E-01  0.75020113134E-01  0.51100000000E-03 0.  1.
</event>
<event>
 8    1  0.2837913E+004  0.1043930E+01  0.7957747E-01            NaN
         13   -1    0    0    0    0  0.00000000000E+00  0.00000000000E+00  0.74505805969E-08  0.10566000000E+00  0.10566000000E+00 0. -1.
     999900   -1    0    0    0    0 -0.00000000000E+00 -0.00000000000E+00 -0.74505805969E-08  0.93827000000E+00  0.93827000000E+00 0.  1.
     999902    2    1    2    0    0  0.90245836928E-02 -0.10154851904E-01  0.59570546884E-03  0.10303315077E+01  0.10302417662E+01 0.  0.
     999903    2    3    3    0    0 -0.21584432756E-01  0.16536013319E-02  0.13095814646E+00  0.14012326381E+00  0.44898449890E-01 0.  0.
         14    1    1    2    0    0 -0.90245836928E-02  0.10154851904E-01 -0.59570546884E-03  0.13598492307E-01  0.00000000000E+00 0.  1.
     999901    1    3    3    0    0  0.30609016449E-01 -0.11808453236E-01 -0.13036244099E+00  0.89020824388E+00  0.88000000000E+00 0.  1.
        -11    1    4    4    0    0 -0.69601950389E-02  0.20167714767E-01  0.32529256501E-01  0.38904944203E-01  0.51100000000E-03 0. -1.
         11    1    4    4    0    0 -0.14624237717E-01 -0.18514113435E-01  0.98428889956E-01  0.10121831961E+00  0.51100000000E-03 0.  1.
</event>
<event>
 8    1  0.2837913E+004  0.1043930E+01  0.7957747E-01            NaN
         13   -1    0    0    0    0  0.00000000000E+00  0.00000000000E+00  0.74505805969E-08  0.10566000000E+00  0.10566000000E+00 0. -1.
     999900   -1    0    0    0    0 -0.00000000000E+00 -0.00000000000E+00 -0.74505805969E-08  0.93827000000E+00  0.93827000000E+00 0.  1.
     999902    2    1    2    0    0 -0.96354477447E-02 -0.12055308862E-01  0.40816335210E-02  0.10279665399E+01  0.10278425829E+01 0.  0.
     999903    2    3    3    0    0  0.32944735521E-01 -0.48435241889E-01 -0.12020029287E+00  0.13747085283E+00  0.31918595128E-01 0.  0.
         14    1    1    2    0    0  0.96354477447E-02  0.12055308862E-01 -0.40816335210E-02  0.15963460064E-01  0.00000000000E+00 0. -1.
     999901    1    3    3    0    0 -0.42580183266E-01  0.36379933027E-01  0.12428192639E+00  0.89049568711E+00  0.88000000000E+00 0. -1.
        -11    1    4    4    0    0  0.31285608675E-01 -0.27114891256E-01 -0.54941138424E-01  0.68795322881E-01  0.51100000000E-03 0. -1.
         11    1    4    4    0    0  0.16591268462E-02 -0.21320350633E-01 -0.65259154448E-01  0.68675529945E-01  0.51100000000E-03 0.  1.
</event>
<event>
 8    1  0.2837913E+004  0.1043930E+01  0.7957747E-01            NaN
         13   -1    0    0    0    0  0.00000000000E+00  0.00000000000E+00  0.74505805969E-08  0.10566000000E+00  0.10566000000E+00 0.  1.
     999900   -1    0    0    0    0 -0.00000000000E+00 -0.00000000000E+00 -0.74505805969E-08  0.93827000000E+00  0.93827000000E+00 0.  1.
     999902    2    1    2    0    0 -0.16518728445E-02 -0.13487281472E-01 -0.42298387616E-02  0.10296988025E+01  0.10296004550E+01 0.  0.
     999903    2    3    3    0    0 -0.82034561014E-01  0.85046283069E-01 -0.56722039506E-01  0.13901048946E+00  0.46303206702E-01 0.  0.
         14    1    1    2    0    0  0.16518728445E-02  0.13487281472E-01  0.42298387616E-02  0.14231197467E-01  0.00000000000E+00 0. -1.
     999901    1    3    3    0    0  0.80382688169E-01 -0.98533564540E-01  0.52492200744E-01  0.89068831307E+00  0.88000000000E+00 0. -1.
        -11    1    4    4    0    0 -0.43897555616E-01  0.61638692400E-01 -0.13642633648E-01  0.76894124377E-01  0.51100000000E-03 0. -1.
         11    1    4    4    0    0 -0.38137005397E-01  0.23407590669E-01 -0.43079405858E-01  0.62116365088E-01  0.51100000000E-03 0.  1.
</event>
<event>
 8    1  0.2837913E+004  0.1043930E+01  0.7957747E-01            NaN
         13   -1    0    0    0    0  0.00000000000E+00  0.00000000000E+00  0.74505805969E-08  0.10566000000E+00  0.10566000000E+00 0. -1.
     999900   -1    0    0    0    0 -0.00000000000E+00 -0.00000000000E+00 -0.74505805969E-08  0.93827000000E+00  0.93827000000E+00 0. -1.
     999902    2    1    2    0    0 -0.39182158620E-02 -0.13136930802E-01  0.30288781727E-02  0.10298905745E+01  0.10297948776E+01 0.  0.
     999903    2    3    3    0    0 -0.15362153833E-01 -0.76376666626E-01 -0.10778080309E+00  0.14061614361E+00  0.45681586591E-01 0.  0.
         14    1    1    2    0    0  0.39182158620E-02  0.13136930802E-01 -0.30288781727E-02  0.14039425538E-01  0.00000000000E+00 0. -1.
     999901    1    3    3    0    0  0.11443937971E-01  0.63239735824E-01  0.11080968127E+00  0.88927443085E+00  0.88000000000E+00 0.  1.
        -11    1    4    4    0    0 -0.78692254094E-02 -0.56872033493E-02 -0.44157648069E-01  0.45215351314E-01  0.51100000000E-03 0. -1.
         11    1    4    4    0    0 -0.74929284237E-02 -0.70689463277E-01 -0.63623155024E-01  0.95400792297E-01  0.51100000000E-03 0.  1.
</event>
<event>
 8    1  0.2837913E+004  0.1043930E+01  0.7957747E-01            NaN
         13   -1    0    0    0    0  0.00000000000E+00  0.00000000000E+00  0.74505805969E-08  0.10566000000E+00  0.10566000000E+00 0. -1.
     999900   -1    0    0    0    0 -0.00000000000E+00 -0.00000000000E+00 -0.74505805969E-08  0.93827000000E+00  0.93827000000E+00 0. -1.
     999902    2    1    2    0    0 -0.32572735043E-02 -0.85487333785E-02  0.10346998142E-01  0.10301187349E+01  0.10300261438E+01 0.  0.
     999903    2    3    3    0    0  0.11213719764E+00  0.57174574036E-01  0.40345524019E-01  0.13964956157E+00  0.45061688019E-01 0.  0.
         14    1    1    2    0    0  0.32572735043E-02  0.85487333785E-02 -0.10346998142E-01  0.13811265098E-01  0.00000000000E+00 0. -1.
     999901    1    3    3    0    0 -0.11539447114E+00 -0.65723307414E-01 -0.29998525877E-01  0.89046917334E+00  0.88000000000E+00 0.  1.
        -11    1    4    4    0    0  0.90319575664E-01  0.45204828278E-01  0.50310313501E-01  0.11283834017E+00  0.51100000000E-03 0. -1.
         11    1    4    4    0    0  0.21817621973E-01  0.11969745758E-01 -0.99647894824E-02  0.26811221391E-01  0.51100000000E-03 0.  1.
</event>
<event>
 8    1  0.2837913E+004  0.1043930E+01  0.7957747E-01            NaN
         13   -1    0    0    0    0  0.00000000000E+00  0.00000000000E+00  0.74505805969E-08  0.10566000000E+00  0.10566000000E+00 0.  1.
     999900   -1    0    0    0    0 -0.00000000000E+00 -0.00000000000E+00 -0.74505805969E-08  0.93827000000E+00  0.93827000000E+00 0. -1.
     999902    2    1    2    0    0  0.93906275537E-02  0.40325139630E-02  0.89139290004E-02  0.10303689092E+01  0.10302796639E+01 0.  0.
     999903    2    3    3    0    0 -0.80116314736E-02 -0.13065920283E+00  0.19638775664E-01  0.13988605164E+00  0.45237290050E-01 0.  0.
         14    1    1    2    0    0 -0.93906275537E-02 -0.40325139630E-02 -0.89139290004E-02  0.13561090846E-01  0.00000000000E+00 0. -1.
     999901    1    3    3    0    0  0.17402259027E-01  0.13469171679E+00 -0.10724846664E-01  0.89048285751E+00  0.88000000000E+00 0. -1.
        -11    1    4    4    0    0  0.86525819668E-02 -0.26904226465E-01 -0.11145316430E-01  0.30383939436E-01  0.51100000000E-03 0. -1.
         11    1    4    4    0    0 -0.16664213440E-01 -0.10375497636E+00  0.30784092094E-01  0.10950211220E+00  0.51100000000E-03 0.  1.
</event>
<event>
 8    1  0.2837913E+004  0.1043930E+01  0.7957747E-01            NaN
         13   -1    0    0    0    0  0.00000000000E+00  0.00000000000E+00  0.74505805969E-08  0.10566000000E+00  0.10566000000E+00 0. -1.
     999900   -1    0    0    0    0 -0.00000000000E+00 -0.00000000000E+00 -0.74505805969E-08  0.93827000000E+00  0.93827000000E+00 0. -1.
     999902    2    1    2    0    0  0.79626484645E-03 -0.13706928235E-01  0.22756166167E-02  0.10300126601E+01  0.10299186315E+01 0.  0.
     999903    2    3    3    0    0 -0.13081377725E-02  0.11711693841E+00 -0.57831299294E-01  0.13831082991E+00  0.45467988793E-01 0.  0.
         14    1    1    2    0    0 -0.79626484645E-03  0.13706928235E-01 -0.22756166167E-02  0.13917339916E-01  0.00000000000E+00 0.  1.
     999901    1    3    3    0    0  0.21044026189E-02 -0.13082386665E+00  0.60106915910E-01  0.89170183017E+00  0.88000000000E+00 0.  1.
        -11    1    4    4    0    0  0.10210345871E-01  0.10910267373E+00 -0.42533456138E-01  0.11754573829E+00  0.51100000000E-03 0. -1.
         11    1    4    4    0    0 -0.11518483643E-01  0.80142646834E-02 -0.15297843155E-01  0.20765091622E-01  0.51100000000E-03 0.  1.
</event>
<event>
 8    1  0.2837913E+004  0.1043930E+01  0.7957747E-01            NaN
         13   -1    0    0    0    0  0.00000000000E+00  0.00000000000E+00  0.74505805969E-08  0.10566000000E+00  0.10566000000E+00 0.  1.
     999900   -1    0    0    0    0 -0.00000000000E+00 -0.00000000000E+00 -0.74505805969E-08  0.93827000000E+00  0.93827000000E+00 0. -1.
     999902    2    1    2    0    0  0.73582377127E-02 -0.11230837042E-01  0.28665846096E-02  0.10302007367E+01  0.10301092492E+01 0.  0.
     999903    2    3    3    0    0  0.59968428762E-01 -0.10747598645E+00  0.54406498688E-01  0.14189486387E+00  0.45019830991E-01 0.  0.
         14    1    1    2    0    0 -0.73582377127E-02  0.11230837042E-01 -0.28665846096E-02  0.13729263280E-01  0.00000000000E+00 0.  1.
     999901    1    3    3    0    0 -0.52610191049E-01  0.96245149410E-01 -0.51539914079E-01  0.88830587284E+00  0.88000000000E+00 0.  1.
        -11    1    4    4    0    0  0.52606975033E-01 -0.80115107609E-01  0.59908100281E-01  0.11302727940E+00  0.51100000000E-03 0. -1.
         11    1    4    4    0    0  0.73614537290E-02 -0.27360878843E-01 -0.55016015924E-02  0.28867584470E-01  0.51100000000E-03 0.  1.
</event>
<event>
 8    1  0.2837913E+004  0.1043930E+01  0.7957747E-01            NaN
         13   -1    0    0    0    0  0.00000000000E+00  0.00000000000E+00  0.74505805969E-08  0.10566000000E+00  0.10566000000E+00 0. -1.
     999900   -1    0    0    0    0 -0.00000000000E+00 -0.00000000000E+00 -0.74505805969E-08  0.93827000000E+00  0.93827000000E+00 0. -1.
     999902    2    1    2    0    0 -0.13191193279E-01  0.20170109159E-02  0.26506106036E-02  0.10303247933E+01  0.10302349625E+01 0.  0.
     999903    2    3    3    0    0 -0.79351711715E-01  0.83651176408E-01  0.69546739375E-01  0.14155235716E+00  0.43658989829E-01 0.  0.
         14    1    1    2    0    0  0.13191193279E-01 -0.20170109159E-02 -0.26506106036E-02  0.13605206714E-01  0.00000000000E+00 0. -1.
     999901    1    3    3    0    0  0.66160518436E-01 -0.81634165492E-01 -0.66896128771E-01  0.88877243613E+00  0.88000000000E+00 0. -1.
        -11    1    4    4    0    0  0.31581746145E-03  0.21114004044E-01  0.58957180274E-02  0.21929922925E-01  0.51100000000E-03 0.  1.
         11    1    4    4    0    0 -0.79667529177E-01  0.62537172364E-01  0.63651021347E-01  0.11962243423E+00  0.51100000000E-03 0. -1.
</event>
<event>
 8    1  0.2837913E+004  0.1043930E+01  0.7957747E-01            NaN
         13   -1    0    0    0    0  0.00000000000E+00  0.00000000000E+00  0.74505805969E-08  0.10566000000E+00  0.10566000000E+00 0.  1.
     999900   -1    0    0    0    0 -0.00000000000E+00 -0.00000000000E+00 -0.74505805969E-08  0.93827000000E+00  0.93827000000E+00 0. -1.
     999902    2    1    2    0    0 -0.62616143855E-02  0.12046699738E-01 -0.25730291673E-02  0.10301114882E+01  0.10300187993E+01 0.  0.
     999903    2    3    3    0    0 -0.35054390034E-01  0.10925142379E+00  0.68584887447E-01  0.14143762710E+00  0.46217223122E-01 0.  0.
         14    1    1    2    0    0  0.62616143855E-02 -0.12046699738E-01  0.25730291673E-02  0.13818511801E-01  0.00000000000E+00 0. -1.
     999901    1    3    3    0    0  0.28792775649E-01 -0.97204724048E-01 -0.71157916614E-01  0.88867386110E+00  0.88000000000E+00 0. -1.
        -11    1    4    4    0    0 -0.44570334008E-01  0.94952248209E-01  0.50249834770E-01  0.11630886092E+00  0.51100000000E-03 0.  1.
         11    1    4    4    0    0  0.95159439735E-02  0.14299175578E-01  0.18335052677E-01  0.25128766177E-01  0.51100000000E-03 0. -1.
</event>
<event>
 8    1  0.2837913E+004  0.1043930E+01  0.7957747E-01            NaN
         13   -1    0    0    0    0  0.00000000000E+00  0.00000000000E+00  0.74505805969E-08  0.10566000000E+00  0.10566000000E+00 0.  1.
     999900   -1    0    0    0    0 -0.00000000000E+00 -0.00000000000E+00 -0.74505805969E-08  0.93827000000E+00  0.93827000000E+00 0.  1.
     999902    2    1    2    0    0 -0.78913863223E-02  0.93565529781E-02  0.62128649771E-02  0.10302034289E+01  0.10301119775E+01 0.  0.
     999903    2    3    3    0    0  0.52692736194E-01 -0.11985289547E+00 -0.11870734674E-01  0.13852381493E+00  0.43665684016E-01 0.  0.
         14    1    1    2    0    0  0.78913863223E-02 -0.93565529781E-02 -0.62128649771E-02  0.13726571056E-01  0.00000000000E+00 0. -1.
     999901    1    3    3    0    0 -0.60584122517E-01  0.12920944845E+00  0.18083599651E-01  0.89167961401E+00  0.88000000000E+00 0. -1.
        -11    1    4    4    0    0  0.53991019344E-01 -0.11257671019E+00 -0.21166728919E-01  0.12663663522E+00  0.51100000000E-03 0. -1.
         11    1    4    4    0    0 -0.12982831496E-02 -0.72761852864E-02  0.92959942444E-02  0.11887179710E-01  0.51100000000E-03 0.  1.
</event>
<event>
 8    1  0.2837913E+004  0.1043930E+01  0.7957747E-01            NaN
         13   -1    0    0    0    0  0.00000000000E+00  0.00000000000E+00  0.74505805969E-08  0.10566000000E+00  0.10566000000E+00 0. -1.
     999900   -1    0    0    0    0 -0.00000000000E+00 -0.00000000000E+00 -0.74505805969E-08  0.93827000000E+00  0.93827000000E+00 0.  1.
     999902    2    1    2    0    0 -0.17742374426E-01 -0.42340704114E-02 -0.17041321449E-01  0.10189675114E+01  0.10186617021E+01 0.  0.
     999903    2    3    3    0    0 -0.67015973528E-02  0.11661687165E+00 -0.35709510030E-01  0.13044325720E+00  0.45780651829E-01 0.  0.
         14    1    1    2    0    0  0.17742374426E-01  0.42340704114E-02  0.17041321449E-01  0.24962488643E-01  0.00000000000E+00 0. -1.
     999901    1    3    3    0    0 -0.11040777073E-01 -0.12085094206E+00  0.18668188581E-01  0.88852425415E+00  0.88000000000E+00 0. -1.
        -11    1    4    4    0    0 -0.54186920392E-02  0.57040067534E-01 -0.41236182183E-01  0.70594726218E-01  0.51100000000E-03 0.  1.
         11    1    4    4    0    0 -0.12829053137E-02  0.59576804118E-01  0.55266721523E-02  0.59848530985E-01  0.51100000000E-03 0. -1.
</event>
<event>
 8    1  0.2837913E+004  0.1043930E+01  0.7957747E-01            NaN
         13   -1    0    0    0    0  0.00000000000E+00  0.00000000000E+00  0.74505805969E-08  0.10566000000E+00  0.10566000000E+00 0. -1.
     999900   -1    0    0    0    0 -0.00000000000E+00 -0.00000000000E+00 -0.74505805969E-08  0.93827000000E+00  0.93827000000E+00 0.  1.
     999902    2    1    2    0    0 -0.21287309910E-02  0.11943053037E-01 -0.68125147818E-02  0.10300167556E+01  0.10299227828E+01 0.  0.
     999903    2    3    3    0    0 -0.10196850278E+00  0.50783789363E-02  0.84362334794E-01  0.13966404070E+00  0.44335936201E-01 0.  0.
         14    1    1    2    0    0  0.21287309910E-02 -0.11943053037E-01  0.68125147818E-02  0.13913244378E-01  0.00000000000E+00 0. -1.
     999901    1    3    3    0    0  0.99839771793E-01  0.68646741004E-02 -0.91174849576E-01  0.89035271493E+00  0.88000000000E+00 0.  1.
        -11    1    4    4    0    0 -0.57787106625E-01 -0.17276071020E-01  0.34952842142E-01  0.69712083721E-01  0.51100000000E-03 0.  1.
         11    1    4    4    0    0 -0.44181396159E-01  0.22354449956E-01  0.49409492652E-01  0.69951956974E-01  0.51100000000E-03 0. -1.
</event>
<event>
 8    1  0.2837913E+004  0.1043930E+01  0.7957747E-01            NaN
         13   -1    0    0    0    0  0.00000000000E+00  0.00000000000E+00  0.74505805969E-08  0.10566000000E+00  0.10566000000E+00 0.  1.
     999900   -1    0    0    0    0 -0.00000000000E+00 -0.00000000000E+00 -0.74505805969E-08  0.93827000000E+00  0.93827000000E+00 0. -1.
     999902    2    1    2    0    0 -0.65617539716E-02 -0.99725963030E-02 -0.64970209141E-02  0.10303388053E+01  0.10302491607E+01 0.  0.
     999903    2    3    3    0    0  0.79728313332E-01  0.64808675766E-01  0.81694749262E-01  0.13858996024E+00  0.44456457580E-01 0.  0.
         14    1    1    2    0    0  0.65617539716E-02  0.99725963030E-02  0.64970209141E-02  0.13591194685E-01  0.00000000000E+00 0. -1.
     999901    1    3    3    0    0 -0.86290067304E-01 -0.74781272069E-01 -0.88191770177E-01  0.89174884508E+00  0.88000000000E+00 0.  1.
        -11    1    4    4    0    0  0.67761483481E-01  0.31372992464E-01  0.66380775645E-01  0.99912720892E-01  0.51100000000E-03 0.  1.
         11    1    4    4    0    0  0.11966829851E-01  0.33435683302E-01  0.15313973617E-01  0.38677239347E-01  0.51100000000E-03 0. -1.
</event>
<event>
 8    1  0.2837913E+004  0.1043930E+01  0.7957747E-01            NaN
         13   -1    0    0    0    0  0.00000000000E+00  0.00000000000E+00  0.74505805969E-08  0.10566000000E+00  0.10566000000E+00 0.  1.
     999900   -1    0    0    0    0 -0.00000000000E+00 -0.00000000000E+00 -0.74505805969E-08  0.93827000000E+00  0.93827000000E+00 0. -1.
     999902    2    1    2    0    0 -0.69785812607E-02 -0.39382414963E-02 -0.11484253081E-01  0.10299264858E+01  0.10298312812E+01 0.  0.
     999903    2    3    3    0    0 -0.72602206045E-02 -0.12231385068E+00  0.50334190258E-01  0.13985099226E+00  0.44848416432E-01 0.  0.
         14    1    1    2    0    0  0.69785812607E-02  0.39382414963E-02  0.11484253081E-01  0.14003514249E-01  0.00000000000E+00 0.  1.
     999901    1    3    3    0    0  0.28163934381E-03  0.11837560918E+00 -0.61818443338E-01  0.89007549349E+00  0.88000000000E+00 0.  1.
        -11    1    4    4    0    0  0.62806777945E-02 -0.60830158563E-01  0.32663639421E-02  0.61242839245E-01  0.51100000000E-03 0.  1.
         11    1    4    4    0    0 -0.13540898399E-01 -0.61483692118E-01  0.47067826315E-01  0.78608153018E-01  0.51100000000E-03 0. -1.
</event>
<event>
 8    1  0.2837913E+004  0.1043930E+01  0.7957747E-01            NaN
         13   -1    0    0    0    0  0.00000000000E+00  0.00000000000E+00  0.74505805969E-08  0.10566000000E+00  0.10566000000E+00 0.  1.
     999900   -1    0    0    0    0 -0.00000000000E+00 -0.00000000000E+00 -0.74505805969E-08  0.93827000000E+00  0.93827000000E+00 0.  1.
     999902    2    1    2    0    0 -0.95955782861E-02 -0.10584985525E-01  0.15157559555E-02  0.10295628654E+01  0.10294626167E+01 0.  0.
     999903    2    3    3    0    0  0.92315055456E-01  0.86686277078E-01 -0.31049508861E-01  0.13776245482E+00  0.44472934010E-01 0.  0.
         14    1    1    2    0    0  0.95955782861E-02  0.10584985525E-01 -0.15157559555E-02  0.14367134625E-01  0.00000000000E+00 0.  1.
     999901    1    3    3    0    0 -0.10191063374E+00 -0.97271262603E-01  0.32565264817E-01  0.89180041056E+00  0.88000000000E+00 0. -1.
        -11    1    4    4    0    0  0.25678570007E-01  0.47114310685E-01 -0.27210722737E-01  0.60165037870E-01  0.51100000000E-03 0.  1.
         11    1    4    4    0    0  0.66636485449E-01  0.39571966392E-01 -0.38387861238E-02  0.77597416948E-01  0.51100000000E-03 0. -1.
</event>
<event>
 8    1  0.2837913E+004  0.1043930E+01  0.7957747E-01            NaN
         13   -1    0    0    0    0  0.00000000000E+00  0.00000000000E+00  0.74505805969E-08  0.10566000000E+00  0.10566000000E+00 0.  1.
     999900   -1    0    0    0    0 -0.00000000000E+00 -0.00000000000E+00 -0.74505805969E-08  0.93827000000E+00  0.93827000000E+00 0.  1.
     999902    2    1    2    0    0  0.13187185272E-01  0.55244637146E-02 -0.15620605163E-02  0.10295473164E+01  0.10294468491E+01 0.  0.
     999903    2    3    3    0    0 -0.12297094565E+00 -0.18302023866E-02 -0.44198711366E-01  0.13802557705E+00  0.44410930170E-01 0.  0.
         14    1    1    2    0    0 -0.13187185272E-01 -0.55244637146E-02  0.15620605163E-02  0.14382683609E-01  0.00000000000E+00 0.  1.
     999901    1    3    3    0    0  0.13615813092E+00  0.73546661012E-02  0.42636650849E-01  0.89152173934E+00  0.88000000000E+00 0. -1.
        -11    1    4    4    0    0 -0.57837841992E-01  0.26133595411E-04  0.24426475906E-02  0.57891659999E-01  0.51100000000E-03 0. -1.
         11    1    4    4    0    0 -0.65133103655E-01 -0.18563359820E-02 -0.46641358956E-01  0.80133917047E-01  0.51100000000E-03 0.  1.
</event>
<event>
 8    1  0.2837913E+004  0.1043930E+01  0.7957747E-01            NaN
         13   -1    0    0    0    0  0.00000000000E+00  0.00000000000E+00  0.74505805969E-08  0.10566000000E+00  0.10566000000E+00 0.  1.
     999900   -1    0    0    0    0 -0.00000000000E+00 -0.00000000000E+00 -0.74505805969E-08  0.93827000000E+00  0.93827000000E+00 0.  1.
     999902    2    1    2    0    0  0.12429590776E-01 -0.56574869492E-02  0.25747910092E-02  0.10300328264E+01  0.10299390720E+01 0.  0.
     999903    2    3    3    0    0 -0.77708563927E-01  0.10198463357E+00  0.26303529131E-01  0.13858750219E+00  0.45553635691E-01 0.  0.
         14    1    1    2    0    0 -0.12429590776E-01  0.56574869492E-02 -0.25747910092E-02  0.13897173604E-01  0.00000000000E+00 0. -1.
     999901    1    3    3    0    0  0.90138154703E-01 -0.10764212052E+00 -0.23728738121E-01  0.89144532421E+00  0.88000000000E+00 0.  1.
        -11    1    4    4    0    0 -0.21233705563E-01  0.58589530951E-01 -0.94941102399E-03  0.62327890156E-01  0.51100000000E-03 0. -1.
         11    1    4    4    0    0 -0.56474858365E-01  0.43395102622E-01  0.27252940154E-01  0.76259612030E-01  0.51100000000E-03 0.  1.
</event>
<event>
 8    1  0.2837913E+004  0.1043930E+01  0.7957747E-01            NaN
         13   -1    0    0    0    0  0.00000000000E+00  0.00000000000E+00  0.74505805969E-08  0.10566000000E+00  0.10566000000E+00 0. -1.
     999900   -1    0    0    0    0 -0.00000000000E+00 -0.00000000000E+00 -0.74505805969E-08  0.93827000000E+00  0.93827000000E+00 0. -1.
     999902    2    1    2    0    0  0.98971446530E-02  0.49075242985E-02 -0.83652992195E-02  0.10300730343E+01  0.10299798253E+01 0.  0.
     999903    2    3    3    0    0  0.71064257717E-03  0.57355169575E-01  0.11861011155E+00  0.13936662799E+00  0.45437626984E-01 0.  0.
         14    1    1    2    0    0 -0.98971446530E-02 -0.49075242985E-02  0.83652992195E-02  0.13856965687E-01  0.00000000000E+00 0. -1.
     999901    1    3    3    0    0  0.91865020758E-02 -0.52447645277E-01 -0.12697541077E+00  0.89070640632E+00  0.88000000000E+00 0. -1.
        -11    1    4    4    0    0  0.81310101684E-02  0.69440308845E-02  0.48109505423E-03  0.10715664456E-01  0.51100000000E-03 0.  1.
         11    1    4    4    0    0 -0.74203675912E-02  0.50411138691E-01  0.11812901650E+00  0.12865096354E+00  0.51100000000E-03 0. -1.
</event>
<event>
 8    1  0.2837913E+004  0.1043930E+01  0.7957747E-01            NaN
         13   -1    0    0    0    0  0.00000000000E+00  0.00000000000E+00  0.74505805969E-08  0.10566000000E+00  0.10566000000E+00 0. -1.
     999900   -1    0    0    0    0 -0.00000000000E+00 -0.00000000000E+00 -0.74505805969E-08  0.93827000000E+00  0.93827000000E+00 0. -1.
     999902    2    1    2    0    0 -0.61172010378E-02 -0.24670763081E-03  0.11067793006E-01  0.10312817964E+01  0.10312042312E+01 0.  0.
     999903    2    3    3    0    0  0.12621050774E+00  0.37036860307E-01  0.17848719903E-01  0.14058169649E+00  0.46301353123E-01 0.  0.
         14    1    1    2    0    0  0.61172010378E-02  0.24670763081E-03 -0.11067793006E-01  0.12648203636E-01  0.00000000000E+00 0.  1.
     999901    1    3    3    0    0 -0.13232770877E+00 -0.37283567938E-01 -0.67809268962E-02  0.89070009987E+00  0.88000000000E+00 0.  1.
        -11    1    4    4    0    0  0.73836215442E-01  0.18597949378E-03 -0.92884936197E-03  0.73844059891E-01  0.51100000000E-03 0. -1.
         11    1    4    4    0    0  0.52374292295E-01  0.36850880814E-01  0.18777569265E-01  0.66737636597E-01  0.51100000000E-03 0.  1.
</event>
<event>
 8    1  0.2837913E+004  0.1043930E+01  0.7957747E-01            NaN
         13   -1    0    0    0    0  0.00000000000E+00  0.00000000000E+00  0.74505805969E-08  0.10566000000E+00  0.10566000000E+00 0. -1.
     999900   -1    0    0    0    0 -0.00000000000E+00 -0.00000000000E+00 -0.74505805969E-08  0.93827000000E+00  0.93827000000E+00 0. -1.
     999902    2    1    2    0    0 -0.58667419080E-02 -0.99347225253E-02 -0.68753059589E-02  0.10304991696E+01  0.10304116417E+01 0.  0.
     999903    2    3    3    0    0  0.10624287286E+00 -0.13566616532E-01 -0.79344134311E-01  0.14042417984E+00  0.44179831549E-01 0.  0.
         14    1    1    2    0    0  0.58667419080E-02  0.99347225253E-02  0.68753059589E-02  0.13430830365E-01  0.00000000000E+00 0. -1.
     999901    1    3    3    0    0 -0.11210961477E+00  0.36318940066E-02  0.72468828352E-01  0.89007498980E+00  0.88000000000E+00 0.  1.
        -11    1    4    4    0    0  0.35493221829E-01 -0.13762350464E-01 -0.60440244209E-02  0.38548183333E-01  0.51100000000E-03 0. -1.
         11    1    4    4    0    0  0.70749651032E-01  0.19573393205E-03 -0.73300109890E-01  0.10187599651E+00  0.51100000000E-03 0.  1.
</event>
<event>
 8    1  0.2837913E+004  0.1043930E+01  0.7957747E-01            NaN
         13   -1    0    0    0    0  0.00000000000E+00  0.00000000000E+00  0.74505805969E-08  0.10566000000E+00  0.10566000000E+00 0. -1.
     999900   -1    0    0    0    0 -0.00000000000E+00 -0.00000000000E+00 -0.74505805969E-08  0.93827000000E+00  0.93827000000E+00 0.  1.
     999902    2    1    2    0    0 -0.57467900713E-02 -0.91758490010E-02 -0.88088778023E-02  0.10299722735E+01  0.10298776947E+01 0.  0.
     999903    2    3    3    0    0 -0.58213214087E-01  0.78245454128E-01  0.87890783984E-01  0.13882355724E+00  0.45122729866E-01 0.  0.
         14    1    1    2    0    0  0.57467900713E-02  0.91758490010E-02  0.88088778023E-02  0.13957726504E-01  0.00000000000E+00 0. -1.
     999901    1    3    3    0    0  0.52466424015E-01 -0.87421303129E-01 -0.96699661786E-01  0.89114871625E+00  0.88000000000E+00 0.  1.
        -11    1    4    4    0    0  0.23949949703E-02  0.16071793312E-01  0.31038505480E-01  0.35038385874E-01  0.51100000000E-03 0.  1.
         11    1    4    4    0    0 -0.60608209057E-01  0.62173660815E-01  0.56852278503E-01  0.10378517137E+00  0.51100000000E-03 0. -1.
</event>
<event>
 8    1  0.2837913E+004  0.1043930E+01  0.7957747E-01            NaN
         13   -1    0    0    0    0  0.00000000000E+00  0.00000000000E+00  0.74505805969E-08  0.10566000000E+00  0.10566000000E+00 0. -1.
     999900   -1    0    0    0    0 -0.00000000000E+00 -0.00000000000E+00 -0.74505805969E-08  0.93827000000E+00  0.93827000000E+00 0.  1.
     999902    2    1    2    0    0  0.11230356941E-01 -0.49261942923E-02 -0.62337380131E-02  0.10301732636E+01  0.10300814071E+01 0.  0.
     999903    2    3    3    0    0 -0.12995130873E+00 -0.26040666071E-02  0.18182171808E-01  0.13858266715E+00  0.44502139943E-01 0.  0.
         14    1    1    2    0    0 -0.11230356941E-01  0.49261942923E-02  0.62337380131E-02  0.13756736417E-01  0.00000000000E+00 0. -1.
     999901    1    3    3    0    0  0.14118166567E+00 -0.23221276852E-02 -0.24415909821E-01  0.89159059643E+00  0.88000000000E+00 0.  1.
        -11    1    4    4    0    0 -0.92562329029E-01 -0.22086877454E-01  0.10728501771E-01  0.95765216975E-01  0.51100000000E-03 0. -1.
         11    1    4    4    0    0 -0.37388979698E-01  0.19482810847E-01  0.74536700369E-02  0.42817450173E-01  0.51100000000E-03 0.  1.
</event>
<event>
 8    1  0.2837913E+004  0.1043930E+01  0.7957747E-01            NaN
         13   -1    0    0    0    0  0.00000000000E+00  0.00000000000E+00  0.74505805969E-08  0.10566000000E+00  0.10566000000E+00 0.  1.
     999900   -1    0    0    0    0 -0.00000000000E+00 -0.00000000000E+00 -0.74505805969E-08  0.93827000000E+00  0.93827000000E+00 0. -1.
     999902    2    1    2    0    0 -0.95405021698E-02 -0.22286711276E-01 -0.17108591350E-03  0.10196864864E+01  0.10193982453E+01 0.  0.
     999903    2    3    3    0    0  0.10286712298E+00 -0.64384692998E-01  0.21106560505E-01  0.13128317006E+00  0.45417509408E-01 0.  0.
         14    1    1    2    0    0  0.95405021698E-02  0.22286711276E-01  0.17108591350E-03  0.24243513597E-01  0.00000000000E+00 0. -1.
     999901    1    3    3    0    0 -0.11240762515E+00  0.42097981722E-01 -0.21277646418E-01  0.88840331635E+00  0.88000000000E+00 0.  1.
        -11    1    4    4    0    0  0.13773001282E-01 -0.31395384297E-01  0.18014786389E-02  0.34334707888E-01  0.51100000000E-03 0.  1.
         11    1    4    4    0    0  0.89094121699E-01 -0.32989308701E-01  0.19305081866E-01  0.96948462168E-01  0.51100000000E-03 0. -1.
</event>
<event>
 8    1  0.2837913E+004  0.1043930E+01  0.7957747E-01            NaN
         13   -1    0    0    0    0  0.00000000000E+00  0.00000000000E+00  0.74505805969E-08  0.10566000000E+00  0.10566000000E+00 0.  1.
     999900   -1    0    0    0    0 -0.00000000000E+00 -0.00000000000E+00 -0.74505805969E-08  0.93827000000E+00  0.93827000000E+00 0.  1.
     999902    2    1    2    0    0  0.85202722379E-02 -0.10729670099E-01 -0.26242708402E-02  0.10299798152E+01  0.10298853392E+01 0.  0.
     999903    2    3    3    0    0 -0.24009266092E-01 -0.83071335290E-01 -0.10174216815E+00  0.14087023533E+00  0.44896133668E-01 0.  0.
         14    1    1    2    0    0 -0.85202722379E-02  0.10729670099E-01  0.26242708402E-02  0.13950184834E-01  0.00000000000E+00 0.  1.
     999901    1    3    3    0    0  0.32529538330E-01  0.72341665190E-01  0.99117897306E-01  0.88910957983E+00  0.88000000000E+00 0. -1.
        -11    1    4    4    0    0 -0.16693437157E-01 -0.66824569597E-02 -0.34190481506E-01  0.38633874020E-01  0.51100000000E-03 0. -1.
         11    1    4    4    0    0 -0.73158289357E-02 -0.76388878330E-01 -0.67551686640E-01  0.10223636131E+00  0.51100000000E-03 0.  1.
</event>
<event>
 8    1  0.2837913E+004  0.1043930E+01  0.7957747E-01            NaN
         13   -1    0    0    0    0  0.00000000000E+00  0.00000000000E+00  0.74505805969E-08  0.10566000000E+00  0.10566000000E+00 0. -1.
     999900   -1    0    0    0    0 -0.00000000000E+00 -0.00000000000E+00 -0.74505805969E-08  0.93827000000E+00  0.93827000000E+00 0. -1.
     999902    2    1    2    0    0  0.65919681305E-02  0.10959594956E-01  0.65373766442E-02  0.10295667114E+01  0.10294665168E+01 0.  0.
     999903    2    3    3    0    0 -0.96796840018E-01 -0.56152223199E-02  0.90031612311E-01  0.13943455404E+00  0.43990279438E-01 0.  0.
         14    1    1    2    0    0 -0.65919681305E-02 -0.10959594956E-01 -0.65373766442E-02  0.14363288580E-01  0.00000000000E+00 0.  1.
     999901    1    3    3    0    0  0.10338880815E+00  0.16574817276E-01 -0.83494235666E-01  0.89013215738E+00  0.88000000000E+00 0. -1.
        -11    1    4    4    0    0 -0.49336021875E-01  0.15509398920E-01  0.29033938194E-01  0.59311172618E-01  0.51100000000E-03 0.  1.
         11    1    4    4    0    0 -0.47460818143E-01 -0.21124621239E-01  0.60997674117E-01  0.80123381419E-01  0.51100000000E-03 0. -1.
</event>
<event>
 8    1  0.2837913E+004  0.1043930E+01  0.7957747E-01            NaN
         13   -1    0    0    0    0  0.00000000000E+00  0.00000000000E+00  0.74505805969E-08  0.10566000000E+00  0.10566000000E+00 0. -1.
     999900   -1    0    0    0    0 -0.00000000000E+00 -0.00000000000E+00 -0.74505805969E-08  0.93827000000E+00  0.93827000000E+00 0. -1.
     999902    2    1    2    0    0 -0.91264308799E-02  0.38779468770E-02  0.10232288708E-01  0.10296811423E+01  0.10295825489E+01 0.  0.
     999903    2    3    3    0    0  0.54182862305E-01 -0.77101323168E-01 -0.90017898384E-01  0.13804455224E+00  0.45526692961E-01 0.  0.
         14    1    1    2    0    0  0.91264308799E-02 -0.38779468770E-02 -0.10232288708E-01  0.14248857666E-01  0.00000000000E+00 0.  1.
     999901    1    3    3    0    0 -0.63309293185E-01  0.80979270045E-01  0.10025018709E+00  0.89163659009E+00  0.88000000000E+00 0.  1.
        -11    1    4    4    0    0  0.47222993048E-01 -0.29881053975E-01 -0.38809473870E-01  0.68039141986E-01  0.51100000000E-03 0.  1.
         11    1    4    4    0    0  0.69598692566E-02 -0.47220269192E-01 -0.51208424515E-01  0.70005410255E-01  0.51100000000E-03 0. -1.
</event>
<event>
 8    1  0.2837913E+004  0.1043930E+01  0.7957747E-01            NaN
         13   -1    0    0    0    0  0.00000000000E+00  0.00000000000E+00  0.74505805969E-08  0.10566000000E+00  0.10566000000E+00 0. -1.
     999900   -1    0    0    0    0 -0.00000000000E+00 -0.00000000000E+00 -0.74505805969E-08  0.93827000000E+00  0.93827000000E+00 0.  1.
     999902    2    1    2    0    0 -0.40911959973E-02  0.99553479718E-02  0.76731798139E-02  0.10307116595E+01  0.10306268968E+01 0.  0.
     999903    2    3    3    0    0 -0.10269558928E+00  0.70564148146E-01 -0.48742190759E-01  0.14134168748E+00  0.45563015697E-01 0.  0.
         14    1    1    2    0    0  0.40911959973E-02 -0.99553479718E-02 -0.76731798139E-02  0.13218340531E-01  0.00000000000E+00 0.  1.
     999901    1    3    3    0    0  0.98604393284E-01 -0.60608800174E-01  0.56415370572E-01  0.88936997199E+00  0.88000000000E+00 0. -1.
        -11    1    4    4    0    0 -0.52548915332E-01  0.36647024349E-01 -0.72836473569E-03  0.64071713980E-01  0.51100000000E-03 0. -1.
         11    1    4    4    0    0 -0.50146673949E-01  0.33917123797E-01 -0.48013826023E-01  0.77269973503E-01  0.51100000000E-03 0.  1.
</event>
<event>
 8    1  0.2837913E+004  0.1043930E+01  0.7957747E-01            NaN
         13   -1    0    0    0    0  0.00000000000E+00  0.00000000000E+00  0.74505805969E-08  0.10566000000E+00  0.10566000000E+00 0.  1.
     999900   -1    0    0    0    0 -0.00000000000E+00 -0.00000000000E+00 -0.74505805969E-08  0.93827000000E+00  0.93827000000E+00 0. -1.
     999902    2    1    2    0    0  0.54682614175E-02  0.97817887328E-02 -0.64924399305E-02  0.10309786661E+01  0.10308973144E+01 0.  0.
     999903    2    3    3    0    0 -0.57019717141E-02  0.81183548895E-01 -0.10953912897E+00  0.14202332099E+00  0.39351262200E-01 0.  0.
         14    1    1    2    0    0 -0.54682614175E-02 -0.97817887328E-02  0.64924399305E-02  0.12951333908E-01  0.00000000000E+00 0.  1.
     999901    1    3    3    0    0  0.11170233132E-01 -0.71401760162E-01  0.10304668904E+00  0.88895534510E+00  0.88000000000E+00 0. -1.
        -11    1    4    4    0    0  0.72545486924E-02  0.29402327924E-01 -0.67814363454E-01  0.74270952436E-01  0.51100000000E-03 0. -1.
         11    1    4    4    0    0 -0.12956520406E-01  0.51781220970E-01 -0.41724765517E-01  0.67752368554E-01  0.51100000000E-03 0.  1.
</event>
<event>
 8    1  0.2837913E+004  0.1043930E+01  0.7957747E-01            NaN
         13   -1    0    0    0    0  0.00000000000E+00  0.00000000000E+00  0.74505805969E-08  0.10566000000E+00  0.10566000000E+00 0. -1.
     999900   -1    0    0    0    0 -0.00000000000E+00 -0.00000000000E+00 -0.74505805969E-08  0.93827000000E+00  0.93827000000E+00 0. -1.
     999902    2    1    2    0    0  0.99642311056E-02 -0.35552794715E-02  0.10545139034E-01  0.10289926016E+01  0.10288841763E+01 0.  0.
     999903    2    3    3    0    0  0.68184250260E-01  0.69913468747E-01 -0.87905239418E-01  0.13855467305E+00  0.43966819418E-01 0.  0.
         14    1    1    2    0    0 -0.99642311056E-02  0.35552794715E-02 -0.10545139034E-01  0.14937398398E-01  0.00000000000E+00 0.  1.
     999901    1    3    3    0    0 -0.58220019155E-01 -0.73468748219E-01  0.98450378452E-01  0.89043792856E+00  0.88000000000E+00 0. -1.
        -11    1    4    4    0    0  0.27564022603E-01  0.43320366077E-01 -0.69979642031E-01  0.86797700885E-01  0.51100000000E-03 0.  1.
         11    1    4    4    0    0  0.40620227657E-01  0.26593102670E-01 -0.17925597387E-01  0.51756972160E-01  0.51100000000E-03 0. -1.
</event>
<event>
 8    1  0.2837913E+004  0.1043930E+01  0.7957747E-01            NaN
         13   -1    0    0    0    0  0.00000000000E+00  0.00000000000E+00  0.74505805969E-08  0.10566000000E+00  0.10566000000E+00 0.  1.
     999900   -1    0    0    0    0 -0.00000000000E+00 -0.00000000000E+00 -0.74505805969E-08  0.93827000000E+00  0.93827000000E+00 0.  1.
     999902    2    1    2    0    0  0.10653163351E-01  0.73758898521E-02  0.91527519188E-02  0.10280659996E+01  0.10279435943E+01 0.  0.
     999903    2    3    3    0    0 -0.11791486392E+00  0.34565766484E-01  0.42343041786E-01  0.13768932519E+00  0.45461079353E-01 0.  0.
         14    1    1    2    0    0 -0.10653163351E-01 -0.73758898521E-02 -0.91527519188E-02  0.15864000384E-01  0.00000000000E+00 0.  1.
     999901    1    3    3    0    0  0.12856802727E+00 -0.27189876632E-01 -0.33190289867E-01  0.89037667443E+00  0.88000000000E+00 0.  1.
        -11    1    4    4    0    0 -0.30368535157E-02  0.45834967005E-02  0.14817690791E-01  0.15813159162E-01  0.51100000000E-03 0.  1.
         11    1    4    4    0    0 -0.11487801041E+00  0.29982269783E-01  0.27525350994E-01  0.12187616602E+00  0.51100000000E-03 0. -1.
</event>
<event>
 8    1  0.2837913E+004  0.1043930E+01  0.7957747E-01            NaN
         13   -1    0    0    0    0  0.00000000000E+00  0.00000000000E+00  0.74505805969E-08  0.10566000000E+00  0.10566000000E+00 0.  1.
     999900   -1    0    0    0    0 -0.00000000000E+00 -0.00000000000E+00 -0.74505805969E-08  0.93827000000E+00  0.93827000000E+00 0. -1.
     999902    2    1    2    0    0 -0.10737325877E-03  0.11953488478E-01  0.71394694465E-02  0.10300062994E+01  0.10299121842E+01 0.  0.
     999903    2    3    3    0    0 -0.89893870081E-02  0.18948011162E-01 -0.12982509362E+00  0.13933963609E+00  0.46055868750E-01 0.  0.
         14    1    1    2    0    0  0.10737325877E-03 -0.11953488478E-01 -0.71394694465E-02  0.13923700650E-01  0.00000000000E+00 0. -1.
     999901    1    3    3    0    0  0.88820137493E-02 -0.69945226845E-02  0.13696456306E+00  0.89066666326E+00  0.88000000000E+00 0.  1.
        -11    1    4    4    0    0  0.13809290722E-01  0.10973307646E-01 -0.96948443784E-01  0.98541219112E-01  0.51100000000E-03 0. -1.
         11    1    4    4    0    0 -0.22798677730E-01  0.79747035160E-02 -0.32876649832E-01  0.40798416974E-01  0.51100000000E-03 0.  1.
</event>
<event>
 8    1  0.2837913E+004  0.1043930E+01  0.7957747E-01            NaN
         13   -1    0    0    0    0  0.00000000000E+00  0.00000000000E+00  0.74505805969E-08  0.10566000000E+00  0.10566000000E+00 0.  1.
     999900   -1    0    0    0    0 -0.00000000000E+00 -0.00000000000E+00 -0.74505805969E-08  0.93827000000E+00  0.93827000000E+00 0. -1.
     999902    2    1    2    0    0  0.10199943801E-01  0.92527382763E-02 -0.31255514113E-02  0.10298083467E+01  0.10297115178E+01 0.  0.
     999903    2    3    3    0    0 -0.77387775463E-01  0.49438855576E-01 -0.95206814386E-01  0.13977155448E+00  0.45151763020E-01 0.  0.
         14    1    1    2    0    0 -0.10199943801E-01 -0.92527382763E-02  0.31255514113E-02  0.14121653260E-01  0.00000000000E+00 0. -1.
     999901    1    3    3    0    0  0.87587719265E-01 -0.40186117300E-01  0.92081262975E-01  0.89003679226E+00  0.88000000000E+00 0.  1.
        -11    1    4    4    0    0 -0.43856909592E-01  0.52451505555E-01 -0.68637828989E-01  0.96881379240E-01  0.51100000000E-03 0.  1.
         11    1    4    4    0    0 -0.33530865871E-01 -0.30126499795E-02 -0.26568985397E-01  0.42890175238E-01  0.51100000000E-03 0. -1.
</event>
<event>
 8    1  0.2837913E+004  0.1043930E+01  0.7957747E-01            NaN
         13   -1    0    0    0    0  0.00000000000E+00  0.00000000000E+00  0.74505805969E-08  0.10566000000E+00  0.10566000000E+00 0.  1.
     999900   -1    0    0    0    0 -0.00000000000E+00 -0.00000000000E+00 -0.74505805969E-08  0.93827000000E+00  0.93827000000E+00 0.  1.
     999902    2    1    2    0    0  0.57618189161E-02 -0.48178846118E-02  0.11491704780E-01  0.10302015679E+01  0.10301100915E+01 0.  0.
     999903    2    3    3    0    0 -0.10106700130E+00  0.42467127314E-01  0.74926907423E-01  0.14021713313E+00  0.45042283627E-01 0.  0.
         14    1    1    2    0    0 -0.57618189161E-02  0.48178846118E-02 -0.11491704780E-01  0.13728432107E-01  0.00000000000E+00 0. -1.
     999901    1    3    3    0    0  0.10682882021E+00 -0.47285011926E-01 -0.63435202643E-01  0.88998443476E+00  0.88000000000E+00 0.  1.
        -11    1    4    4    0    0 -0.60584444601E-01  0.47436079947E-01  0.41159642182E-01  0.87264161451E-01  0.51100000000E-03 0. -1.
         11    1    4    4    0    0 -0.40482556697E-01 -0.49689526324E-02  0.33767265242E-01  0.52952971682E-01  0.51100000000E-03 0.  1.
</event>
<event>
 8    1  0.2837913E+004  0.1043930E+01  0.7957747E-01            NaN
         13   -1    0    0    0    0  0.00000000000E+00  0.00000000000E+00  0.74505805969E-08  0.10566000000E+00  0.10566000000E+00 0. -1.
     999900   -1    0    0    0    0 -0.00000000000E+00 -0.00000000000E+00 -0.74505805969E-08  0.93827000000E+00  0.93827000000E+00 0.  1.
     999902    2    1    2    0    0  0.67475040920E-02 -0.29772660673E-04 -0.13239914183E-01  0.10290698174E+01  0.10289625183E+01 0.  0.
     999903    2    3    3    0    0 -0.11912753729E+00 -0.39814860568E-02 -0.55264025986E-01  0.13911129704E+00  0.45723276602E-01 0.  0.
         14    1    1    2    0    0 -0.67475040920E-02  0.29772660673E-04  0.13239914183E-01  0.14860182551E-01  0.00000000000E+00 0. -1.
     999901    1    3    3    0    0  0.12587504138E+00  0.39517133962E-02  0.42024111804E-01  0.88995852041E+00  0.88000000000E+00 0. -1.
        -11    1    4    4    0    0 -0.79473510629E-01  0.16915822864E-01 -0.45878964262E-01  0.93313045377E-01  0.51100000000E-03 0.  1.
         11    1    4    4    0    0 -0.39654026660E-01 -0.20897308921E-01 -0.93850617240E-02  0.45798251659E-01  0.51100000000E-03 0. -1.
</event>
<event>
 8    1  0.2837913E+004  0.1043930E+01  0.7957747E-01            NaN
         13   -1    0    0    0    0  0.00000000000E+00  0.00000000000E+00  0.74505805969E-08  0.10566000000E+00  0.10566000000E+00 0. -1.
     999900   -1    0    0    0    0 -0.00000000000E+00 -0.00000000000E+00 -0.74505805969E-08  0.93827000000E+00  0.93827000000E+00 0. -1.
     999902    2    1    2    0    0  0.17992231964E-02  0.18381293574E-02 -0.13801620955E-01  0.10298907456E+01  0.10297950511E+01 0.  0.
     999903    2    3    3    0    0 -0.90567410905E-01  0.51152790264E-01  0.79969659907E-01  0.13873611030E+00  0.45094322534E-01 0.  0.
         14    1    1    2    0    0 -0.17992231964E-02 -0.18381293574E-02  0.13801620955E-01  0.14039254418E-01  0.00000000000E+00 0. -1.
     999901    1    3    3    0    0  0.92366634102E-01 -0.49314660906E-01 -0.93771280862E-01  0.89115463529E+00  0.88000000000E+00 0. -1.
        -11    1    4    4    0    0 -0.62682260155E-01  0.35719797791E-01  0.78800179071E-01  0.10683959488E+00  0.51100000000E-03 0.  1.
         11    1    4    4    0    0 -0.27885150750E-01  0.15432992473E-01  0.11694808356E-02  0.31896515412E-01  0.51100000000E-03 0. -1.
</event>
<event>
 8    1  0.2837913E+004  0.1043930E+01  0.7957747E-01            NaN
         13   -1    0    0    0    0  0.00000000000E+00  0.00000000000E+00  0.74505805969E-08  0.10566000000E+00  0.10566000000E+00 0.  1.
     999900   -1    0    0    0    0 -0.00000000000E+00 -0.00000000000E+00 -0.74505805969E-08  0.93827000000E+00  0.93827000000E+00 0.  1.
     999902    2    1    2    0    0 -0.79004476062E-02 -0.42263663963E-02 -0.10021566037E-01  0.10304871197E+01  0.10303994336E+01 0.  0.
     999903    2    3    3    0    0 -0.12584454100E+00  0.12593234568E-01  0.42305481263E-01  0.14091878166E+00  0.45529234799E-01 0.  0.
         14    1    1    2    0    0  0.79004476062E-02  0.42263663963E-02  0.10021566037E-01  0.13442880313E-01  0.00000000000E+00 0.  1.
     999901    1    3    3    0    0  0.11794409340E+00 -0.16819600964E-01 -0.52327047300E-01  0.88956833803E+00  0.88000000000E+00 0. -1.
        -11    1    4    4    0    0 -0.94617761609E-03  0.56938929629E-02  0.10270047889E-01  0.11791974974E-01  0.51100000000E-03 0.  1.
         11    1    4    4    0    0 -0.12489836339E+00  0.68993416050E-02  0.32035433374E-01  0.12912680668E+00  0.51100000000E-03 0. -1.
</event>
<event>
 8    1  0.2837913E+004  0.1043930E+01  0.7957747E-01            NaN
         13   -1    0    0    0    0  0.00000000000E+00  0.00000000000E+00  0.74505805969E-08  0.10566000000E+00  0.10566000000E+00 0. -1.
     999900   -1    0    0    0    0 -0.00000000000E+00 -0.00000000000E+00 -0.74505805969E-08  0.93827000000E+00  0.93827000000E+00 0. -1.
     999902    2    1    2    0    0  0.91374135792E-02 -0.32320159641E-02  0.18757971952E-01  0.10228160291E+01  0.10225980783E+01 0.  0.
     999903    2    3    3    0    0 -0.12319931284E+00  0.16564166860E-01 -0.72132048256E-02  0.13232212121E+00  0.44773553915E-01 0.  0.
         14    1    1    2    0    0 -0.91374135792E-02  0.32320159641E-02 -0.18757971952E-01  0.21113970869E-01  0.00000000000E+00 0.  1.
     999901    1    3    3    0    0  0.13233672642E+00 -0.19796182824E-01  0.25971176778E-01  0.89049390792E+00  0.88000000000E+00 0. -1.
        -11    1    4    4    0    0 -0.91873443310E-01  0.17597794295E-01  0.13837199753E-01  0.94562895301E-01  0.51100000000E-03 0.  1.
         11    1    4    4    0    0 -0.31325869532E-01 -0.10336274350E-02 -0.21050404579E-01  0.37759225913E-01  0.51100000000E-03 0. -1.
</event>
<event>
 8    1  0.2837913E+004  0.1043930E+01  0.7957747E-01            NaN
         13   -1    0    0    0    0  0.00000000000E+00  0.00000000000E+00  0.74505805969E-08  0.10566000000E+00  0.10566000000E+00 0.  1.
     999900   -1    0    0    0    0 -0.00000000000E+00 -0.00000000000E+00 -0.74505805969E-08  0.93827000000E+00  0.93827000000E+00 0.  1.
     999902    2    1    2    0    0 -0.28425869288E-02  0.44457182456E-02 -0.12519423474E-01  0.10303439529E+01  0.10302543767E+01 0.  0.
     999903    2    3    3    0    0 -0.14811625038E-01 -0.98375824924E-02 -0.13317894996E+00  0.14191500703E+00  0.45684507694E-01 0.  0.
         14    1    1    2    0    0  0.28425869288E-02 -0.44457182456E-02  0.12519423474E-01  0.13586047081E-01  0.00000000000E+00 0.  1.
     999901    1    3    3    0    0  0.11969038109E-01  0.14283300738E-01  0.12065952649E+00  0.88842894588E+00  0.88000000000E+00 0. -1.
        -11    1    4    4    0    0 -0.19753264747E-01 -0.18870655227E-01 -0.41682355125E-01  0.49839471773E-01  0.51100000000E-03 0. -1.
         11    1    4    4    0    0  0.49416397087E-02  0.90330727347E-02 -0.91496594836E-01  0.92075535261E-01  0.51100000000E-03 0.  1.
</event>
<event>
 7    1  0.2837913E+004  0.1043930E+01  0.7957747E-01            NaN
         13   -1    0    0    0    0  0.00000000000E+00  0.00000000000E+00  0.74505805969E-08  0.10566000000E+00  0.10566000000E+00 0. -1.
     999900   -1    0    0    0    0 -0.00000000000E+00 -0.00000000000E+00 -0.74505805969E-08  0.93827000000E+00  0.93827000000E+00 0. -1.
     999903    2    1    2    0    0 -0.61517400115E-01 -0.81683906308E-01 -0.20984607186E-01  0.11342123432E+00  0.44355062731E-01 0.  0.
         14    1    1    2    0    0 -0.22712056067E-01  0.29377497320E-01  0.25295469046E-01  0.44930341572E-01  0.00000000000E+00 0. -1.
     999901    1    1    2    0    0  0.84229456182E-01  0.52306408988E-01 -0.43108618595E-02  0.88557842410E+00  0.88000000000E+00 0.  1.
        -11    1    3    3    0    0  0.28949977851E-02 -0.58888002742E-02  0.74760486637E-02  0.99604922301E-02  0.51100000000E-03 0.  1.
         11    1    3    3    0    0 -0.64412397900E-01 -0.75795106034E-01 -0.28460655850E-01  0.10346074209E+00  0.51100000000E-03 0. -1.
</event>
<event>
 8    1  0.2837913E+004  0.1043930E+01  0.7957747E-01            NaN
         13   -1    0    0    0    0  0.00000000000E+00  0.00000000000E+00  0.74505805969E-08  0.10566000000E+00  0.10566000000E+00 0. -1.
     999900   -1    0    0    0    0 -0.00000000000E+00 -0.00000000000E+00 -0.74505805969E-08  0.93827000000E+00  0.93827000000E+00 0.  1.
     999902    2    1    2    0    0  0.14271976005E-02 -0.43604836423E-02  0.13172009253E-01  0.10299817909E+01  0.10298873419E+01 0.  0.
     999903    2    3    3    0    0  0.77651879766E-01  0.10735195371E-01 -0.10499951849E+00  0.13868913877E+00  0.45439184391E-01 0.  0.
         14    1    1    2    0    0 -0.14271976005E-02  0.43604836423E-02 -0.13172009253E-01  0.13948209145E-01  0.00000000000E+00 0.  1.
     999901    1    3    3    0    0 -0.76224682165E-01 -0.15095679014E-01  0.11817152774E+00  0.89129265209E+00  0.88000000000E+00 0. -1.
        -11    1    4    4    0    0  0.17958860396E-01 -0.22503179332E-02 -0.10748179472E-02  0.18138383394E-01  0.51100000000E-03 0.  1.
         11    1    4    4    0    0  0.59693019370E-01  0.12985513305E-01 -0.10392470054E+00  0.12055075537E+00  0.51100000000E-03 0. -1.
</event>
<event>
 8    1  0.2837913E+004  0.1043930E+01  0.7957747E-01            NaN
         13   -1    0    0    0    0  0.00000000000E+00  0.00000000000E+00  0.74505805969E-08  0.10566000000E+00  0.10566000000E+00 0. -1.
     999900   -1    0    0    0    0 -0.00000000000E+00 -0.00000000000E+00 -0.74505805969E-08  0.93827000000E+00  0.93827000000E+00 0. -1.
     999902    2    1    2    0    0 -0.80145230218E-02  0.40460604767E-02  0.86710741608E-02  0.10314483851E+01  0.10313728619E+01 0.  0.
     999903    2    3    3    0    0  0.42746959200E-01 -0.11855083448E+00  0.43101028690E-01  0.14083502983E+00  0.45773399233E-01 0.  0.
         14    1    1    2    0    0  0.80145230218E-02 -0.40460604767E-02 -0.86710741608E-02  0.12481614950E-01  0.00000000000E+00 0.  1.
     999901    1    3    3    0    0 -0.50761482222E-01  0.12259689495E+00 -0.34429954530E-01  0.89061335522E+00  0.88000000000E+00 0.  1.
        -11    1    4    4    0    0  0.11502534111E-01 -0.85609577088E-01  0.40369357030E-01  0.95348068088E-01  0.51100000000E-03 0.  1.
         11    1    4    4    0    0  0.31244425089E-01 -0.32941257387E-01  0.27316716601E-02  0.45486961741E-01  0.51100000000E-03 0. -1.
</event>
<event>
 7    1  0.2837913E+004  0.1043930E+01  0.7957747E-01            NaN
         13   -1    0    0    0    0  0.00000000000E+00  0.00000000000E+00  0.74505805969E-08  0.10566000000E+00  0.10566000000E+00 0.  1.
     999900   -1    0    0    0    0 -0.00000000000E+00 -0.00000000000E+00 -0.74505805969E-08  0.93827000000E+00  0.93827000000E+00 0. -1.
     999903    2    1    2    0    0 -0.42961203457E-01  0.43891393248E-02 -0.90567318467E-01  0.10995801217E+00  0.44982171128E-01 0.  0.
         14    1    1    2    0    0 -0.35883488015E-01  0.15849099553E-01 -0.18752310029E-01  0.43479510119E-01  0.00000000000E+00 0. -1.
     999901    1    1    2    0    0  0.78844691472E-01 -0.20238238878E-01  0.10931962850E+00  0.89049247771E+00  0.88000000000E+00 0.  1.
        -11    1    3    3    0    0 -0.28790916406E-01 -0.18618862799E-01 -0.40542063239E-01  0.53098954153E-01  0.51100000000E-03 0.  1.
         11    1    3    3    0    0 -0.14170287051E-01  0.23008002124E-01 -0.50025255228E-01  0.56859058016E-01  0.51100000000E-03 0. -1.
</event>
<event>
 8    1  0.2837913E+004  0.1043930E+01  0.7957747E-01            NaN
         13   -1    0    0    0    0  0.00000000000E+00  0.00000000000E+00  0.74505805969E-08  0.10566000000E+00  0.10566000000E+00 0.  1.
     999900   -1    0    0    0    0 -0.00000000000E+00 -0.00000000000E+00 -0.74505805969E-08  0.93827000000E+00  0.93827000000E+00 0.  1.
     999902    2    1    2    0    0  0.94064029612E-02  0.99790129585E-02 -0.28827945105E-02  0.10299167341E+01  0.10298213960E+01 0.  0.
     999903    2    3    3    0    0  0.66921350168E-01  0.53506559152E-01  0.10273736504E+00  0.14067085444E+00  0.43496024335E-01 0.  0.
         14    1    1    2    0    0 -0.94064029612E-02 -0.99790129585E-02  0.28827945105E-02  0.14013265875E-01  0.00000000000E+00 0.  1.
     999901    1    3    3    0    0 -0.57514947207E-01 -0.43527546193E-01 -0.10562015955E+00  0.88924587968E+00  0.88000000000E+00 0. -1.
        -11    1    4    4    0    0  0.39161410538E-01  0.55256848300E-02  0.32497424722E-01  0.51190751144E-01  0.51100000000E-03 0.  1.
         11    1    4    4    0    0  0.27759939630E-01  0.47980874322E-01  0.70239940320E-01  0.89480103297E-01  0.51100000000E-03 0. -1.
</event>
<event>
 8    1  0.2837913E+004  0.1043930E+01  0.7957747E-01            NaN
         13   -1    0    0    0    0  0.00000000000E+00  0.00000000000E+00  0.74505805969E-08  0.10566000000E+00  0.10566000000E+00 0.  1.
     999900   -1    0    0    0    0 -0.00000000000E+00 -0.00000000000E+00 -0.74505805969E-08  0.93827000000E+00  0.93827000000E+00 0.  1.
     999902    2    1    2    0    0 -0.52962847861E-02  0.90628177152E-02 -0.90090079273E-02  0.10300971579E+01  0.10300042753E+01 0.  0.
     999903    2    3    3    0    0 -0.13021456044E+00  0.26755227237E-01  0.14274659083E-01  0.14079421394E+00  0.44131291059E-01 0.  0.
         14    1    1    2    0    0  0.52962847861E-02 -0.90628177152E-02  0.90090079273E-02  0.13832842127E-01  0.00000000000E+00 0.  1.
     999901    1    3    3    0    0  0.12491827565E+00 -0.17692409521E-01 -0.23283667011E-01  0.88930294394E+00  0.88000000000E+00 0.  1.
        -11    1    4    4    0    0 -0.67831747794E-01 -0.68038082864E-02 -0.16248293306E-02  0.68193394162E-01  0.51100000000E-03 0.  1.
         11    1    4    4    0    0 -0.62382812646E-01  0.33559035523E-01  0.15899488414E-01  0.72600819773E-01  0.51100000000E-03 0. -1.
</event>
<event>
 8    1  0.2837913E+004  0.1043930E+01  0.7957747E-01            NaN
         13   -1    0    0    0    0  0.00000000000E+00  0.00000000000E+00  0.74505805969E-08  0.10566000000E+00  0.10566000000E+00 0. -1.
     999900   -1    0    0    0    0 -0.00000000000E+00 -0.00000000000E+00 -0.74505805969E-08  0.93827000000E+00  0.93827000000E+00 0. -1.
     999902    2    1    2    0    0 -0.22090707439E-02  0.93282480424E-02 -0.96797117531E-02  0.10303067469E+01  0.10302166761E+01 0.  0.
     999903    2    3    3    0    0  0.88243648968E-01 -0.63605342088E-01 -0.76335169824E-01  0.14016970512E+00  0.44585950220E-01 0.  0.
         14    1    1    2    0    0  0.22090707439E-02 -0.93282480424E-02  0.96797117531E-02  0.13623253089E-01  0.00000000000E+00 0. -1.
     999901    1    3    3    0    0 -0.90452719712E-01  0.72933590130E-01  0.66655458071E-01  0.89013704179E+00  0.88000000000E+00 0.  1.
        -11    1    4    4    0    0  0.85774353100E-01 -0.50405868946E-01 -0.78276904394E-01  0.12659196719E+00  0.51100000000E-03 0.  1.
         11    1    4    4    0    0  0.24692958677E-02 -0.13199473142E-01  0.19417345701E-02  0.13577737936E-01  0.51100000000E-03 0. -1.
</event>
<event>
 8    1  0.2837913E+004  0.1043930E+01  0.7957747E-01            NaN
         13   -1    0    0    0    0  0.00000000000E+00  0.00000000000E+00  0.74505805969E-08  0.10566000000E+00  0.10566000000E+00 0. -1.
     999900   -1    0    0    0    0 -0.00000000000E+00 -0.00000000000E+00 -0.74505805969E-08  0.93827000000E+00  0.93827000000E+00 0. -1.
     999902    2    1    2    0    0 -0.10792846265E-01 -0.27756202272E-02  0.88519279869E-02  0.10296981264E+01  0.10295997694E+01 0.  0.
     999903    2    3    3    0    0  0.23153889090E-02  0.97582414849E-01  0.90043017234E-01  0.14018390275E+00  0.44900923426E-01 0.  0.
         14    1    1    2    0    0  0.10792846265E-01  0.27756202272E-02 -0.88519279869E-02  0.14231873637E-01  0.00000000000E+00 0. -1.
     999901    1    3    3    0    0 -0.13108235174E-01 -0.10035803508E+00 -0.81191089247E-01  0.88951422361E+00  0.88000000000E+00 0. -1.
        -11    1    4    4    0    0 -0.94737629088E-02  0.73532349388E-03  0.11549210502E-01  0.14964567101E-01  0.51100000000E-03 0. -1.
         11    1    4    4    0    0  0.11789151818E-01  0.96847091355E-01  0.78493806732E-01  0.12521933565E+00  0.51100000000E-03 0.  1.
</event>
<event>
 8    1  0.2837913E+004  0.1043930E+01  0.7957747E-01            NaN
         13   -1    0    0    0    0  0.00000000000E+00  0.00000000000E+00  0.74505805969E-08  0.10566000000E+00  0.10566000000E+00 0. -1.
     999900   -1    0    0    0    0 -0.00000000000E+00 -0.00000000000E+00 -0.74505805969E-08  0.93827000000E+00  0.93827000000E+00 0.  1.
     999902    2    1    2    0    0 -0.10420554598E-01  0.46866104673E-02 -0.58982141544E-02  0.10310714929E+01  0.10309913104E+01 0.  0.
     999903    2    3    3    0    0  0.23583924304E-02 -0.13192684232E+00  0.14626711869E-01  0.14020236130E+00  0.45083341426E-01 0.  0.
         14    1    1    2    0    0  0.10420554598E-01 -0.46866104673E-02  0.58982141544E-02  0.12858507146E-01  0.00000000000E+00 0.  1.
     999901    1    3    3    0    0 -0.12778947028E-01  0.13661345279E+00 -0.20524926023E-01  0.89086913156E+00  0.88000000000E+00 0. -1.
        -11    1    4    4    0    0  0.14422219474E-01 -0.82501071558E-01 -0.87503205333E-02  0.84209598344E-01  0.51100000000E-03 0. -1.
         11    1    4    4    0    0 -0.12063827044E-01 -0.49425770763E-01  0.23377032402E-01  0.55992762955E-01  0.51100000000E-03 0.  1.
</event>
<event>
 8    1  0.2837913E+004  0.1043930E+01  0.7957747E-01            NaN
         13   -1    0    0    0    0  0.00000000000E+00  0.00000000000E+00  0.74505805969E-08  0.10566000000E+00  0.10566000000E+00 0. -1.
     999900   -1    0    0    0    0 -0.00000000000E+00 -0.00000000000E+00 -0.74505805969E-08  0.93827000000E+00  0.93827000000E+00 0.  1.
     999902    2    1    2    0    0  0.18801778527E-02  0.14355051356E-01 -0.20872548898E-02  0.10293026557E+01  0.10291987164E+01 0.  0.
     999903    2    3    3    0    0  0.15121967892E-01  0.12223610644E+00  0.52961349641E-01  0.14090859004E+00  0.43358811784E-01 0.  0.
         14    1    1    2    0    0 -0.18801778527E-02 -0.14355051356E-01  0.20872548898E-02  0.14627344297E-01  0.00000000000E+00 0.  1.
     999901    1    3    3    0    0 -0.13241790039E-01 -0.10788105509E+00 -0.55048604531E-01  0.88839406567E+00  0.88000000000E+00 0.  1.
        -11    1    4    4    0    0  0.56160718285E-02  0.93479901227E-01  0.58065977050E-01  0.11019052141E+00  0.51100000000E-03 0.  1.
         11    1    4    4    0    0  0.95058960631E-02  0.28756205216E-01 -0.51046274091E-02  0.30718068630E-01  0.51100000000E-03 0. -1.
</event>
<event>
 8    1  0.2837913E+004  0.1043930E+01  0.7957747E-01            NaN
         13   -1    0    0    0    0  0.00000000000E+00  0.00000000000E+00  0.74505805969E-08  0.10566000000E+00  0.10566000000E+00 0. -1.
     999900   -1    0    0    0    0 -0.00000000000E+00 -0.00000000000E+00 -0.74505805969E-08  0.93827000000E+00  0.93827000000E+00 0.  1.
     999902    2    1    2    0    0 -0.86210472630E-02  0.67782100030E-02 -0.11509323263E-01  0.10280324811E+01  0.10279095539E+01 0.  0.
     999903    2    3    3    0    0  0.36626481450E-01  0.12559013438E+00 -0.14435927624E-01  0.13889122273E+00  0.44362086847E-01 0.  0.
         14    1    1    2    0    0  0.86210472630E-02 -0.67782100030E-02  0.11509323263E-01  0.15897518949E-01  0.00000000000E+00 0. -1.
     999901    1    3    3    0    0 -0.45247528713E-01 -0.11881192438E+00  0.29266043610E-02  0.88914125832E+00  0.88000000000E+00 0. -1.
        -11    1    4    4    0    0  0.18696175318E-01  0.34115635534E-01  0.14135188071E-01  0.41394301808E-01  0.51100000000E-03 0.  1.
         11    1    4    4    0    0  0.17930306133E-01  0.91474498845E-01 -0.28571115695E-01  0.97496920926E-01  0.51100000000E-03 0. -1.
</event>
<event>
 8    1  0.2837913E+004  0.1043930E+01  0.7957747E-01            NaN
         13   -1    0    0    0    0  0.00000000000E+00  0.00000000000E+00  0.74505805969E-08  0.10566000000E+00  0.10566000000E+00 0.  1.
     999900   -1    0    0    0    0 -0.00000000000E+00 -0.00000000000E+00 -0.74505805969E-08  0.93827000000E+00  0.93827000000E+00 0. -1.
     999902    2    1    2    0    0  0.44697132427E-02 -0.79428088690E-02  0.73966187523E-02  0.10321921757E+01  0.10321254338E+01 0.  0.
     999903    2    3    3    0    0  0.81797073227E-01 -0.29171572190E-01  0.10475748059E+00  0.14319874584E+00  0.44609519836E-01 0.  0.
         14    1    1    2    0    0 -0.44697132427E-02  0.79428088690E-02 -0.73966187523E-02  0.11737824252E-01  0.00000000000E+00 0. -1.
     999901    1    3    3    0    0 -0.77327359985E-01  0.21228763321E-01 -0.97360861835E-01  0.88899342990E+00  0.88000000000E+00 0. -1.
        -11    1    4    4    0    0  0.23842236141E-02  0.43420632562E-02  0.25894411948E-01  0.26368915918E-01  0.51100000000E-03 0.  1.
         11    1    4    4    0    0  0.79412849613E-01 -0.33513635446E-01  0.78863068638E-01  0.11682982993E+00  0.51100000000E-03 0. -1.
</event>
<event>
 8    1  0.2837913E+004  0.1043930E+01  0.7957747E-01            NaN
         13   -1    0    0    0    0  0.00000000000E+00  0.00000000000E+00  0.74505805969E-08  0.10566000000E+00  0.10566000000E+00 0.  1.
     999900   -1    0    0    0    0 -0.00000000000E+00 -0.00000000000E+00 -0.74505805969E-08  0.93827000000E+00  0.93827000000E+00 0.  1.
     999902    2    1    2    0    0  0.46821779515E-02  0.12872358878E-01 -0.98570538554E-03  0.10301971187E+01  0.10301055826E+01 0.  0.
     999903    2    3    3    0    0  0.36204401949E-01 -0.12482269518E+00 -0.19292796448E-01  0.13874396340E+00  0.44566932059E-01 0.  0.
         14    1    1    2    0    0 -0.46821779515E-02 -0.12872358878E-01  0.98570538554E-03  0.13732881291E-01  0.00000000000E+00 0.  1.
     999901    1    3    3    0    0 -0.31522223997E-01  0.13769505406E+00  0.18307091062E-01  0.89145315530E+00  0.88000000000E+00 0. -1.
        -11    1    4    4    0    0  0.28540118026E-02 -0.17251652759E-01  0.12754658869E-01  0.21649650116E-01  0.51100000000E-03 0.  1.
         11    1    4    4    0    0  0.33350390146E-01 -0.10757104242E+00 -0.32047455317E-01  0.11709431329E+00  0.51100000000E-03 0. -1.
</event>
<event>
 8    1  0.2837913E+004  0.1043930E+01  0.7957747E-01            NaN
         13   -1    0    0    0    0  0.00000000000E+00  0.00000000000E+00  0.74505805969E-08  0.10566000000E+00  0.10566000000E+00 0.  1.
     999900   -1    0    0    0    0 -0.00000000000E+00 -0.00000000000E+00 -0.74505805969E-08  0.93827000000E+00  0.93827000000E+00 0.  1.
     999902    2    1    2    0    0 -0.31563370174E-02  0.17787098474E-02  0.13549218478E-01  0.10299047516E+01  0.10298092492E+01 0.  0.
     999903    2    3    3    0    0  0.33323944728E-01 -0.10478216670E+00 -0.71239379920E-01  0.13868360181E+00  0.45478614841E-01 0.  0.
         14    1    1    2    0    0  0.31563370174E-02 -0.17787098474E-02 -0.13549218478E-01  0.14025248427E-01  0.00000000000E+00 0. -1.
     999901    1    3    3    0    0 -0.36480281746E-01  0.10656087655E+00  0.84788598397E-01  0.89122114976E+00  0.88000000000E+00 0. -1.
        -11    1    4    4    0    0  0.24645332345E-02 -0.68696709035E-01 -0.56448210959E-01  0.88949274296E-01  0.51100000000E-03 0.  1.
         11    1    4    4    0    0  0.30859411494E-01 -0.36085457670E-01 -0.14791168961E-01  0.49734327514E-01  0.51100000000E-03 0. -1.
</event>
<event>
 7    1  0.2837913E+004  0.1043930E+01  0.7957747E-01            NaN
         13   -1    0    0    0    0  0.00000000000E+00  0.00000000000E+00  0.74505805969E-08  0.10566000000E+00  0.10566000000E+00 0. -1.
     999900   -1    0    0    0    0 -0.00000000000E+00 -0.00000000000E+00 -0.74505805969E-08  0.93827000000E+00  0.93827000000E+00 0. -1.
     999903    2    1    2    0    0  0.31978338981E-01 -0.96260566777E-01 -0.40266936474E-01  0.11839726378E+00  0.45910510979E-01 0.  0.
         14    1    1    2    0    0  0.25172997176E-02 -0.31913275287E-01  0.14661811744E-01  0.35210263575E-01  0.00000000000E+00 0.  1.
     999901    1    1    2    0    0 -0.34495638698E-01  0.12817384206E+00  0.25605124730E-01  0.89032247264E+00  0.88000000000E+00 0. -1.
        -11    1    3    3    0    0  0.33485091938E-01 -0.45168069159E-01 -0.53284605211E-02  0.56480611418E-01  0.51100000000E-03 0. -1.
         11    1    3    3    0    0 -0.15067529570E-02 -0.51092497618E-01 -0.34938475952E-01  0.61916652366E-01  0.51100000000E-03 0.  1.
</event>
<event>
 7    1  0.2837913E+004  0.1043930E+01  0.7957747E-01            NaN
         13   -1    0    0    0    0  0.00000000000E+00  0.00000000000E+00  0.74505805969E-08  0.10566000000E+00  0.10566000000E+00 0.  1.
     999900   -1    0    0    0    0 -0.00000000000E+00 -0.00000000000E+00 -0.74505805969E-08  0.93827000000E+00  0.93827000000E+00 0. -1.
     999903    2    1    2    0    0  0.53563544499E-01 -0.90104395698E-01 -0.26125733170E-01  0.11761338210E+00  0.46502669719E-01 0.  0.
         14    1    1    2    0    0  0.68749297082E-02  0.14786570702E-01  0.37573929685E-01  0.40959828169E-01  0.00000000000E+00 0.  1.
     999901    1    1    2    0    0 -0.60438474207E-01  0.75317824996E-01 -0.11448196516E-01  0.88535678974E+00  0.88000000000E+00 0. -1.
        -11    1    3    3    0    0  0.23984512380E-01 -0.45025117991E-01  0.10946896044E-01  0.52178671296E-01  0.51100000000E-03 0. -1.
         11    1    3    3    0    0  0.29579032119E-01 -0.45079277707E-01 -0.37072629214E-01  0.65434710800E-01  0.51100000000E-03 0.  1.
</event>
<event>
 8    1  0.2837913E+004  0.1043930E+01  0.7957747E-01            NaN
         13   -1    0    0    0    0  0.00000000000E+00  0.00000000000E+00  0.74505805969E-08  0.10566000000E+00  0.10566000000E+00 0. -1.
     999900   -1    0    0    0    0 -0.00000000000E+00 -0.00000000000E+00 -0.74505805969E-08  0.93827000000E+00  0.93827000000E+00 0. -1.
     999902    2    1    2    0    0  0.62976812415E-03 -0.66063126280E-02  0.12303063427E-01  0.10299512538E+01  0.10298563880E+01 0.  0.
     999903    2    3    3    0    0 -0.12622510630E+00 -0.72421143148E-02  0.40960397690E-01  0.14039304540E+00  0.45246296388E-01 0.  0.
         14    1    1    2    0    0 -0.62976812415E-03  0.66063126280E-02 -0.12303063427E-01  0.13978746156E-01  0.00000000000E+00 0.  1.
     999901    1    3    3    0    0  0.12685487442E+00  0.63580168675E-03 -0.28657334263E-01  0.88955820845E+00  0.88000000000E+00 0. -1.
        -11    1    4    4    0    0 -0.66574135953E-01 -0.41296109315E-02 -0.21309786952E-02  0.66738081000E-01  0.51100000000E-03 0. -1.
         11    1    4    4    0    0 -0.59650970346E-01 -0.31125033833E-02  0.43091376385E-01  0.73654964397E-01  0.51100000000E-03 0.  1.
</event>
<event>
 8    1  0.2837913E+004  0.1043930E+01  0.7957747E-01            NaN
         13   -1    0    0    0    0  0.00000000000E+00  0.00000000000E+00  0.74505805969E-08  0.10566000000E+00  0.10566000000E+00 0.  1.
     999900   -1    0    0    0    0 -0.00000000000E+00 -0.00000000000E+00 -0.74505805969E-08  0.93827000000E+00  0.93827000000E+00 0.  1.
     999902    2    1    2    0    0  0.13304575578E-01  0.88280509067E-02  0.71222758162E-02  0.10264464927E+01  0.10262975832E+01 0.  0.
     999903    2    3    3    0    0  0.77984296388E-01 -0.44106196762E-01  0.94887335087E-01  0.13814012299E+00  0.45300994967E-01 0.  0.
         14    1    1    2    0    0 -0.13304575578E-01 -0.88280509067E-02 -0.71222758162E-02  0.17483507283E-01  0.00000000000E+00 0.  1.
     999901    1    3    3    0    0 -0.64679720810E-01  0.52934247669E-01 -0.87765059271E-01  0.88830636972E+00  0.88000000000E+00 0.  1.
        -11    1    4    4    0    0  0.81543584846E-01 -0.43593607048E-01  0.78315204043E-01  0.12117463064E+00  0.51100000000E-03 0. -1.
         11    1    4    4    0    0 -0.35592884583E-02 -0.51258971472E-03  0.16572131045E-01  0.16965492357E-01  0.51100000000E-03 0.  1.
</event>
<event>
 8    1  0.2837913E+004  0.1043930E+01  0.7957747E-01            NaN
         13   -1    0    0    0    0  0.00000000000E+00  0.00000000000E+00  0.74505805969E-08  0.10566000000E+00  0.10566000000E+00 0.  1.
     999900   -1    0    0    0    0 -0.00000000000E+00 -0.00000000000E+00 -0.74505805969E-08  0.93827000000E+00  0.93827000000E+00 0. -1.
     999902    2    1    2    0    0 -0.41556707951E-03  0.20591828486E-02  0.14620153812E-01  0.10291596978E+01  0.10290537021E+01 0.  0.
     999903    2    3    3    0    0 -0.12350249122E+00 -0.45188739068E-01 -0.50040919728E-02  0.13912157049E+00  0.45109677031E-01 0.  0.
         14    1    1    2    0    0  0.41556707951E-03 -0.20591828486E-02 -0.14620153812E-01  0.14770302214E-01  0.00000000000E+00 0. -1.
     999901    1    3    3    0    0  0.12308692414E+00  0.47247921917E-01  0.19624245785E-01  0.89003812730E+00  0.88000000000E+00 0.  1.
        -11    1    4    4    0    0 -0.58309567920E-01  0.10688885524E-02  0.51139726435E-02  0.58545384711E-01  0.51100000000E-03 0.  1.
         11    1    4    4    0    0 -0.65192923303E-01 -0.46257627621E-01 -0.10118064616E-01  0.80576185778E-01  0.51100000000E-03 0. -1.
</event>
<event>
 8    1  0.2837913E+004  0.1043930E+01  0.7957747E-01            NaN
         13   -1    0    0    0    0  0.00000000000E+00  0.00000000000E+00  0.74505805969E-08  0.10566000000E+00  0.10566000000E+00 0.  1.
     999900   -1    0    0    0    0 -0.00000000000E+00 -0.00000000000E+00 -0.74505805969E-08  0.93827000000E+00  0.93827000000E+00 0.  1.
     999902    2    1    2    0    0 -0.84775180208E-02  0.94219299040E-02 -0.63760808787E-02  0.10297421361E+01  0.10296443907E+01 0.  0.
     999903    2    3    3    0    0 -0.97253963354E-01 -0.89369032898E-01  0.63853066886E-02  0.13968384329E+00  0.45007182815E-01 0.  0.
         14    1    1    2    0    0  0.84775180208E-02 -0.94219299040E-02  0.63760808787E-02  0.14187863908E-01  0.00000000000E+00 0.  1.
     999901    1    3    3    0    0  0.88776445333E-01  0.98790962802E-01 -0.12761387567E-01  0.89005829280E+00  0.88000000000E+00 0. -1.
        -11    1    4    4    0    0 -0.16235275903E-01 -0.12241800382E-01 -0.15661583723E-01  0.25670843109E-01  0.51100000000E-03 0.  1.
         11    1    4    4    0    0 -0.81018687450E-01 -0.77127232516E-01  0.22046890411E-01  0.11401300018E+00  0.51100000000E-03 0. -1.
</event>
<event>
 8    1  0.2837913E+004  0.1043930E+01  0.7957747E-01            NaN
         13   -1    0    0    0    0  0.00000000000E+00  0.00000000000E+00  0.74505805969E-08  0.10566000000E+00  0.10566000000E+00 0.  1.
     999900   -1    0    0    0    0 -0.00000000000E+00 -0.00000000000E+00 -0.74505805969E-08  0.93827000000E+00  0.93827000000E+00 0.  1.
     999902    2    1    2    0    0 -0.12186422312E-01  0.36619752591E-02  0.47713853796E-02  0.10303401115E+01  0.10302504842E+01 0.  0.
     999903    2    3    3    0    0  0.59395560191E-01 -0.98513899978E-01 -0.64141678294E-01  0.13887339867E+00  0.44032316597E-01 0.  0.
         14    1    1    2    0    0  0.12186422312E-01 -0.36619752591E-02 -0.47713853796E-02  0.13589888521E-01  0.00000000000E+00 0. -1.
     999901    1    3    3    0    0 -0.71581982503E-01  0.10217587524E+00  0.68913063674E-01  0.89146671281E+00  0.88000000000E+00 0. -1.
        -11    1    4    4    0    0  0.16024549247E-01 -0.61631013632E-01 -0.19741223946E-01  0.66671921104E-01  0.51100000000E-03 0.  1.
         11    1    4    4    0    0  0.43371010944E-01 -0.36882886346E-01 -0.44400454348E-01  0.72201477567E-01  0.51100000000E-03 0. -1.
</event>
<event>
 8    1  0.2837913E+004  0.1043930E+01  0.7957747E-01            NaN
         13   -1    0    0    0    0  0.00000000000E+00  0.00000000000E+00  0.74505805969E-08  0.10566000000E+00  0.10566000000E+00 0.  1.
     999900   -1    0    0    0    0 -0.00000000000E+00 -0.00000000000E+00 -0.74505805969E-08  0.93827000000E+00  0.93827000000E+00 0.  1.
     999902    2    1    2    0    0  0.55505911563E-02  0.36975462333E-02 -0.73933314956E-02  0.10339729793E+01  0.10339250358E+01 0.  0.
     999903    2    3    3    0    0  0.68825317671E-01  0.11418401653E+00  0.30809543596E-01  0.14398960262E+00  0.44820349182E-01 0.  0.
         14    1    1    2    0    0 -0.55505911563E-02 -0.36975462333E-02  0.73933314956E-02  0.99570206858E-02  0.00000000000E+00 0.  1.
     999901    1    3    3    0    0 -0.63274726515E-01 -0.11048647030E+00 -0.38202875091E-01  0.88998337670E+00  0.88000000000E+00 0.  1.
        -11    1    4    4    0    0  0.51610816163E-01  0.47274779208E-01  0.26239109244E-01  0.74748465330E-01  0.51100000000E-03 0. -1.
         11    1    4    4    0    0  0.17214501508E-01  0.66909237324E-01  0.45704343514E-02  0.69241137286E-01  0.51100000000E-03 0.  1.
</event>
<event>
 8    1  0.2837913E+004  0.1043930E+01  0.7957747E-01            NaN
         13   -1    0    0    0    0  0.00000000000E+00  0.00000000000E+00  0.74505805969E-08  0.10566000000E+00  0.10566000000E+00 0.  1.
     999900   -1    0    0    0    0 -0.00000000000E+00 -0.00000000000E+00 -0.74505805969E-08  0.93827000000E+00  0.93827000000E+00 0. -1.
     999902    2    1    2    0    0  0.81410292418E-02 -0.10133047280E-01  0.46047492660E-02  0.10301401951E+01  0.10300478934E+01 0.  0.
     999903    2    3    3    0    0  0.43648422256E-01 -0.12717462393E+00 -0.57215072716E-02  0.14162112538E+00  0.44104849750E-01 0.  0.
         14    1    1    2    0    0 -0.81410292418E-02  0.10133047280E-01 -0.46047492660E-02  0.13789804933E-01  0.00000000000E+00 0.  1.
     999901    1    3    3    0    0 -0.35507393014E-01  0.11704157665E+00  0.10326256538E-01  0.88851906969E+00  0.88000000000E+00 0. -1.
        -11    1    4    4    0    0 -0.43072719566E-02 -0.48266999360E-01  0.47352734403E-02  0.48692296664E-01  0.51100000000E-03 0.  1.
         11    1    4    4    0    0  0.47955694212E-01 -0.78907624570E-01 -0.10456780712E-01  0.92928828716E-01  0.51100000000E-03 0. -1.
</event>
<event>
 8    1  0.2837913E+004  0.1043930E+01  0.7957747E-01            NaN
         13   -1    0    0    0    0  0.00000000000E+00  0.00000000000E+00  0.74505805969E-08  0.10566000000E+00  0.10566000000E+00 0. -1.
     999900   -1    0    0    0    0 -0.00000000000E+00 -0.00000000000E+00 -0.74505805969E-08  0.93827000000E+00  0.93827000000E+00 0. -1.
     999902    2    1    2    0    0 -0.13384494633E-01  0.12308775599E-01 -0.12567811701E-02  0.10257028183E+01  0.10255408531E+01 0.  0.
     999903    2    3    3    0    0  0.73940970634E-01 -0.10114129749E+00 -0.14920513135E-01  0.13402835219E+00  0.45212258086E-01 0.  0.
         14    1    1    2    0    0  0.13384494633E-01 -0.12308775599E-01  0.12567811701E-02  0.18227181686E-01  0.00000000000E+00 0. -1.
     999901    1    3    3    0    0 -0.87325465266E-01  0.11345007309E+00  0.13663731965E-01  0.89167446613E+00  0.88000000000E+00 0.  1.
        -11    1    4    4    0    0  0.51805983095E-01 -0.37165719969E-01 -0.18022570501E-01  0.66258771448E-01  0.51100000000E-03 0. -1.
         11    1    4    4    0    0  0.22134987539E-01 -0.63975577524E-01  0.31020573657E-02  0.67769580741E-01  0.51100000000E-03 0.  1.
</event>
<event>
 8    1  0.2837913E+004  0.1043930E+01  0.7957747E-01            NaN
         13   -1    0    0    0    0  0.00000000000E+00  0.00000000000E+00  0.74505805969E-08  0.10566000000E+00  0.10566000000E+00 0.  1.
     999900   -1    0    0    0    0 -0.00000000000E+00 -0.00000000000E+00 -0.74505805969E-08  0.93827000000E+00  0.93827000000E+00 0. -1.
     999902    2    1    2    0    0 -0.17893877230E-02 -0.12049935105E-01  0.61502922204E-02  0.10302834276E+01  0.10301930461E+01 0.  0.
     999903    2    3    3    0    0  0.60844507313E-01  0.88674926229E-01 -0.74969142004E-01  0.13862830080E+00  0.45079229346E-01 0.  0.
         14    1    1    2    0    0  0.17893877230E-02  0.12049935105E-01 -0.61502922204E-02  0.13646572421E-01  0.00000000000E+00 0.  1.
     999901    1    3    3    0    0 -0.62633895036E-01 -0.10072486133E+00  0.81119434225E-01  0.89165512678E+00  0.88000000000E+00 0.  1.
        -11    1    4    4    0    0  0.36358330873E-01  0.84093891500E-01 -0.56899550023E-01  0.10784957453E+00  0.51100000000E-03 0. -1.
         11    1    4    4    0    0  0.24486176440E-01  0.45810347292E-02 -0.18069591982E-01  0.30778726277E-01  0.51100000000E-03 0.  1.
</event>
<event>
 8    1  0.2837913E+004  0.1043930E+01  0.7957747E-01            NaN
         13   -1    0    0    0    0  0.00000000000E+00  0.00000000000E+00  0.74505805969E-08  0.10566000000E+00  0.10566000000E+00 0.  1.
     999900   -1    0    0    0    0 -0.00000000000E+00 -0.00000000000E+00 -0.74505805969E-08  0.93827000000E+00  0.93827000000E+00 0.  1.
     999902    2    1    2    0    0  0.13915834455E-01  0.11617498869E-02 -0.33726687481E-02  0.10295642419E+01  0.10294640126E+01 0.  0.
     999903    2    3    3    0    0  0.12359119376E+00 -0.48107050635E-01 -0.18341792570E-01  0.14126239353E+00  0.45050759977E-01 0.  0.
         14    1    1    2    0    0 -0.13915834455E-01 -0.11617498869E-02  0.33726687481E-02  0.14365758102E-01  0.00000000000E+00 0.  1.
     999901    1    3    3    0    0 -0.10967535931E+00  0.49268800522E-01  0.14969123822E-01  0.88830184837E+00  0.88000000000E+00 0. -1.
        -11    1    4    4    0    0  0.79515470062E-01 -0.16667898124E-01 -0.28648259514E-01  0.86148201961E-01  0.51100000000E-03 0. -1.
         11    1    4    4    0    0  0.44075723702E-01 -0.31439152511E-01  0.10306466943E-01  0.55114191569E-01  0.51100000000E-03 0.  1.
</event>
<event>
 8    1  0.2837913E+004  0.1043930E+01  0.7957747E-01            NaN
         13   -1    0    0    0    0  0.00000000000E+00  0.00000000000E+00  0.74505805969E-08  0.10566000000E+00  0.10566000000E+00 0. -1.
     999900   -1    0    0    0    0 -0.00000000000E+00 -0.00000000000E+00 -0.74505805969E-08  0.93827000000E+00  0.93827000000E+00 0.  1.
     999902    2    1    2    0    0 -0.97554325579E-02  0.53781258072E-02 -0.95958742474E-02  0.10292271600E+01  0.10291221372E+01 0.  0.
     999903    2    3    3    0    0  0.34317572641E-01 -0.11072161960E+00  0.59299687927E-01  0.13784162099E+00  0.45242531405E-01 0.  0.
         14    1    1    2    0    0  0.97554325579E-02 -0.53781258072E-02  0.95958742474E-02  0.14702840003E-01  0.00000000000E+00 0. -1.
     999901    1    3    3    0    0 -0.44073005199E-01  0.11609974541E+00 -0.68895562174E-01  0.89138553901E+00  0.88000000000E+00 0.  1.
        -11    1    4    4    0    0  0.15236799388E-01 -0.43972471139E-01  0.49133692789E-01  0.67676577645E-01  0.51100000000E-03 0.  1.
         11    1    4    4    0    0  0.19080773253E-01 -0.66749148465E-01  0.10165995137E-01  0.70165043340E-01  0.51100000000E-03 0. -1.
</event>
<event>
 8    1  0.2837913E+004  0.1043930E+01  0.7957747E-01            NaN
         13   -1    0    0    0    0  0.00000000000E+00  0.00000000000E+00  0.74505805969E-08  0.10566000000E+00  0.10566000000E+00 0. -1.
     999900   -1    0    0    0    0 -0.00000000000E+00 -0.00000000000E+00 -0.74505805969E-08  0.93827000000E+00  0.93827000000E+00 0. -1.
     999902    2    1    2    0    0 -0.12117920241E-02 -0.64701291945E-02  0.12261612937E-01  0.10300131698E+01  0.10299191482E+01 0.  0.
     999903    2    3    3    0    0 -0.11062344239E+00 -0.73775598644E-01  0.11079186744E-01  0.14068627061E+00  0.44603737486E-01 0.  0.
         14    1    1    2    0    0  0.12117920241E-02  0.64701291945E-02 -0.12261612937E-01  0.13916830226E-01  0.00000000000E+00 0.  1.
     999901    1    3    3    0    0  0.10941165036E+00  0.67305469449E-01  0.11824261935E-02  0.88932689917E+00  0.88000000000E+00 0.  1.
        -11    1    4    4    0    0 -0.30148341663E-01 -0.41552536210E-01 -0.79016154924E-02  0.51944512885E-01  0.51100000000E-03 0.  1.
         11    1    4    4    0    0 -0.80475100722E-01 -0.32223062434E-01  0.18980802236E-01  0.88741757721E-01  0.51100000000E-03 0. -1.
</event>
<event>
 8    1  0.2837913E+004  0.1043930E+01  0.7957747E-01            NaN
         13   -1    0    0    0    0  0.00000000000E+00  0.00000000000E+00  0.74505805969E-08  0.10566000000E+00  0.10566000000E+00 0.  1.
     999900   -1    0    0    0    0 -0.00000000000E+00 -0.00000000000E+00 -0.74505805969E-08  0.93827000000E+00  0.93827000000E+00 0. -1.
     999902    2    1    2    0    0  0.53016816963E-02  0.80988157952E-02 -0.73869080092E-02  0.10317535861E+01  0.10316817326E+01 0.  0.
     999903    2    3    3    0    0 -0.17908615689E-01 -0.11918364476E+00 -0.58486363899E-01  0.14082671082E+00  0.43428654402E-01 0.  0.
         14    1    1    2    0    0 -0.53016816963E-02 -0.80988157952E-02  0.73869080092E-02  0.12176413923E-01  0.00000000000E+00 0. -1.
     999901    1    3    3    0    0  0.23210297385E-01  0.12728246055E+00  0.51099455890E-01  0.89092687526E+00  0.88000000000E+00 0.  1.
        -11    1    4    4    0    0  0.83261921175E-02 -0.67736948269E-01 -0.44274540760E-01  0.81351802171E-01  0.51100000000E-03 0.  1.
         11    1    4    4    0    0 -0.26234807806E-01 -0.51446696490E-01 -0.14211823138E-01  0.59474908645E-01  0.51100000000E-03 0. -1.
</event>
<event>
 8    1  0.2837913E+004  0.1043930E+01  0.7957747E-01            NaN
         13   -1    0    0    0    0  0.00000000000E+00  0.00000000000E+00  0.74505805969E-08  0.10566000000E+00  0.10566000000E+00 0. -1.
     999900   -1    0    0    0    0 -0.00000000000E+00 -0.00000000000E+00 -0.74505805969E-08  0.93827000000E+00  0.93827000000E+00 0. -1.
     999902    2    1    2    0    0 -0.10209169732E-01 -0.57287377893E-02 -0.73590581460E-02  0.10301024435E+01  0.10300096323E+01 0.  0.
     999903    2    3    3    0    0 -0.60129754240E-01  0.88542002803E-01 -0.79488117605E-01  0.14073095835E+00  0.45072920845E-01 0.  0.
         14    1    1    2    0    0  0.10209169732E-01  0.57287377893E-02  0.73590581460E-02  0.13827556547E-01  0.00000000000E+00 0. -1.
     999901    1    3    3    0    0  0.49920584508E-01 -0.94270740592E-01  0.72129059459E-01  0.88937148510E+00  0.88000000000E+00 0.  1.
        -11    1    4    4    0    0 -0.78314373304E-02 -0.38712916126E-02 -0.12221163216E-01  0.15031176293E-01  0.51100000000E-03 0. -1.
         11    1    4    4    0    0 -0.52298316909E-01  0.92413294415E-01 -0.67266954389E-01  0.12569978206E+00  0.51100000000E-03 0.  1.
</event>
<event>
 8    1  0.2837913E+004  0.1043930E+01  0.7957747E-01            NaN
         13   -1    0    0    0    0  0.00000000000E+00  0.00000000000E+00  0.74505805969E-08  0.10566000000E+00  0.10566000000E+00 0.  1.
     999900   -1    0    0    0    0 -0.00000000000E+00 -0.00000000000E+00 -0.74505805969E-08  0.93827000000E+00  0.93827000000E+00 0. -1.
     999902    2    1    2    0    0  0.82419252195E-02  0.10747637325E-01  0.46708130099E-02  0.10296031883E+01  0.10295035055E+01 0.  0.
     999903    2    3    3    0    0 -0.36344752408E-01 -0.12299419891E+00 -0.24805937184E-01  0.13789486750E+00  0.44171777963E-01 0.  0.
         14    1    1    2    0    0 -0.82419252195E-02 -0.10747637325E-01 -0.46708130099E-02  0.14326811703E-01  0.00000000000E+00 0. -1.
     999901    1    3    3    0    0  0.44586677628E-01  0.13374183624E+00  0.29476750194E-01  0.89170832080E+00  0.88000000000E+00 0.  1.
        -11    1    4    4    0    0 -0.26634226729E-01 -0.24080511007E-01 -0.10956421545E-01  0.37544071941E-01  0.51100000000E-03 0.  1.
         11    1    4    4    0    0 -0.97105256787E-02 -0.98913687907E-01 -0.13849515638E-01  0.10035079556E+00  0.51100000000E-03 0. -1.
</event>
<event>
 8    1  0.2837913E+004  0.1043930E+01  0.7957747E-01            NaN
         13   -1    0    0    0    0  0.00000000000E+00  0.00000000000E+00  0.74505805969E-08  0.10566000000E+00  0.10566000000E+00 0. -1.
     999900   -1    0    0    0    0 -0.00000000000E+00 -0.00000000000E+00 -0.74505805969E-08  0.93827000000E+00  0.93827000000E+00 0.  1.
     999902    2    1    2    0    0  0.63138720953E-02 -0.52999937038E-02 -0.10319291977E-01  0.10307223242E+01  0.10306376991E+01 0.  0.
     999903    2    3    3    0    0  0.40717826745E-01  0.10556878454E+00 -0.71722096645E-01  0.14097751665E+00  0.43907759780E-01 0.  0.
         14    1    1    2    0    0 -0.63138720953E-02  0.52999937038E-02  0.10319291977E-01  0.13207675837E-01  0.00000000000E+00 0. -1.
     999901    1    3    3    0    0 -0.34403954649E-01 -0.11086877824E+00  0.61402804668E-01  0.88974480752E+00  0.88000000000E+00 0.  1.
        -11    1    4    4    0    0  0.26663101048E-01  0.24668273859E-01 -0.36911749821E-01  0.51789797147E-01  0.51100000000E-03 0.  1.
         11    1    4    4    0    0  0.14054725697E-01  0.80900510678E-01 -0.34810346825E-01  0.89187719499E-01  0.51100000000E-03 0. -1.
</event>
<event>
 8    1  0.2837913E+004  0.1043930E+01  0.7957747E-01            NaN
         13   -1    0    0    0    0  0.00000000000E+00  0.00000000000E+00  0.74505805969E-08  0.10566000000E+00  0.10566000000E+00 0. -1.
     999900   -1    0    0    0    0 -0.00000000000E+00 -0.00000000000E+00 -0.74505805969E-08  0.93827000000E+00  0.93827000000E+00 0. -1.
     999902    2    1    2    0    0  0.95281303645E-02 -0.76939799854E-02  0.59256621392E-02  0.10303249984E+01  0.10302351704E+01 0.  0.
     999903    2    3    3    0    0 -0.94074911928E-02  0.22450968903E-02 -0.13056816949E+00  0.13954561547E+00  0.48284475379E-01 0.  0.
         14    1    1    2    0    0 -0.95281303645E-02  0.76939799854E-02 -0.59256621392E-02  0.13605001582E-01  0.00000000000E+00 0.  1.
     999901    1    3    3    0    0  0.18935621557E-01 -0.99390768758E-02  0.13649383163E+00  0.89077938295E+00  0.88000000000E+00 0. -1.
        -11    1    4    4    0    0 -0.13018716950E-01  0.16936604969E-01 -0.24956310757E-01  0.32854438764E-01  0.51100000000E-03 0.  1.
         11    1    4    4    0    0  0.36112257570E-02 -0.14691508079E-01 -0.10561185873E+00  0.10669117671E+00  0.51100000000E-03 0. -1.
</event>
<event>
 8    1  0.2837913E+004  0.1043930E+01  0.7957747E-01            NaN
         13   -1    0    0    0    0  0.00000000000E+00  0.00000000000E+00  0.74505805969E-08  0.10566000000E+00  0.10566000000E+00 0. -1.
     999900   -1    0    0    0    0 -0.00000000000E+00 -0.00000000000E+00 -0.74505805969E-08  0.93827000000E+00  0.93827000000E+00 0. -1.
     999902    2    1    2    0    0 -0.58868241440E-03 -0.70309708163E-02  0.11699011695E-01  0.10302680831E+01  0.10301774969E+01 0.  0.
     999903    2    3    3    0    0  0.54069193465E-01 -0.11909425725E+00  0.28021612135E-01  0.14132933899E+00  0.45627311145E-01 0.  0.
         14    1    1    2    0    0  0.58868241440E-03  0.70309708163E-02 -0.11699011695E-01  0.13661916859E-01  0.00000000000E+00 0.  1.
     999901    1    3    3    0    0 -0.54657875879E-01  0.11206328643E+00 -0.16322600440E-01  0.88893874415E+00  0.88000000000E+00 0.  1.
        -11    1    4    4    0    0  0.53703366012E-01 -0.70900128656E-01  0.85789622481E-02  0.89357369471E-01  0.51100000000E-03 0. -1.
         11    1    4    4    0    0  0.36582745287E-03 -0.48194128592E-01  0.19442649887E-01  0.51971969523E-01  0.51100000000E-03 0.  1.
</event>
<event>
 8    1  0.2837913E+004  0.1043930E+01  0.7957747E-01            NaN
         13   -1    0    0    0    0  0.00000000000E+00  0.00000000000E+00  0.74505805969E-08  0.10566000000E+00  0.10566000000E+00 0. -1.
     999900   -1    0    0    0    0 -0.00000000000E+00 -0.00000000000E+00 -0.74505805969E-08  0.93827000000E+00  0.93827000000E+00 0.  1.
     999902    2    1    2    0    0  0.47355380437E-02 -0.11057012158E-01 -0.98120370714E-02  0.10284071488E+01  0.10282899906E+01 0.  0.
     999903    2    3    3    0    0 -0.36009251072E-01 -0.10093992889E+00  0.75696705827E-01  0.13877193046E+00  0.45189844043E-01 0.  0.
         14    1    1    2    0    0 -0.47355380437E-02  0.11057012158E-01  0.98120370714E-02  0.15522851218E-01  0.00000000000E+00 0. -1.
     999901    1    3    3    0    0  0.40744789116E-01  0.89882916731E-01 -0.85508742899E-01  0.88963521832E+00  0.88000000000E+00 0.  1.
        -11    1    4    4    0    0 -0.15598659936E-01 -0.62791360064E-01  0.69679235310E-01  0.95086960436E-01  0.51100000000E-03 0. -1.
         11    1    4    4    0    0 -0.20410591136E-01 -0.38148568825E-01  0.60174705169E-02  0.43684970028E-01  0.51100000000E-03 0.  1.
</event>
<event>
 8    1  0.2837913E+004  0.1043930E+01  0.7957747E-01            NaN
         13   -1    0    0    0    0  0.00000000000E+00  0.00000000000E+00  0.74505805969E-08  0.10566000000E+00  0.10566000000E+00 0. -1.
     999900   -1    0    0    0    0 -0.00000000000E+00 -0.00000000000E+00 -0.74505805969E-08  0.93827000000E+00  0.93827000000E+00 0. -1.
     999902    2    1    2    0    0 -0.99583559647E-02  0.10124827043E-01 -0.18895978308E-02  0.10296033969E+01  0.10295037170E+01 0.  0.
     999903    2    3    3    0    0  0.14235068778E-01 -0.33193055312E-01  0.12632889975E+00  0.13892851579E+00  0.45141172824E-01 0.  0.
         14    1    1    2    0    0  0.99583559647E-02 -0.10124827043E-01  0.18895978308E-02  0.14326603091E-01  0.00000000000E+00 0. -1.
     999901    1    3    3    0    0 -0.24193424743E-01  0.43317882356E-01 -0.12821849758E+00  0.89067488112E+00  0.88000000000E+00 0. -1.
        -11    1    4    4    0    0  0.45449835516E-02 -0.32745888239E-01  0.39297258555E-01  0.51356457461E-01  0.51100000000E-03 0.  1.
         11    1    4    4    0    0  0.96900852262E-02 -0.44716707296E-03  0.87031641194E-01  0.87572058329E-01  0.51100000000E-03 0. -1.
</event>
<event>
 8    1  0.2837913E+004  0.1043930E+01  0.7957747E-01            NaN
         13   -1    0    0    0    0  0.00000000000E+00  0.00000000000E+00  0.74505805969E-08  0.10566000000E+00  0.10566000000E+00 0.  1.
     999900   -1    0    0    0    0 -0.00000000000E+00 -0.00000000000E+00 -0.74505805969E-08  0.93827000000E+00  0.93827000000E+00 0.  1.
     999902    2    1    2    0    0 -0.21017624930E-02  0.14117284028E-01 -0.22005177571E-03  0.10296554234E+01  0.10295564712E+01 0.  0.
     999903    2    3    3    0    0 -0.92714608632E-01 -0.37385395640E-01  0.85782491604E-01  0.13934106805E+00  0.45427204614E-01 0.  0.
         14    1    1    2    0    0  0.21017624930E-02 -0.14117284028E-01  0.22005177571E-03  0.14274576585E-01  0.00000000000E+00 0. -1.
     999901    1    3    3    0    0  0.90612846139E-01  0.51502679668E-01 -0.86002543380E-01  0.89031435536E+00  0.88000000000E+00 0.  1.
        -11    1    4    4    0    0 -0.87804221379E-01 -0.41257296034E-01  0.62918690063E-01  0.11563203902E+00  0.51100000000E-03 0. -1.
         11    1    4    4    0    0 -0.49103872524E-02  0.38719003945E-02  0.22863801541E-01  0.23709029029E-01  0.51100000000E-03 0.  1.
</event>
<event>
 8    1  0.2837913E+004  0.1043930E+01  0.7957747E-01            NaN
         13   -1    0    0    0    0  0.00000000000E+00  0.00000000000E+00  0.74505805969E-08  0.10566000000E+00  0.10566000000E+00 0. -1.
     999900   -1    0    0    0    0 -0.00000000000E+00 -0.00000000000E+00 -0.74505805969E-08  0.93827000000E+00  0.93827000000E+00 0.  1.
     999902    2    1    2    0    0  0.77617038509E-02 -0.11881470395E-01 -0.16486390942E-02  0.10296425441E+01  0.10295434120E+01 0.  0.
     999903    2    3    3    0    0 -0.21876817025E-01 -0.12022440191E+00  0.53770239589E-01  0.14077366465E+00  0.44648449633E-01 0.  0.
         14    1    1    2    0    0 -0.77617038509E-02  0.11881470395E-01  0.16486390942E-02  0.14287455906E-01  0.00000000000E+00 0. -1.
     999901    1    3    3    0    0  0.29638520876E-01  0.10834293152E+00 -0.55418878683E-01  0.88886887944E+00  0.88000000000E+00 0.  1.
        -11    1    4    4    0    0 -0.25751654739E-01 -0.29054929509E-01  0.14954918315E-01  0.41608260639E-01  0.51100000000E-03 0.  1.
         11    1    4    4    0    0  0.38748377147E-02 -0.91169472405E-01  0.38815321274E-01  0.99165404010E-01  0.51100000000E-03 0. -1.
</event>
<event>
 8    1  0.2837913E+004  0.1043930E+01  0.7957747E-01            NaN
         13   -1    0    0    0    0  0.00000000000E+00  0.00000000000E+00  0.74505805969E-08  0.10566000000E+00  0.10566000000E+00 0.  1.
     999900   -1    0    0    0    0 -0.00000000000E+00 -0.00000000000E+00 -0.74505805969E-08  0.93827000000E+00  0.93827000000E+00 0.  1.
     999902    2    1    2    0    0 -0.74708372052E-02  0.78362183403E-02 -0.87190132811E-02  0.10300288878E+01  0.10299350799E+01 0.  0.
     999903    2    3    3    0    0  0.10512318473E-01  0.92487023100E-02  0.13075800303E+00  0.13886154830E+00  0.44596265594E-01 0.  0.
         14    1    1    2    0    0  0.74708372052E-02 -0.78362183403E-02  0.87190132811E-02  0.13901112150E-01  0.00000000000E+00 0.  1.
     999901    1    3    3    0    0 -0.17983155679E-01 -0.14124839698E-02 -0.13947701631E+00  0.89116733955E+00  0.88000000000E+00 0.  1.
        -11    1    4    4    0    0  0.73181815605E-03  0.22694647528E-01  0.10969696277E+00  0.11202351247E+00  0.51100000000E-03 0. -1.
         11    1    4    4    0    0  0.97805003173E-02 -0.13445945218E-01  0.21061040267E-01  0.26838035833E-01  0.51100000000E-03 0.  1.
</event>
<event>
 7    1  0.2837913E+004  0.1043930E+01  0.7957747E-01            NaN
         13   -1    0    0    0    0  0.00000000000E+00  0.00000000000E+00  0.74505805969E-08  0.10566000000E+00  0.10566000000E+00 0. -1.
     999900   -1    0    0    0    0 -0.00000000000E+00 -0.00000000000E+00 -0.74505805969E-08  0.93827000000E+00  0.93827000000E+00 0. -1.
     999902    2    1    2    0    0  0.86996164902E-02  0.11468723274E-03 -0.12305297243E-01  0.10288596045E+01  0.10287492255E+01 0.  0.
         14    1    1    2    0    0 -0.86996164902E-02 -0.11468723274E-03  0.12305297243E-01  0.15070395499E-01  0.00000000000E+00 0. -1.
     999901    1    3    3    0    0  0.52920791832E-01 -0.10362408157E+00 -0.47395112554E-01  0.88892342594E+00  0.88000000000E+00 0.  1.
        -11    1    3    3    0    0 -0.62381933612E-02  0.94630915177E-01  0.15022394915E-01  0.96020094947E-01  0.51100000000E-03 0.  1.
         11    1    3    3    0    0 -0.37982981981E-01  0.91078536253E-02  0.20067420395E-01  0.43916083615E-01  0.51100000000E-03 0. -1.
</event>
<event>
 8    1  0.2837913E+004  0.1043930E+01  0.7957747E-01            NaN
         13   -1    0    0    0    0  0.00000000000E+00  0.00000000000E+00  0.74505805969E-08  0.10566000000E+00  0.10566000000E+00 0. -1.
     999900   -1    0    0    0    0 -0.00000000000E+00 -0.00000000000E+00 -0.74505805969E-08  0.93827000000E+00  0.93827000000E+00 0. -1.
     999902    2    1    2    0    0 -0.68612562342E-02  0.10243556210E-01  0.52373895809E-03  0.10315897576E+01  0.10315159457E+01 0.  0.
     999903    2    3    3    0    0  0.93343819713E-01 -0.32380404277E-01  0.88227789734E-01  0.14055111655E+00  0.46999087462E-01 0.  0.
         14    1    1    2    0    0  0.68612562342E-02 -0.10243556210E-01 -0.52373895809E-03  0.12340242438E-01  0.00000000000E+00 0.  1.
     999901    1    3    3    0    0 -0.10020507595E+00  0.42623960487E-01 -0.87704050776E-01  0.89103864101E+00  0.88000000000E+00 0.  1.
        -11    1    4    4    0    0  0.20474324925E-01 -0.27320301745E-01  0.15587307369E-01  0.37534279540E-01  0.51100000000E-03 0. -1.
         11    1    4    4    0    0  0.72869494788E-01 -0.50601025322E-02  0.72640482365E-01  0.10301683701E+00  0.51100000000E-03 0.  1.
</event>
<event>
 8    1  0.2837913E+004  0.1043930E+01  0.7957747E-01            NaN
         13   -1    0    0    0    0  0.00000000000E+00  0.00000000000E+00  0.74505805969E-08  0.10566000000E+00  0.10566000000E+00 0.  1.
     999900   -1    0    0    0    0 -0.00000000000E+00 -0.00000000000E+00 -0.74505805969E-08  0.93827000000E+00  0.93827000000E+00 0.  1.
     999902    2    1    2    0    0 -0.21568271077E-02 -0.25334275311E-02  0.13636043074E-01  0.10298939098E+01  0.10297982587E+01 0.  0.
     999903    2    3    3    0    0  0.54509743497E-02  0.24830915709E-01 -0.12782974592E+00  0.13814324093E+00  0.45791086202E-01 0.  0.
         14    1    1    2    0    0  0.21568271077E-02  0.25334275311E-02 -0.13636043074E-01  0.14036090230E-01  0.00000000000E+00 0. -1.
     999901    1    3    3    0    0 -0.76078014574E-02 -0.27364343240E-01  0.14146578900E+00  0.89175066884E+00  0.88000000000E+00 0. -1.
        -11    1    4    4    0    0 -0.11644243773E-01  0.13170024895E-01 -0.10818625918E+00  0.10960641298E+00  0.51100000000E-03 0. -1.
         11    1    4    4    0    0  0.17095218123E-01  0.11660890813E-01 -0.19643486736E-01  0.28536827949E-01  0.51100000000E-03 0.  1.
</event>
<event>
 8    1  0.2837913E+004  0.1043930E+01  0.7957747E-01            NaN
         13   -1    0    0    0    0  0.00000000000E+00  0.00000000000E+00  0.74505805969E-08  0.10566000000E+00  0.10566000000E+00 0. -1.
     999900   -1    0    0    0    0 -0.00000000000E+00 -0.00000000000E+00 -0.74505805969E-08  0.93827000000E+00  0.93827000000E+00 0. -1.
     999902    2    1    2    0    0 -0.93605658649E-02  0.79134602129E-02  0.15763226098E-02  0.10315716895E+01  0.10314976601E+01 0.  0.
     999903    2    3    3    0    0 -0.81296975350E-02 -0.12869364809E+00  0.32953452398E-01  0.14047823684E+00  0.44945054889E-01 0.  0.
         14    1    1    2    0    0  0.93605658649E-02 -0.79134602129E-02 -0.15763226098E-02  0.12358310517E-01  0.00000000000E+00 0.  1.
     999901    1    3    3    0    0 -0.12308683299E-02  0.13660710830E+00 -0.31377129788E-01  0.89109345265E+00  0.88000000000E+00 0. -1.
        -11    1    4    4    0    0 -0.17410677329E-01 -0.20553425941E-01  0.13772351670E-01  0.30257458494E-01  0.51100000000E-03 0.  1.
         11    1    4    4    0    0  0.92809797941E-02 -0.10814022215E+00  0.19181100729E-01  0.11022077834E+00  0.51100000000E-03 0. -1.
</event>
<event>
 8    1  0.2837913E+004  0.1043930E+01  0.7957747E-01            NaN
         13   -1    0    0    0    0  0.00000000000E+00  0.00000000000E+00  0.74505805969E-08  0.10566000000E+00  0.10566000000E+00 0. -1.
     999900   -1    0    0    0    0 -0.00000000000E+00 -0.00000000000E+00 -0.74505805969E-08  0.93827000000E+00  0.93827000000E+00 0.  1.
     999902    2    1    2    0    0  0.13278630673E-01  0.13063813453E-02  0.77524119980E-02  0.10284985854E+01  0.10283828137E+01 0.  0.
     999903    2    3    3    0    0  0.10755469371E+00  0.47581342920E-01  0.62578581435E-01  0.14055981669E+00  0.44821723303E-01 0.  0.
         14    1    1    2    0    0 -0.13278630673E-01 -0.13063813453E-02 -0.77524119980E-02  0.15431414600E-01  0.00000000000E+00 0.  1.
     999901    1    3    3    0    0 -0.94276063034E-01 -0.46274961575E-01 -0.54826169437E-01  0.88793876871E+00  0.88000000000E+00 0.  1.
        -11    1    4    4    0    0  0.17293486527E-01  0.25000297211E-01  0.41345462106E-02  0.30682814901E-01  0.51100000000E-03 0. -1.
         11    1    4    4    0    0  0.90261207180E-01  0.22581045710E-01  0.58444035224E-01  0.10987700178E+00  0.51100000000E-03 0.  1.
</event>
<event>
 8    1  0.2837913E+004  0.1043930E+01  0.7957747E-01            NaN
         13   -1    0    0    0    0  0.00000000000E+00  0.00000000000E+00  0.74505805969E-08  0.10566000000E+00  0.10566000000E+00 0. -1.
     999900   -1    0    0    0    0 -0.00000000000E+00 -0.00000000000E+00 -0.74505805969E-08  0.93827000000E+00  0.93827000000E+00 0.  1.
     999902    2    1    2    0    0  0.92430127381E-02 -0.95635819940E-02  0.56585594462E-02  0.10294761189E+01  0.10293746474E+01 0.  0.
     999903    2    3    3    0    0  0.23016244761E-01  0.10356578112E-01 -0.12943830284E+00  0.13883720387E+00  0.43410698032E-01 0.  0.
         14    1    1    2    0    0 -0.92430127381E-02  0.95635819940E-02 -0.56585594462E-02  0.14453881141E-01  0.00000000000E+00 0. -1.
     999901    1    3    3    0    0 -0.13773232023E-01 -0.19920160105E-01  0.13509686228E+00  0.89063891499E+00  0.88000000000E+00 0. -1.
        -11    1    4    4    0    0  0.89955651307E-02 -0.15070913873E-01 -0.76160073958E-01  0.78157985025E-01  0.51100000000E-03 0. -1.
         11    1    4    4    0    0  0.14020679630E-01  0.25427491984E-01 -0.53278228878E-01  0.60679218842E-01  0.51100000000E-03 0.  1.
</event>
<event>
 8    1  0.2837913E+004  0.1043930E+01  0.7957747E-01            NaN
         13   -1    0    0    0    0  0.00000000000E+00  0.00000000000E+00  0.74505805969E-08  0.10566000000E+00  0.10566000000E+00 0.  1.
     999900   -1    0    0    0    0 -0.00000000000E+00 -0.00000000000E+00 -0.74505805969E-08  0.93827000000E+00  0.93827000000E+00 0. -1.
     999902    2    1    2    0    0  0.16949640069E-02  0.10038728327E-01  0.48918888526E-02  0.10326348884E+01  0.10325731128E+01 0.  0.
     999903    2    3    3    0    0  0.13499393466E+00  0.16683824259E-03  0.10182023920E-01  0.14252587524E+00  0.44570856753E-01 0.  0.
         14    1    1    2    0    0 -0.16949640069E-02 -0.10038728327E-01 -0.48918888526E-02  0.11295111595E-01  0.00000000000E+00 0. -1.
     999901    1    3    3    0    0 -0.13329897065E+00  0.98718900842E-02 -0.52901350672E-02  0.89010901317E+00  0.88000000000E+00 0.  1.
        -11    1    4    4    0    0  0.17741820353E-01  0.15413570708E-01 -0.23421455198E-02  0.23624079200E-01  0.51100000000E-03 0. -1.
         11    1    4    4    0    0  0.11725211431E+00 -0.15246732465E-01  0.12524169440E-01  0.11890179604E+00  0.51100000000E-03 0.  1.
</event>
<event>
 8    1  0.2837913E+004  0.1043930E+01  0.7957747E-01            NaN
         13   -1    0    0    0    0  0.00000000000E+00  0.00000000000E+00  0.74505805969E-08  0.10566000000E+00  0.10566000000E+00 0. -1.
     999900   -1    0    0    0    0 -0.00000000000E+00 -0.00000000000E+00 -0.74505805969E-08  0.93827000000E+00  0.93827000000E+00 0. -1.
     999902    2    1    2    0    0 -0.89067837692E-02 -0.62276114478E-02 -0.89622117302E-02  0.10298432977E+01  0.10297469508E+01 0.  0.
     999903    2    3    3    0    0  0.73189888833E-01  0.81462370477E-01  0.70963590254E-01  0.13809359608E+00  0.45178894480E-01 0.  0.
         14    1    1    2    0    0  0.89067837692E-02  0.62276114478E-02  0.89622117302E-02  0.14086702260E-01  0.00000000000E+00 0. -1.
     999901    1    3    3    0    0 -0.82096672602E-01 -0.87689981925E-01 -0.79925801984E-01  0.89174970166E+00  0.88000000000E+00 0. -1.
        -11    1    4    4    0    0  0.58366900095E-01  0.38650809992E-01  0.58154426380E-01  0.91009771829E-01  0.51100000000E-03 0.  1.
         11    1    4    4    0    0  0.14822988738E-01  0.42811560485E-01  0.12809163874E-01  0.47083824255E-01  0.51100000000E-03 0. -1.
</event>
<event>
 8    1  0.2837913E+004  0.1043930E+01  0.7957747E-01            NaN
         13   -1    0    0    0    0  0.00000000000E+00  0.00000000000E+00  0.74505805969E-08  0.10566000000E+00  0.10566000000E+00 0. -1.
     999900   -1    0    0    0    0 -0.00000000000E+00 -0.00000000000E+00 -0.74505805969E-08  0.93827000000E+00  0.93827000000E+00 0.  1.
     999902    2    1    2    0    0  0.50642114758E-02  0.11115294618E-01 -0.41922906868E-02  0.10310160032E+01  0.10309351229E+01 0.  0.
     999903    2    3    3    0    0 -0.75479303858E-03 -0.88600160802E-01  0.97701862191E-01  0.13952318143E+00  0.45502813916E-01 0.  0.
         14    1    1    2    0    0 -0.50642114758E-02 -0.11115294618E-01  0.41922906868E-02  0.12913996807E-01  0.00000000000E+00 0.  1.
     999901    1    3    3    0    0  0.58190045143E-02  0.99715455420E-01 -0.10189415288E+00  0.89149282176E+00  0.88000000000E+00 0.  1.
        -11    1    4    4    0    0  0.38936269453E-02 -0.32863224890E-01  0.69288154960E-01  0.76787117538E-01  0.51100000000E-03 0. -1.
         11    1    4    4    0    0 -0.46484199839E-02 -0.55736935912E-01  0.28413707231E-01  0.62736063893E-01  0.51100000000E-03 0.  1.
</event>
<event>
 8    1  0.2837913E+004  0.1043930E+01  0.7957747E-01            NaN
         13   -1    0    0    0    0  0.00000000000E+00  0.00000000000E+00  0.74505805969E-08  0.10566000000E+00  0.10566000000E+00 0.  1.
     999900   -1    0    0    0    0 -0.00000000000E+00 -0.00000000000E+00 -0.74505805969E-08  0.93827000000E+00  0.93827000000E+00 0.  1.
     999902    2    1    2    0    0  0.28216975294E-02  0.71109064538E-02  0.10823518741E-01  0.10306757356E+01  0.10305905086E+01 0.  0.
     999903    2    3    3    0    0  0.11776557734E+00 -0.61917134047E-01  0.37295817678E-03  0.14045880690E+00  0.45011938881E-01 0.  0.
         14    1    1    2    0    0 -0.28216975294E-02 -0.71109064538E-02 -0.10823518741E-01  0.13254264427E-01  0.00000000000E+00 0. -1.
     999901    1    3    3    0    0 -0.11494387981E+00  0.69028040501E-01  0.10450560565E-01  0.89021692867E+00  0.88000000000E+00 0.  1.
        -11    1    4    4    0    0  0.98553593509E-01 -0.33669936460E-01 -0.10323959513E-01  0.10465811328E+00  0.51100000000E-03 0.  1.
         11    1    4    4    0    0  0.19211983836E-01 -0.28247197587E-01  0.10696917689E-01  0.35800693617E-01  0.51100000000E-03 0. -1.
</event>
<event>
 8    1  0.2837913E+004  0.1043930E+01  0.7957747E-01            NaN
         13   -1    0    0    0    0  0.00000000000E+00  0.00000000000E+00  0.74505805969E-08  0.10566000000E+00  0.10566000000E+00 0.  1.
     999900   -1    0    0    0    0 -0.00000000000E+00 -0.00000000000E+00 -0.74505805969E-08  0.93827000000E+00  0.93827000000E+00 0.  1.
     999902    2    1    2    0    0 -0.73240658055E-03 -0.12126952450E-01  0.51736810996E-02  0.10307252141E+01  0.10306406263E+01 0.  0.
     999903    2    3    3    0    0  0.82302844053E-01  0.82762647511E-01  0.62501086681E-01  0.13989115520E+00  0.45163431051E-01 0.  0.
         14    1    1    2    0    0  0.73240658055E-03  0.12126952450E-01 -0.51736810996E-02  0.13204785922E-01  0.00000000000E+00 0. -1.
     999901    1    3    3    0    0 -0.83035250634E-01 -0.94889599961E-01 -0.57327405581E-01  0.89083405888E+00  0.88000000000E+00 0.  1.
        -11    1    4    4    0    0  0.49683908338E-01  0.70923797983E-01  0.28140326578E-01  0.91053912431E-01  0.51100000000E-03 0. -1.
         11    1    4    4    0    0  0.32618935715E-01  0.11838849528E-01  0.34360760103E-01  0.48837242768E-01  0.51100000000E-03 0.  1.
</event>
<event>
 8    1  0.2837913E+004  0.1043930E+01  0.7957747E-01            NaN
         13   -1    0    0    0    0  0.00000000000E+00  0.00000000000E+00  0.74505805969E-08  0.10566000000E+00  0.10566000000E+00 0.  1.
     999900   -1    0    0    0    0 -0.00000000000E+00 -0.00000000000E+00 -0.74505805969E-08  0.93827000000E+00  0.93827000000E+00 0. -1.
     999902    2    1    2    0    0 -0.86742537236E-03 -0.13897107279E-01 -0.50167884394E-03  0.10299968130E+01  0.10299025688E+01 0.  0.
     999903    2    3    3    0    0 -0.54921114125E-01 -0.12032113445E+00 -0.23469798254E-01  0.14164136089E+00  0.44921481643E-01 0.  0.
         14    1    1    2    0    0  0.86742537236E-03  0.13897107279E-01  0.50167884394E-03  0.13933186971E-01  0.00000000000E+00 0.  1.
     999901    1    3    3    0    0  0.54053688752E-01  0.10642402717E+00  0.22968119410E-01  0.88835545213E+00  0.88000000000E+00 0.  1.
        -11    1    4    4    0    0  0.26572587818E-02 -0.32456840558E-01 -0.16102371516E-01  0.36332561329E-01  0.51100000000E-03 0. -1.
         11    1    4    4    0    0 -0.57578372906E-01 -0.87864293895E-01 -0.73674267387E-02  0.10530879957E+00  0.51100000000E-03 0.  1.
</event>
<event>
 8    1  0.2837913E+004  0.1043930E+01  0.7957747E-01            NaN
         13   -1    0    0    0    0  0.00000000000E+00  0.00000000000E+00  0.74505805969E-08  0.10566000000E+00  0.10566000000E+00 0. -1.
     999900   -1    0    0    0    0 -0.00000000000E+00 -0.00000000000E+00 -0.74505805969E-08  0.93827000000E+00  0.93827000000E+00 0. -1.
     999902    2    1    2    0    0  0.13755534119E-01  0.13659497196E-03  0.11138120440E-02  0.10301287698E+01  0.10300363141E+01 0.  0.
     999903    2    3    3    0    0  0.36851831619E-01  0.12247073022E+00 -0.36637773686E-01  0.14056468454E+00  0.45375839662E-01 0.  0.
         14    1    1    2    0    0 -0.13755534119E-01 -0.13659497196E-03 -0.11138120440E-02  0.13801230176E-01  0.00000000000E+00 0. -1.
     999901    1    3    3    0    0 -0.23096297500E-01 -0.12233413525E+00  0.37751585730E-01  0.88956408529E+00  0.88000000000E+00 0. -1.
        -11    1    4    4    0    0  0.27219518116E-01  0.71108053258E-01 -0.43760691129E-01  0.87820934939E-01  0.51100000000E-03 0. -1.
         11    1    4    4    0    0  0.96323135036E-02  0.51362676960E-01  0.71229174421E-02  0.52743749600E-01  0.51100000000E-03 0.  1.
</event>
<event>
 8    1  0.2837913E+004  0.1043930E+01  0.7957747E-01            NaN
         13   -1    0    0    0    0  0.00000000000E+00  0.00000000000E+00  0.74505805969E-08  0.10566000000E+00  0.10566000000E+00 0.  1.
     999900   -1    0    0    0    0 -0.00000000000E+00 -0.00000000000E+00 -0.74505805969E-08  0.93827000000E+00  0.93827000000E+00 0. -1.
     999902    2    1    2    0    0 -0.47530061160E-02  0.12611531944E-01 -0.27816357258E-02  0.10301684847E+01  0.10300765640E+01 0.  0.
     999903    2    3    3    0    0 -0.43989388710E-01  0.11689043657E+00  0.48958221274E-01  0.14163565108E+00  0.45445679080E-01 0.  0.
         14    1    1    2    0    0  0.47530061160E-02 -0.12611531944E-01  0.27816357258E-02  0.13761515266E-01  0.00000000000E+00 0.  1.
     999901    1    3    3    0    0  0.39236382594E-01 -0.10427890463E+00 -0.51739857000E-01  0.88853283365E+00  0.88000000000E+00 0.  1.
        -11    1    4    4    0    0 -0.42149389122E-01  0.11061331590E+00  0.56896561929E-01  0.13133680572E+00  0.51100000000E-03 0. -1.
         11    1    4    4    0    0 -0.18399995884E-02  0.62771206714E-02 -0.79383406545E-02  0.10298845360E-01  0.51100000000E-03 0.  1.
</event>
<event>
 8    1  0.2837913E+004  0.1043930E+01  0.7957747E-01            NaN
         13   -1    0    0    0    0  0.00000000000E+00  0.00000000000E+00  0.74505805969E-08  0.10566000000E+00  0.10566000000E+00 0.  1.
     999900   -1    0    0    0    0 -0.00000000000E+00 -0.00000000000E+00 -0.74505805969E-08  0.93827000000E+00  0.93827000000E+00 0.  1.
     999902    2    1    2    0    0 -0.41125107141E-02 -0.60450955527E-02  0.11049082266E-01  0.10306809191E+01  0.10305957592E+01 0.  0.
     999903    2    3    3    0    0 -0.34531950110E-01 -0.66609206991E-01 -0.10838383770E+00  0.14003083283E+00  0.47247601354E-01 0.  0.
         14    1    1    2    0    0  0.41125107141E-02  0.60450955527E-02 -0.11049082266E-01  0.13249080856E-01  0.00000000000E+00 0. -1.
     999901    1    3    3    0    0  0.30419439396E-01  0.60564111438E-01  0.11943291996E+00  0.89065008632E+00  0.88000000000E+00 0. -1.
        -11    1    4    4    0    0  0.33331467181E-02 -0.35975318635E-01 -0.66973930068E-01  0.76099289403E-01  0.51100000000E-03 0. -1.
         11    1    4    4    0    0 -0.37865096828E-01 -0.30633888356E-01 -0.41409907629E-01  0.63931543423E-01  0.51100000000E-03 0.  1.
</event>
<event>
 8    1  0.2837913E+004  0.1043930E+01  0.7957747E-01            NaN
         13   -1    0    0    0    0  0.00000000000E+00  0.00000000000E+00  0.74505805969E-08  0.10566000000E+00  0.10566000000E+00 0. -1.
     999900   -1    0    0    0    0 -0.00000000000E+00 -0.00000000000E+00 -0.74505805969E-08  0.93827000000E+00  0.93827000000E+00 0. -1.
     999902    2    1    2    0    0 -0.18993019629E-02 -0.14317841410E-01 -0.15913930644E-03  0.10294858574E+01  0.10293845235E+01 0.  0.
     999903    2    3    3    0    0  0.25953890863E-01 -0.12652096231E+00 -0.35177861269E-01  0.14123383708E+00  0.45037278534E-01 0.  0.
         14    1    1    2    0    0  0.18993019629E-02  0.14317841410E-01  0.15913930644E-03  0.14444142616E-01  0.00000000000E+00 0.  1.
     999901    1    3    3    0    0 -0.27853192826E-01  0.11220312090E+00  0.35018721962E-01  0.88825202031E+00  0.88000000000E+00 0. -1.
        -11    1    4    4    0    0  0.21818520165E-01 -0.12696499378E+00 -0.26396071282E-01  0.13150350249E+00  0.51100000000E-03 0. -1.
         11    1    4    4    0    0  0.41353706977E-02  0.44403147134E-03 -0.87817899868E-02  0.97303345845E-02  0.51100000000E-03 0.  1.
</event>
<event>
 8    1  0.2837913E+004  0.1043930E+01  0.7957747E-01            NaN
         13   -1    0    0    0    0  0.00000000000E+00  0.00000000000E+00  0.74505805969E-08  0.10566000000E+00  0.10566000000E+00 0.  1.
     999900   -1    0    0    0    0 -0.00000000000E+00 -0.00000000000E+00 -0.74505805969E-08  0.93827000000E+00  0.93827000000E+00 0. -1.
     999902    2    1    2    0    0  0.12086593162E-01  0.75630712270E-02  0.15334248512E-03  0.10296713432E+01  0.10295726131E+01 0.  0.
     999903    2    3    3    0    0  0.69317791435E-01 -0.39998206876E-01 -0.10587863725E+00  0.14018819777E+00  0.45140139607E-01 0.  0.
         14    1    1    2    0    0 -0.12086593162E-01 -0.75630712270E-02 -0.15334248512E-03  0.14258656829E-01  0.00000000000E+00 0. -1.
     999901    1    3    3    0    0 -0.57231198273E-01  0.47561278103E-01  0.10603197974E+00  0.88948314540E+00  0.88000000000E+00 0.  1.
        -11    1    4    4    0    0  0.10858735486E-01 -0.19005483746E-02  0.24749404070E-02  0.11309760010E-01  0.51100000000E-03 0.  1.
         11    1    4    4    0    0  0.58459055950E-01 -0.38097658501E-01 -0.10835357766E+00  0.12887843776E+00  0.51100000000E-03 0. -1.
</event>
<event>
 8    1  0.2837913E+004  0.1043930E+01  0.7957747E-01            NaN
         13   -1    0    0    0    0  0.00000000000E+00  0.00000000000E+00  0.74505805969E-08  0.10566000000E+00  0.10566000000E+00 0. -1.
     999900   -1    0    0    0    0 -0.00000000000E+00 -0.00000000000E+00 -0.74505805969E-08  0.93827000000E+00  0.93827000000E+00 0. -1.
     999902    2    1    2    0    0 -0.64678828008E-02  0.53647187754E-02 -0.12963242444E-01  0.10284813959E+01  0.10283653642E+01 0.  0.
     999903    2    3    3    0    0  0.11062177256E+00  0.19797247430E-01  0.67277695319E-01  0.13699000870E+00  0.40135602963E-01 0.  0.
         14    1    1    2    0    0  0.64678828008E-02 -0.53647187754E-02  0.12963242444E-01  0.15448604148E-01  0.00000000000E+00 0. -1.
     999901    1    3    3    0    0 -0.11708965536E+00 -0.14432528655E-01 -0.80240937763E-01  0.89149138715E+00  0.88000000000E+00 0. -1.
        -11    1    4    4    0    0  0.63955005202E-01 -0.34751347005E-02  0.21399340045E-01  0.67531563931E-01  0.51100000000E-03 0. -1.
         11    1    4    4    0    0  0.46666767359E-01  0.23272382131E-01  0.45878355275E-01  0.69458444768E-01  0.51100000000E-03 0.  1.
</event>
<event>
 8    1  0.2837913E+004  0.1043930E+01  0.7957747E-01            NaN
         13   -1    0    0    0    0  0.00000000000E+00  0.00000000000E+00  0.74505805969E-08  0.10566000000E+00  0.10566000000E+00 0.  1.
     999900   -1    0    0    0    0 -0.00000000000E+00 -0.00000000000E+00 -0.74505805969E-08  0.93827000000E+00  0.93827000000E+00 0. -1.
     999902    2    1    2    0    0 -0.37009332386E-02 -0.10996856775E-01  0.88880031868E-02  0.10293141057E+01  0.10292103302E+01 0.  0.
     999903    2    3    3    0    0 -0.15659389012E-01  0.90027548441E-01 -0.92527488940E-01  0.13766729380E+00  0.45174900445E-01 0.  0.
         14    1    1    2    0    0  0.37009332386E-02  0.10996856775E-01 -0.88880031868E-02  0.14615894308E-01  0.00000000000E+00 0.  1.
     999901    1    3    3    0    0  0.11958455774E-01 -0.10102440522E+00  0.10141549213E+00  0.89164681189E+00  0.88000000000E+00 0.  1.
        -11    1    4    4    0    0 -0.50429697241E-03  0.31818771030E-01 -0.63168513157E-01  0.70733377417E-01  0.51100000000E-03 0. -1.
         11    1    4    4    0    0 -0.15155092040E-01  0.58208777411E-01 -0.29358975783E-01  0.66933916383E-01  0.51100000000E-03 0.  1.
</event>
<event>
 8    1  0.2837913E+004  0.1043930E+01  0.7957747E-01            NaN
         13   -1    0    0    0    0  0.00000000000E+00  0.00000000000E+00  0.74505805969E-08  0.10566000000E+00  0.10566000000E+00 0. -1.
     999900   -1    0    0    0    0 -0.00000000000E+00 -0.00000000000E+00 -0.74505805969E-08  0.93827000000E+00  0.93827000000E+00 0.  1.
     999902    2    1    2    0    0 -0.70949439340E-02  0.74972380416E-03 -0.84688442050E-02  0.10328565345E+01  0.10327971724E+01 0.  0.
     999903    2    3    3    0    0  0.11726159570E+00 -0.57620282377E-01  0.31338231494E-01  0.14130944669E+00  0.43770951585E-01 0.  0.
         14    1    1    2    0    0  0.70949439340E-02 -0.74972380416E-03  0.84688442050E-02  0.11073465464E-01  0.00000000000E+00 0. -1.
     999901    1    3    3    0    0 -0.12435653964E+00  0.58370006181E-01 -0.39807075699E-01  0.89154708785E+00  0.88000000000E+00 0.  1.
        -11    1    4    4    0    0  0.30428016405E-01 -0.29228985744E-01  0.26491677466E-01  0.49822363312E-01  0.51100000000E-03 0.  1.
         11    1    4    4    0    0  0.86833579297E-01 -0.28391296633E-01  0.48465540285E-02  0.91487083378E-01  0.51100000000E-03 0. -1.
</event>
<event>
 8    1  0.2837913E+004  0.1043930E+01  0.7957747E-01            NaN
         13   -1    0    0    0    0  0.00000000000E+00  0.00000000000E+00  0.74505805969E-08  0.10566000000E+00  0.10566000000E+00 0. -1.
     999900   -1    0    0    0    0 -0.00000000000E+00 -0.00000000000E+00 -0.74505805969E-08  0.93827000000E+00  0.93827000000E+00 0.  1.
     999902    2    1    2    0    0 -0.67477236814E-02 -0.39047910908E-03 -0.11824805178E-01  0.10303097846E+01  0.10302197543E+01 0.  0.
     999903    2    3    3    0    0 -0.10172968495E+00  0.86387085967E-01 -0.57827676497E-02  0.14093448423E+00  0.44915821501E-01 0.  0.
         14    1    1    2    0    0  0.67477236814E-02  0.39047910908E-03  0.11824805178E-01  0.13620215355E-01  0.00000000000E+00 0. -1.
     999901    1    3    3    0    0  0.94981961273E-01 -0.86777565076E-01 -0.60420375288E-02  0.88937530041E+00  0.88000000000E+00 0. -1.
        -11    1    4    4    0    0 -0.26636445586E-01  0.37004547635E-01  0.16232564602E-01  0.48400351793E-01  0.51100000000E-03 0.  1.
         11    1    4    4    0    0 -0.75093239368E-01  0.49382538332E-01 -0.22015332252E-01  0.92534132438E-01  0.51100000000E-03 0. -1.
</event>
<event>
 8    1  0.2837913E+004  0.1043930E+01  0.7957747E-01            NaN
         13   -1    0    0    0    0  0.00000000000E+00  0.00000000000E+00  0.74505805969E-08  0.10566000000E+00  0.10566000000E+00 0. -1.
     999900   -1    0    0    0    0 -0.00000000000E+00 -0.00000000000E+00 -0.74505805969E-08  0.93827000000E+00  0.93827000000E+00 0. -1.
     999902    2    1    2    0    0 -0.14831800850E-01  0.57195414093E-02  0.23697267005E-02  0.10278579412E+01  0.10277322784E+01 0.  0.
     999903    2    3    3    0    0  0.51600979514E-01 -0.10582977925E+00 -0.52916347544E-01  0.13661548524E+00  0.44733071754E-01 0.  0.
         14    1    1    2    0    0  0.14831800850E-01 -0.57195414093E-02 -0.23697267005E-02  0.16072058829E-01  0.00000000000E+00 0. -1.
     999901    1    3    3    0    0 -0.66432780364E-01  0.11154932065E+00  0.55286074244E-01  0.89124245593E+00  0.88000000000E+00 0.  1.
        -11    1    4    4    0    0  0.25568447876E-01 -0.34005177414E-01  0.18923624861E-02  0.42590371853E-01  0.51100000000E-03 0.  1.
         11    1    4    4    0    0  0.26032531637E-01 -0.71824601831E-01 -0.54808710030E-01  0.94025113389E-01  0.51100000000E-03 0. -1.
</event>
<event>
 8    1  0.2837913E+004  0.1043930E+01  0.7957747E-01            NaN
         13   -1    0    0    0    0  0.00000000000E+00  0.00000000000E+00  0.74505805969E-08  0.10566000000E+00  0.10566000000E+00 0.  1.
     999900   -1    0    0    0    0 -0.00000000000E+00 -0.00000000000E+00 -0.74505805969E-08  0.93827000000E+00  0.93827000000E+00 0.  1.
     999902    2    1    2    0    0 -0.46788594575E-02 -0.13376770874E-01  0.21821529678E-02  0.10295915372E+01  0.10294916910E+01 0.  0.
     999903    2    3    3    0    0 -0.37283350792E-01 -0.12207706321E+00 -0.41001553009E-01  0.14125396683E+00  0.44482560491E-01 0.  0.
         14    1    1    2    0    0  0.46788594575E-02  0.13376770874E-01 -0.21821529678E-02  0.14338462833E-01  0.00000000000E+00 0. -1.
     999901    1    3    3    0    0  0.32604491334E-01  0.10870029234E+00  0.43183705977E-01  0.88833757034E+00  0.88000000000E+00 0.  1.
        -11    1    4    4    0    0  0.31799501239E-02 -0.55498772697E-01 -0.62462652254E-02  0.55941959243E-01  0.51100000000E-03 0. -1.
         11    1    4    4    0    0 -0.40463300916E-01 -0.66578290513E-01 -0.34755287784E-01  0.85312007587E-01  0.51100000000E-03 0.  1.
</event>
<event>
 8    1  0.2837913E+004  0.1043930E+01  0.7957747E-01            NaN
         13   -1    0    0    0    0  0.00000000000E+00  0.00000000000E+00  0.74505805969E-08  0.10566000000E+00  0.10566000000E+00 0. -1.
     999900   -1    0    0    0    0 -0.00000000000E+00 -0.00000000000E+00 -0.74505805969E-08  0.93827000000E+00  0.93827000000E+00 0. -1.
     999902    2    1    2    0    0  0.77640605179E-02 -0.37135342687E-03  0.11573919625E-01  0.10299881868E+01  0.10298938250E+01 0.  0.
     999903    2    3    3    0    0 -0.11311060977E+00  0.30627107756E-01 -0.58790519327E-01  0.13840378545E+00  0.44353724654E-01 0.  0.
         14    1    1    2    0    0 -0.77640605179E-02  0.37135342687E-03 -0.11573919625E-01  0.13941813174E-01  0.00000000000E+00 0.  1.
     999901    1    3    3    0    0  0.12087467029E+00 -0.30998461183E-01  0.70364438952E-01  0.89158440138E+00  0.88000000000E+00 0.  1.
        -11    1    4    4    0    0 -0.94140353098E-01  0.61929275379E-02 -0.45146945220E-01  0.10459094711E+00  0.51100000000E-03 0. -1.
         11    1    4    4    0    0 -0.18970256674E-01  0.24434180218E-01 -0.13643574107E-01  0.33812838340E-01  0.51100000000E-03 0.  1.
</event>
<event>
 8    1  0.2837913E+004  0.1043930E+01  0.7957747E-01            NaN
         13   -1    0    0    0    0  0.00000000000E+00  0.00000000000E+00  0.74505805969E-08  0.10566000000E+00  0.10566000000E+00 0. -1.
     999900   -1    0    0    0    0 -0.00000000000E+00 -0.00000000000E+00 -0.74505805969E-08  0.93827000000E+00  0.93827000000E+00 0.  1.
     999902    2    1    2    0    0 -0.34062268563E-02 -0.33804912692E-02 -0.11138729705E-01  0.10318014633E+01  0.10317301771E+01 0.  0.
     999903    2    3    3    0    0  0.12538271810E+00  0.38599652878E-01  0.23576561225E-01  0.14076045625E+00  0.45242597239E-01 0.  0.
         14    1    1    2    0    0  0.34062268563E-02  0.33804912692E-02  0.11138729705E-01  0.12128536683E-01  0.00000000000E+00 0. -1.
     999901    1    3    3    0    0 -0.12878894496E+00 -0.41980144147E-01 -0.34715290930E-01  0.89104100706E+00  0.88000000000E+00 0. -1.
        -11    1    4    4    0    0  0.11496766318E+00  0.47665924062E-01  0.17565270442E-01  0.12569170116E+00  0.51100000000E-03 0.  1.
         11    1    4    4    0    0  0.10415054919E-01 -0.90662711841E-02  0.60112907827E-02  0.15068755092E-01  0.51100000000E-03 0. -1.
</event>
<event>
 8    1  0.2837913E+004  0.1043930E+01  0.7957747E-01            NaN
         13   -1    0    0    0    0  0.00000000000E+00  0.00000000000E+00  0.74505805969E-08  0.10566000000E+00  0.10566000000E+00 0. -1.
     999900   -1    0    0    0    0 -0.00000000000E+00 -0.00000000000E+00 -0.74505805969E-08  0.93827000000E+00  0.93827000000E+00 0.  1.
     999902    2    1    2    0    0 -0.15279793143E-02  0.14112426445E-01  0.22164859943E-02  0.10295630897E+01  0.10294628442E+01 0.  0.
     999903    2    3    3    0    0  0.80869543319E-01 -0.77132354421E-01 -0.67990645810E-01  0.13824720681E+00  0.44724480285E-01 0.  0.
         14    1    1    2    0    0  0.15279793143E-02 -0.14112426445E-01 -0.22164859943E-02  0.14366910284E-01  0.00000000000E+00 0.  1.
     999901    1    3    3    0    0 -0.82397522633E-01  0.91244780866E-01  0.70207131805E-01  0.89131588291E+00  0.88000000000E+00 0. -1.
        -11    1    4    4    0    0  0.76800667951E-01 -0.71472849448E-01 -0.44893371553E-01  0.11411567261E+00  0.51100000000E-03 0.  1.
         11    1    4    4    0    0  0.40688753683E-02 -0.56595049730E-02 -0.23097274258E-01  0.24131534191E-01  0.51100000000E-03 0. -1.
</event>
<event>
 8    1  0.2837913E+004  0.1043930E+01  0.7957747E-01            NaN
         13   -1    0    0    0    0  0.00000000000E+00  0.00000000000E+00  0.74505805969E-08  0.10566000000E+00  0.10566000000E+00 0.  1.
     999900   -1    0    0    0    0 -0.00000000000E+00 -0.00000000000E+00 -0.74505805969E-08  0.93827000000E+00  0.93827000000E+00 0.  1.
     999902    2    1    2    0    0 -0.98658831793E-03 -0.13160894523E-01 -0.33218944798E-02  0.10303205370E+01  0.10302306496E+01 0.  0.
     999903    2    3    3    0    0  0.12735617105E+00  0.33774233158E-01 -0.11576854049E-01  0.13973482270E+00  0.45072208700E-01 0.  0.
         14    1    1    2    0    0  0.98658831793E-03  0.13160894523E-01  0.33218944798E-02  0.13609463034E-01  0.00000000000E+00 0.  1.
     999901    1    3    3    0    0 -0.12834275936E+00 -0.46935127681E-01  0.82549595694E-02  0.89058571426E+00  0.88000000000E+00 0. -1.
        -11    1    4    4    0    0  0.89467808993E-01  0.38121764472E-01 -0.22971836100E-01  0.99928595243E-01  0.51100000000E-03 0.  1.
         11    1    4    4    0    0  0.37888362054E-01 -0.43475313145E-02  0.11394982050E-01  0.39806227460E-01  0.51100000000E-03 0. -1.
</event>
<event>
 7    1  0.2837913E+004  0.1043930E+01  0.7957747E-01            NaN
         13   -1    0    0    0    0  0.00000000000E+00  0.00000000000E+00  0.74505805969E-08  0.10566000000E+00  0.10566000000E+00 0.  1.
     999900   -1    0    0    0    0 -0.00000000000E+00 -0.00000000000E+00 -0.74505805969E-08  0.93827000000E+00  0.93827000000E+00 0. -1.
     999902    2    1    2    0    0 -0.31090898066E-02 -0.46283558843E-02 -0.11034595571E-01  0.10315667311E+01  0.10314926419E+01 0.  0.
         14    1    1    2    0    0  0.31090898066E-02  0.46283558843E-02  0.11034595571E-01  0.12363268866E-01  0.00000000000E+00 0.  1.
     999901    1    3    3    0    0 -0.10705224760E+00 -0.43008816580E-01 -0.92347905693E-01  0.89232173441E+00  0.88000000000E+00 0. -1.
        -11    1    3    3    0    0  0.26183644756E-01  0.14806400852E-01  0.11813076737E-01  0.32320622857E-01  0.51100000000E-03 0.  1.
         11    1    3    3    0    0  0.77759513034E-01  0.23574059844E-01  0.69500233385E-01  0.10692437386E+00  0.51100000000E-03 0. -1.
</event>
<event>
 8    1  0.2837913E+004  0.1043930E+01  0.7957747E-01            NaN
         13   -1    0    0    0    0  0.00000000000E+00  0.00000000000E+00  0.74505805969E-08  0.10566000000E+00  0.10566000000E+00 0.  1.
     999900   -1    0    0    0    0 -0.00000000000E+00 -0.00000000000E+00 -0.74505805969E-08  0.93827000000E+00  0.93827000000E+00 0. -1.
     999902    2    1    2    0    0 -0.10763074653E-01 -0.54992317062E-02  0.78883875752E-02  0.10294969829E+01  0.10293958062E+01 0.  0.
     999903    2    3    3    0    0 -0.11123778914E+00  0.19970566630E-01 -0.69464723865E-01  0.14004356489E+00  0.44879649532E-01 0.  0.
         14    1    1    2    0    0  0.10763074653E-01  0.54992317062E-02 -0.78883875752E-02  0.14433017144E-01  0.00000000000E+00 0.  1.
     999901    1    3    3    0    0  0.10047471449E+00 -0.25469798336E-01  0.77353111440E-01  0.88945341796E+00  0.88000000000E+00 0. -1.
        -11    1    4    4    0    0 -0.28331020523E-01 -0.13032682594E-01 -0.26851203886E-01  0.41155143185E-01  0.51100000000E-03 0. -1.
         11    1    4    4    0    0 -0.82906768616E-01  0.33003249224E-01 -0.42613519979E-01  0.98888421707E-01  0.51100000000E-03 0.  1.
</event>
<event>
 8    1  0.2837913E+004  0.1043930E+01  0.7957747E-01            NaN
         13   -1    0    0    0    0  0.00000000000E+00  0.00000000000E+00  0.74505805969E-08  0.10566000000E+00  0.10566000000E+00 0.  1.
     999900   -1    0    0    0    0 -0.00000000000E+00 -0.00000000000E+00 -0.74505805969E-08  0.93827000000E+00  0.93827000000E+00 0. -1.
     999902    2    1    2    0    0  0.33406027774E-02  0.95215671244E-02 -0.11761894713E-01  0.10284328379E+01  0.10283160701E+01 0.  0.
     999903    2    3    3    0    0  0.84245760184E-01  0.50307836653E-01 -0.89896633930E-01  0.14033700870E+00  0.44551595730E-01 0.  0.
         14    1    1    2    0    0 -0.33406027774E-02 -0.95215671244E-02  0.11761894713E-01  0.15497162149E-01  0.00000000000E+00 0.  1.
     999901    1    3    3    0    0 -0.80905157407E-01 -0.40786269529E-01  0.78134739217E-01  0.88809582915E+00  0.88000000000E+00 0.  1.
        -11    1    4    4    0    0  0.16415693657E-01  0.11493005504E-01 -0.47204218715E-01  0.51284145301E-01  0.51100000000E-03 0. -1.
         11    1    4    4    0    0  0.67830066527E-01  0.38814831150E-01 -0.42692415215E-01  0.89052863402E-01  0.51100000000E-03 0.  1.
</event>
<event>
 8    1  0.2837913E+004  0.1043930E+01  0.7957747E-01            NaN
         13   -1    0    0    0    0  0.00000000000E+00  0.00000000000E+00  0.74505805969E-08  0.10566000000E+00  0.10566000000E+00 0.  1.
     999900   -1    0    0    0    0 -0.00000000000E+00 -0.00000000000E+00 -0.74505805969E-08  0.93827000000E+00  0.93827000000E+00 0.  1.
     999902    2    1    2    0    0 -0.11302176205E-01  0.79479845476E-02  0.60777626502E-03  0.10300996335E+01  0.10300067844E+01 0.  0.
     999903    2    3    3    0    0 -0.12557952345E+00 -0.27429947455E-01  0.31502993884E-01  0.14146842505E+00  0.49982576317E-01 0.  0.
         14    1    1    2    0    0  0.11302176205E-01 -0.79479845476E-02 -0.60777626502E-03  0.13830366493E-01  0.00000000000E+00 0. -1.
     999901    1    3    3    0    0  0.11427734725E+00  0.35377932002E-01 -0.30895217619E-01  0.88863120845E+00  0.88000000000E+00 0.  1.
        -11    1    4    4    0    0 -0.89687683639E-01 -0.19653028476E-01 -0.18792951213E-02  0.91836348991E-01  0.51100000000E-03 0. -1.
         11    1    4    4    0    0 -0.35891839813E-01 -0.77769189790E-02  0.33382289005E-01  0.49632076062E-01  0.51100000000E-03 0.  1.
</event>
<event>
 8    1  0.2837913E+004  0.1043930E+01  0.7957747E-01            NaN
         13   -1    0    0    0    0  0.00000000000E+00  0.00000000000E+00  0.74505805969E-08  0.10566000000E+00  0.10566000000E+00 0.  1.
     999900   -1    0    0    0    0 -0.00000000000E+00 -0.00000000000E+00 -0.74505805969E-08  0.93827000000E+00  0.93827000000E+00 0. -1.
     999902    2    1    2    0    0  0.40607720678E-02 -0.24168371862E-02 -0.13191779884E-01  0.10299173618E+01  0.10298220323E+01 0.  0.
     999903    2    3    3    0    0 -0.10906220985E+00  0.73850659775E-01  0.18721211968E-02  0.13927688373E+00  0.45233394057E-01 0.  0.
         14    1    1    2    0    0 -0.40607720678E-02  0.24168371862E-02  0.13191779884E-01  0.14012638162E-01  0.00000000000E+00 0.  1.
     999901    1    3    3    0    0  0.11312298191E+00 -0.76267496961E-01 -0.15063901081E-01  0.89064047811E+00  0.88000000000E+00 0. -1.
        -11    1    4    4    0    0 -0.25829384674E-01  0.29826329262E-02  0.13573571792E-01  0.29335237923E-01  0.51100000000E-03 0. -1.
         11    1    4    4    0    0 -0.83232825171E-01  0.70868026849E-01 -0.11701450595E-01  0.10994164581E+00  0.51100000000E-03 0.  1.
</event>
<event>
 7    1  0.2837913E+004  0.1043930E+01  0.7957747E-01            NaN
         13   -1    0    0    0    0  0.00000000000E+00  0.00000000000E+00  0.74505805969E-08  0.10566000000E+00  0.10566000000E+00 0. -1.
     999900   -1    0    0    0    0 -0.00000000000E+00 -0.00000000000E+00 -0.74505805969E-08  0.93827000000E+00  0.93827000000E+00 0.  1.
     999903    2    1    2    0    0  0.34244611095E-03 -0.68092237235E-01  0.25020015119E-01  0.85288662168E-01  0.44849578558E-01 0.  0.
         14    1    1    2    0    0 -0.13696891796E-01 -0.55072397240E-01 -0.40682418976E-01  0.69825733053E-01  0.00000000000E+00 0.  1.
     999901    1    1    2    0    0  0.13354445685E-01  0.12316463447E+00  0.15662403857E-01  0.88881560478E+00  0.88000000000E+00 0.  1.
        -11    1    3    3    0    0 -0.14662976345E-01 -0.81778239163E-02 -0.36549512414E-02  0.17190097989E-01  0.51100000000E-03 0.  1.
         11    1    3    3    0    0  0.15005422456E-01 -0.59914413318E-01  0.28674966361E-01  0.68098564178E-01  0.51100000000E-03 0. -1.
</event>
<event>
 8    1  0.2837913E+004  0.1043930E+01  0.7957747E-01            NaN
         13   -1    0    0    0    0  0.00000000000E+00  0.00000000000E+00  0.74505805969E-08  0.10566000000E+00  0.10566000000E+00 0.  1.
     999900   -1    0    0    0    0 -0.00000000000E+00 -0.00000000000E+00 -0.74505805969E-08  0.93827000000E+00  0.93827000000E+00 0. -1.
     999902    2    1    2    0    0  0.45855463282E-03 -0.13508696549E-01  0.60466598979E-02  0.10291226623E+01  0.10290161305E+01 0.  0.
     999903    2    3    3    0    0 -0.62482568191E-01 -0.18103573080E-01  0.11434832829E+00  0.14024024642E+00  0.48579582610E-01 0.  0.
         14    1    1    2    0    0 -0.45855463282E-03  0.13508696549E-01 -0.60466598979E-02  0.14807337733E-01  0.00000000000E+00 0. -1.
     999901    1    3    3    0    0  0.62941122824E-01  0.45948765308E-02 -0.10830166839E+00  0.88888241585E+00  0.88000000000E+00 0.  1.
        -11    1    4    4    0    0 -0.17345841525E-01 -0.26970200964E-01  0.28783183267E-01  0.43092954392E-01  0.51100000000E-03 0. -1.
         11    1    4    4    0    0 -0.45136726666E-01  0.88666278838E-02  0.85565145021E-01  0.97147292024E-01  0.51100000000E-03 0.  1.
</event>
<event>
 8    1  0.2837913E+004  0.1043930E+01  0.7957747E-01            NaN
         13   -1    0    0    0    0  0.00000000000E+00  0.00000000000E+00  0.74505805969E-08  0.10566000000E+00  0.10566000000E+00 0. -1.
     999900   -1    0    0    0    0 -0.00000000000E+00 -0.00000000000E+00 -0.74505805969E-08  0.93827000000E+00  0.93827000000E+00 0. -1.
     999902    2    1    2    0    0 -0.12748708831E-01 -0.31116830352E-02 -0.11113847383E-01  0.10267332052E+01  0.10265891802E+01 0.  0.
     999903    2    3    3    0    0  0.99215890281E-02  0.99173780197E-02  0.12724071278E+00  0.13553980129E+00  0.44542636067E-01 0.  0.
         14    1    1    2    0    0  0.12748708831E-01  0.31116830352E-02  0.11113847383E-01  0.17196794812E-01  0.00000000000E+00 0. -1.
     999901    1    3    3    0    0 -0.22670297859E-01 -0.13029061055E-01 -0.13835456017E+00  0.89119340390E+00  0.88000000000E+00 0. -1.
        -11    1    4    4    0    0  0.26835335120E-01  0.11605502820E-01  0.71049768450E-01  0.76831983083E-01  0.51100000000E-03 0.  1.
         11    1    4    4    0    0 -0.16913746092E-01 -0.16881247999E-02  0.56190944333E-01  0.58707818204E-01  0.51100000000E-03 0. -1.
</event>
<event>
 8    1  0.2837913E+004  0.1043930E+01  0.7957747E-01            NaN
         13   -1    0    0    0    0  0.00000000000E+00  0.00000000000E+00  0.74505805969E-08  0.10566000000E+00  0.10566000000E+00 0. -1.
     999900   -1    0    0    0    0 -0.00000000000E+00 -0.00000000000E+00 -0.74505805969E-08  0.93827000000E+00  0.93827000000E+00 0. -1.
     999902    2    1    2    0    0  0.49078409372E-02 -0.11638018837E-01 -0.73778807508E-03  0.10312779363E+01  0.10312003235E+01 0.  0.
     999903    2    3    3    0    0 -0.11982226183E+00 -0.59746830129E-01 -0.22041707536E-02  0.14118007282E+00  0.44720201837E-01 0.  0.
         14    1    1    2    0    0 -0.49078409372E-02  0.11638018837E-01  0.73778807508E-03  0.12652063720E-01  0.00000000000E+00 0.  1.
     999901    1    3    3    0    0  0.12473010277E+00  0.48108811291E-01  0.14663826785E-02  0.89009786346E+00  0.88000000000E+00 0. -1.
        -11    1    4    4    0    0 -0.50418808547E-01 -0.13192988254E-02 -0.83187398809E-03  0.50445514568E-01  0.51100000000E-03 0.  1.
         11    1    4    4    0    0 -0.69403453282E-01 -0.58427531303E-01 -0.13722967655E-02  0.90734558251E-01  0.51100000000E-03 0. -1.
</event>
<event>
 8    1  0.2837913E+004  0.1043930E+01  0.7957747E-01            NaN
         13   -1    0    0    0    0  0.00000000000E+00  0.00000000000E+00  0.74505805969E-08  0.10566000000E+00  0.10566000000E+00 0. -1.
     999900   -1    0    0    0    0 -0.00000000000E+00 -0.00000000000E+00 -0.74505805969E-08  0.93827000000E+00  0.93827000000E+00 0. -1.
     999902    2    1    2    0    0 -0.51253495481E-02 -0.12622813469E-01 -0.57480049018E-02  0.10291433781E+01  0.10290371463E+01 0.  0.
     999903    2    3    3    0    0 -0.46823701186E-01 -0.59555794586E-01 -0.11004647513E+00  0.14076303827E+00  0.44324424349E-01 0.  0.
         14    1    1    2    0    0  0.51253495481E-02  0.12622813469E-01  0.57480049018E-02  0.14786621934E-01  0.00000000000E+00 0.  1.
     999901    1    3    3    0    0  0.41698351638E-01  0.46932981117E-01  0.10429847022E+00  0.88838033980E+00  0.88000000000E+00 0.  1.
        -11    1    4    4    0    0 -0.19909663538E-01 -0.28796388014E-02 -0.95179235457E-02  0.22260705547E-01  0.51100000000E-03 0. -1.
         11    1    4    4    0    0 -0.26914037648E-01 -0.56676155784E-01 -0.10052855158E+00  0.11850233272E+00  0.51100000000E-03 0.  1.
</event>
<event>
 8    1  0.2837913E+004  0.1043930E+01  0.7957747E-01            NaN
         13   -1    0    0    0    0  0.00000000000E+00  0.00000000000E+00  0.74505805969E-08  0.10566000000E+00  0.10566000000E+00 0.  1.
     999900   -1    0    0    0    0 -0.00000000000E+00 -0.00000000000E+00 -0.74505805969E-08  0.93827000000E+00  0.93827000000E+00 0.  1.
     999902    2    1    2    0    0 -0.74953735251E-02  0.10292711720E-01  0.28785037670E-02  0.10308760227E+01  0.10307933682E+01 0.  0.
     999903    2    3    3    0    0 -0.11470782625E+00 -0.40209470203E-01  0.56529854401E-01  0.14131239497E+00  0.44708854098E-01 0.  0.
         14    1    1    2    0    0  0.74953735251E-02 -0.10292711720E-01 -0.28785037670E-02  0.13053977278E-01  0.00000000000E+00 0. -1.
     999901    1    3    3    0    0  0.10721245273E+00  0.50502181923E-01 -0.53651350634E-01  0.88956362775E+00  0.88000000000E+00 0. -1.
        -11    1    4    4    0    0 -0.33091778257E-01 -0.20182424643E-01  0.39927246331E-01  0.55649278282E-01  0.51100000000E-03 0. -1.
         11    1    4    4    0    0 -0.81616047997E-01 -0.20027045561E-01  0.16602608070E-01  0.85663116686E-01  0.51100000000E-03 0.  1.
</event>
<event>
 8    1  0.2837913E+004  0.1043930E+01  0.7957747E-01            NaN
         13   -1    0    0    0    0  0.00000000000E+00  0.00000000000E+00  0.74505805969E-08  0.10566000000E+00  0.10566000000E+00 0. -1.
     999900   -1    0    0    0    0 -0.00000000000E+00 -0.00000000000E+00 -0.74505805969E-08  0.93827000000E+00  0.93827000000E+00 0.  1.
     999902    2    1    2    0    0  0.20830770910E-01 -0.40974575778E-02 -0.27802651856E-02  0.10225187868E+01  0.10222945903E+01 0.  0.
     999903    2    3    3    0    0  0.91679093706E-02  0.40450698761E-01 -0.11901075716E+00  0.13368241952E+00  0.44577117172E-01 0.  0.
         14    1    1    2    0    0 -0.20830770910E-01  0.40974575778E-02  0.27802651856E-02  0.21411213180E-01  0.00000000000E+00 0. -1.
     999901    1    3    3    0    0  0.11662861540E-01 -0.44548156339E-01  0.11623049198E+00  0.88883636730E+00  0.88000000000E+00 0. -1.
        -11    1    4    4    0    0  0.71209239409E-02  0.71776375019E-02 -0.86584242175E-01  0.87174068117E-01  0.51100000000E-03 0.  1.
         11    1    4    4    0    0  0.20469854296E-02  0.33273061260E-01 -0.32426514987E-01  0.46508351402E-01  0.51100000000E-03 0. -1.
</event>
<event>
 8    1  0.2837913E+004  0.1043930E+01  0.7957747E-01            NaN
         13   -1    0    0    0    0  0.00000000000E+00  0.00000000000E+00  0.74505805969E-08  0.10566000000E+00  0.10566000000E+00 0.  1.
     999900   -1    0    0    0    0 -0.00000000000E+00 -0.00000000000E+00 -0.74505805969E-08  0.93827000000E+00  0.93827000000E+00 0. -1.
     999902    2    1    2    0    0 -0.61758836499E-02 -0.34863935086E-02 -0.99833559634E-02  0.10316840262E+01  0.10316113444E+01 0.  0.
     999903    2    3    3    0    0 -0.94296364865E-03 -0.13457807217E+00  0.25858687784E-02  0.14186921563E+00  0.44811169772E-01 0.  0.
         14    1    1    2    0    0  0.61758836499E-02  0.34863935086E-02  0.99833559634E-02  0.12245973822E-01  0.00000000000E+00 0.  1.
     999901    1    3    3    0    0 -0.52329200012E-02  0.13109167866E+00 -0.12569224742E-01  0.88981481055E+00  0.88000000000E+00 0.  1.
        -11    1    4    4    0    0 -0.98290866025E-02 -0.56378759434E-01 -0.18923328727E-01  0.60278760354E-01  0.51100000000E-03 0.  1.
         11    1    4    4    0    0  0.88861229539E-02 -0.78199312734E-01  0.21509197505E-01  0.81590455273E-01  0.51100000000E-03 0. -1.
</event>
<event>
 8    1  0.2837913E+004  0.1043930E+01  0.7957747E-01            NaN
         13   -1    0    0    0    0  0.00000000000E+00  0.00000000000E+00  0.74505805969E-08  0.10566000000E+00  0.10566000000E+00 0.  1.
     999900   -1    0    0    0    0 -0.00000000000E+00 -0.00000000000E+00 -0.74505805969E-08  0.93827000000E+00  0.93827000000E+00 0. -1.
     999902    2    1    2    0    0  0.10133456597E-01  0.11444121090E-01  0.84197373404E-02  0.10264787299E+01  0.10263303738E+01 0.  0.
     999903    2    3    3    0    0  0.10287468533E+00 -0.48587832226E-01 -0.61340714080E-01  0.13683200706E+00  0.44903637167E-01 0.  0.
         14    1    1    2    0    0 -0.10133456597E-01 -0.11444121090E-01 -0.84197373404E-02  0.17451270068E-01  0.00000000000E+00 0. -1.
     999901    1    3    3    0    0 -0.92741228736E-01  0.60031953316E-01  0.69760451420E-01  0.88964672287E+00  0.88000000000E+00 0.  1.
        -11    1    4    4    0    0  0.98380916295E-02  0.84303752734E-02 -0.91754839650E-02  0.15884265836E-01  0.51100000000E-03 0. -1.
         11    1    4    4    0    0  0.93036593703E-01 -0.57018207500E-01 -0.52165230115E-01  0.12094774123E+00  0.51100000000E-03 0.  1.
</event>
<event>
 8    1  0.2837913E+004  0.1043930E+01  0.7957747E-01            NaN
         13   -1    0    0    0    0  0.00000000000E+00  0.00000000000E+00  0.74505805969E-08  0.10566000000E+00  0.10566000000E+00 0.  1.
     999900   -1    0    0    0    0 -0.00000000000E+00 -0.00000000000E+00 -0.74505805969E-08  0.93827000000E+00  0.93827000000E+00 0. -1.
     999902    2    1    2    0    0  0.30466793386E-02 -0.79641843016E-02  0.64993712483E-02  0.10332084183E+01  0.10331527880E+01 0.  0.
     999903    2    3    3    0    0  0.32471017954E-01 -0.13111798479E+00 -0.19528541174E-01  0.14376471439E+00  0.45173401932E-01 0.  0.
         14    1    1    2    0    0 -0.30466793386E-02  0.79641843016E-02 -0.64993712483E-02  0.10721581656E-01  0.00000000000E+00 0. -1.
     999901    1    3    3    0    0 -0.29424338616E-01  0.12315380048E+00  0.26027912422E-01  0.88944370395E+00  0.88000000000E+00 0.  1.
        -11    1    4    4    0    0  0.35543222402E-01 -0.97140505037E-01 -0.30637379505E-01  0.10788191934E+00  0.51100000000E-03 0.  1.
         11    1    4    4    0    0 -0.30722044479E-02 -0.33977479749E-01  0.11108838331E-01  0.35882795046E-01  0.51100000000E-03 0. -1.
</event>
<event>
 8    1  0.2837913E+004  0.1043930E+01  0.7957747E-01            NaN
         13   -1    0    0    0    0  0.00000000000E+00  0.00000000000E+00  0.74505805969E-08  0.10566000000E+00  0.10566000000E+00 0.  1.
     999900   -1    0    0    0    0 -0.00000000000E+00 -0.00000000000E+00 -0.74505805969E-08  0.93827000000E+00  0.93827000000E+00 0.  1.
     999902    2    1    2    0    0  0.68937789057E-02  0.11410673837E-01  0.32707534676E-02  0.10302031834E+01  0.10301117287E+01 0.  0.
     999903    2    3    3    0    0  0.91199870618E-01  0.86278430657E-01  0.48112506981E-01  0.14187695902E+00  0.45308654529E-01 0.  0.
         14    1    1    2    0    0 -0.68937789057E-02 -0.11410673837E-01 -0.32707534676E-02  0.13726816574E-01  0.00000000000E+00 0.  1.
     999901    1    3    3    0    0 -0.84306091712E-01 -0.74867756820E-01 -0.44841753513E-01  0.88832622441E+00  0.88000000000E+00 0. -1.
        -11    1    4    4    0    0  0.35022820829E-01  0.57150659816E-01  0.40050621087E-01  0.78083988542E-01  0.51100000000E-03 0.  1.
         11    1    4    4    0    0  0.56177049789E-01  0.29127770841E-01  0.80618858944E-02  0.63792970477E-01  0.51100000000E-03 0. -1.
</event>
<event>
 8    1  0.2837913E+004  0.1043930E+01  0.7957747E-01            NaN
         13   -1    0    0    0    0  0.00000000000E+00  0.00000000000E+00  0.74505805969E-08  0.10566000000E+00  0.10566000000E+00 0.  1.
     999900   -1    0    0    0    0 -0.00000000000E+00 -0.00000000000E+00 -0.74505805969E-08  0.93827000000E+00  0.93827000000E+00 0. -1.
     999902    2    1    2    0    0  0.26080180161E-02  0.13205962064E-01 -0.25530583390E-02  0.10302290037E+01  0.10301378951E+01 0.  0.
     999903    2    3    3    0    0 -0.15463198656E-01  0.13293123938E+00  0.19614245825E-01  0.14166156100E+00  0.42112400891E-01 0.  0.
         14    1    1    2    0    0 -0.26080180161E-02 -0.13205962064E-01  0.25530583390E-02  0.13700996273E-01  0.00000000000E+00 0. -1.
     999901    1    3    3    0    0  0.18071216672E-01 -0.11972527732E+00 -0.22167304164E-01  0.88856744273E+00  0.88000000000E+00 0. -1.
        -11    1    4    4    0    0 -0.21970785677E-01  0.10732341778E+00  0.29489385368E-01  0.11345006125E+00  0.51100000000E-03 0. -1.
         11    1    4    4    0    0  0.65075870210E-02  0.25607821599E-01 -0.98751395432E-02  0.28211499745E-01  0.51100000000E-03 0.  1.
</event>
<event>
 8    1  0.2837913E+004  0.1043930E+01  0.7957747E-01            NaN
         13   -1    0    0    0    0  0.00000000000E+00  0.00000000000E+00  0.74505805969E-08  0.10566000000E+00  0.10566000000E+00 0.  1.
     999900   -1    0    0    0    0 -0.00000000000E+00 -0.00000000000E+00 -0.74505805969E-08  0.93827000000E+00  0.93827000000E+00 0. -1.
     999902    2    1    2    0    0 -0.36220598190E-02 -0.16711845400E-01  0.11463252914E-01  0.10233433232E+01  0.10231362304E+01 0.  0.
     999903    2    3    3    0    0  0.42269003676E-01  0.75760856630E-01 -0.88319104308E-01  0.13170791053E+00  0.44948119436E-01 0.  0.
         14    1    1    2    0    0  0.36220598190E-02  0.16711845400E-01 -0.11463252914E-01  0.20586676793E-01  0.00000000000E+00 0. -1.
     999901    1    3    3    0    0 -0.45891063495E-01 -0.92472702030E-01  0.99782357222E-01  0.89163541268E+00  0.88000000000E+00 0.  1.
        -11    1    4    4    0    0  0.43854956943E-02 -0.13140975567E-02 -0.23925598610E-01  0.24365032623E-01  0.51100000000E-03 0. -1.
         11    1    4    4    0    0  0.37883507982E-01  0.77074954186E-01 -0.64393505698E-01  0.10734287791E+00  0.51100000000E-03 0.  1.
</event>
<event>
 8    1  0.2837913E+004  0.1043930E+01  0.7957747E-01            NaN
         13   -1    0    0    0    0  0.00000000000E+00  0.00000000000E+00  0.74505805969E-08  0.10566000000E+00  0.10566000000E+00 0.  1.
     999900   -1    0    0    0    0 -0.00000000000E+00 -0.00000000000E+00 -0.74505805969E-08  0.93827000000E+00  0.93827000000E+00 0. -1.
     999902    2    1    2    0    0 -0.96396769827E-02  0.92016546028E-02 -0.24854157008E-02  0.10303737796E+01  0.10302845988E+01 0.  0.
     999903    2    3    3    0    0 -0.22609390342E-01 -0.86499978137E-01  0.96923694336E-01  0.13952632515E+00  0.45606601909E-01 0.  0.
         14    1    1    2    0    0  0.96396769827E-02 -0.92016546028E-02  0.24854157008E-02  0.13556220379E-01  0.00000000000E+00 0. -1.
     999901    1    3    3    0    0  0.12969713359E-01  0.95701632740E-01 -0.99409110036E-01  0.89084745447E+00  0.88000000000E+00 0. -1.
        -11    1    4    4    0    0 -0.27201004362E-01 -0.79339918605E-01  0.99953535688E-01  0.13048251891E+00  0.51100000000E-03 0. -1.
         11    1    4    4    0    0  0.45916140198E-02 -0.71600595319E-02 -0.30298413525E-02  0.90438062467E-02  0.51100000000E-03 0.  1.
</event>
<event>
 8    1  0.2837913E+004  0.1043930E+01  0.7957747E-01            NaN
         13   -1    0    0    0    0  0.00000000000E+00  0.00000000000E+00  0.74505805969E-08  0.10566000000E+00  0.10566000000E+00 0. -1.
     999900   -1    0    0    0    0 -0.00000000000E+00 -0.00000000000E+00 -0.74505805969E-08  0.93827000000E+00  0.93827000000E+00 0. -1.
     999902    2    1    2    0    0  0.93236698319E-02 -0.11476732330E-01 -0.30730018334E-02  0.10288273663E+01  0.10287165111E+01 0.  0.
     999903    2    3    3    0    0  0.10868194755E+00  0.42864572923E-02 -0.75786897833E-01  0.14011602050E+00  0.45372964171E-01 0.  0.
         14    1    1    2    0    0 -0.93236698319E-02  0.11476732330E-01  0.30730018334E-02  0.15102633690E-01  0.00000000000E+00 0.  1.
     999901    1    3    3    0    0 -0.99358277721E-01 -0.15763189622E-01  0.72713896000E-01  0.88871134581E+00  0.88000000000E+00 0.  1.
        -11    1    4    4    0    0  0.70285923453E-01 -0.17898474068E-01 -0.38158705254E-01  0.81956173149E-01  0.51100000000E-03 0. -1.
         11    1    4    4    0    0  0.38396024100E-01  0.22184931360E-01 -0.37628192579E-01  0.58159847351E-01  0.51100000000E-03 0.  1.
</event>
<event>
 8    1  0.2837913E+004  0.1043930E+01  0.7957747E-01            NaN
         13   -1    0    0    0    0  0.00000000000E+00  0.00000000000E+00  0.74505805969E-08  0.10566000000E+00  0.10566000000E+00 0.  1.
     999900   -1    0    0    0    0 -0.00000000000E+00 -0.00000000000E+00 -0.74505805969E-08  0.93827000000E+00  0.93827000000E+00 0.  1.
     999902    2    1    2    0    0 -0.13254522303E-01  0.11367018538E-02 -0.39648844599E-02  0.10300485461E+01  0.10299550052E+01 0.  0.
     999903    2    3    3    0    0  0.37645562441E-01 -0.53479937647E-01  0.11323662443E+00  0.13914451672E+00  0.47553878064E-01 0.  0.
         14    1    1    2    0    0  0.13254522303E-01 -0.11367018538E-02  0.39648844599E-02  0.13881453864E-01  0.00000000000E+00 0.  1.
     999901    1    3    3    0    0 -0.50900084744E-01  0.54616639501E-01 -0.11720150889E+00  0.89090402941E+00  0.88000000000E+00 0.  1.
        -11    1    4    4    0    0  0.38348618774E-01 -0.14755123857E-01  0.47157362753E-01  0.62549246396E-01  0.51100000000E-03 0. -1.
         11    1    4    4    0    0 -0.70305633330E-03 -0.38724813789E-01  0.66079261681E-01  0.76595270327E-01  0.51100000000E-03 0.  1.
</event>
<event>
 8    1  0.2837913E+004  0.1043930E+01  0.7957747E-01            NaN
         13   -1    0    0    0    0  0.00000000000E+00  0.00000000000E+00  0.74505805969E-08  0.10566000000E+00  0.10566000000E+00 0. -1.
     999900   -1    0    0    0    0 -0.00000000000E+00 -0.00000000000E+00 -0.74505805969E-08  0.93827000000E+00  0.93827000000E+00 0. -1.
     999902    2    1    2    0    0  0.32570456840E-02 -0.54248030020E-02  0.12369622926E-01  0.10300359579E+01  0.10299422460E+01 0.  0.
     999903    2    3    3    0    0 -0.10125485729E-01  0.12851657631E+00 -0.25877076805E-01  0.13897917225E+00  0.45017234100E-01 0.  0.
         14    1    1    2    0    0 -0.32570456840E-02  0.54248030020E-02 -0.12369622926E-01  0.13894042087E-01  0.00000000000E+00 0.  1.
     999901    1    3    3    0    0  0.13382531413E-01 -0.13394137932E+00  0.38246699730E-01  0.89105678567E+00  0.88000000000E+00 0. -1.
        -11    1    4    4    0    0 -0.95456226785E-02  0.10648057213E+00 -0.26338838485E-02  0.10694124376E+00  0.51100000000E-03 0. -1.
         11    1    4    4    0    0 -0.57986305015E-03  0.22036004187E-01 -0.23243192956E-01  0.32037928483E-01  0.51100000000E-03 0.  1.
</event>
<event>
 8    1  0.2837913E+004  0.1043930E+01  0.7957747E-01            NaN
         13   -1    0    0    0    0  0.00000000000E+00  0.00000000000E+00  0.74505805969E-08  0.10566000000E+00  0.10566000000E+00 0. -1.
     999900   -1    0    0    0    0 -0.00000000000E+00 -0.00000000000E+00 -0.74505805969E-08  0.93827000000E+00  0.93827000000E+00 0.  1.
     999902    2    1    2    0    0 -0.62702967142E-02 -0.26639676681E-03  0.11854380063E-01  0.10305168007E+01  0.10304295040E+01 0.  0.
     999903    2    3    3    0    0  0.91108391643E-01  0.70414941475E-01  0.68554322858E-01  0.14052054004E+00  0.42276754600E-01 0.  0.
         14    1    1    2    0    0  0.62702967142E-02  0.26639676681E-03 -0.11854380063E-01  0.13413199275E-01  0.00000000000E+00 0.  1.
     999901    1    3    3    0    0 -0.97378688358E-01 -0.70681338242E-01 -0.56699942796E-01  0.88999626069E+00  0.88000000000E+00 0.  1.
        -11    1    4    4    0    0  0.50506845181E-01  0.63720799580E-01  0.49262935343E-01  0.95070393019E-01  0.51100000000E-03 0. -1.
         11    1    4    4    0    0  0.40601546463E-01  0.66941418955E-02  0.19291387516E-01  0.45450147020E-01  0.51100000000E-03 0.  1.
</event>
<event>
 8    1  0.2837913E+004  0.1043930E+01  0.7957747E-01            NaN
         13   -1    0    0    0    0  0.00000000000E+00  0.00000000000E+00  0.74505805969E-08  0.10566000000E+00  0.10566000000E+00 0. -1.
     999900   -1    0    0    0    0 -0.00000000000E+00 -0.00000000000E+00 -0.74505805969E-08  0.93827000000E+00  0.93827000000E+00 0. -1.
     999902    2    1    2    0    0  0.11451389834E-02  0.13348144952E-01 -0.28766702367E-02  0.10302274620E+01  0.10301363326E+01 0.  0.
     999903    2    3    3    0    0 -0.88790858630E-01 -0.95244696171E-01 -0.21116951047E-01  0.13881644753E+00  0.43228598851E-01 0.  0.
         14    1    1    2    0    0 -0.11451389834E-02 -0.13348144952E-01  0.28766702367E-02  0.13702538035E-01  0.00000000000E+00 0. -1.
     999901    1    3    3    0    0  0.89935997613E-01  0.10859284112E+00  0.18240280810E-01  0.89141101443E+00  0.88000000000E+00 0.  1.
        -11    1    4    4    0    0 -0.70545566942E-01 -0.95107055876E-01 -0.14063035588E-01  0.11924788964E+00  0.51100000000E-03 0. -1.
         11    1    4    4    0    0 -0.18245291688E-01 -0.13764029497E-03 -0.70539154595E-02  0.19568557891E-01  0.51100000000E-03 0.  1.
</event>
<event>
 8    1  0.2837913E+004  0.1043930E+01  0.7957747E-01            NaN
         13   -1    0    0    0    0  0.00000000000E+00  0.00000000000E+00  0.74505805969E-08  0.10566000000E+00  0.10566000000E+00 0.  1.
     999900   -1    0    0    0    0 -0.00000000000E+00 -0.00000000000E+00 -0.74505805969E-08  0.93827000000E+00  0.93827000000E+00 0.  1.
     999902    2    1    2    0    0 -0.58740672869E-02  0.13414257097E-01  0.74107471658E-02  0.10275176226E+01  0.10273865380E+01 0.  0.
     999903    2    3    3    0    0 -0.12032720729E+00 -0.38784504050E-01  0.32381413703E-01  0.13822140300E+00  0.45538178750E-01 0.  0.
         14    1    1    2    0    0  0.58740672869E-02 -0.13414257097E-01 -0.74107471658E-02  0.16412377448E-01  0.00000000000E+00 0.  1.
     999901    1    3    3    0    0  0.11445314001E+00  0.52198761147E-01 -0.24970666537E-01  0.88929621955E+00  0.88000000000E+00 0.  1.
        -11    1    4    4    0    0 -0.79915984714E-01 -0.45706522972E-01  0.31178250197E-01  0.97200798666E-01  0.51100000000E-03 0.  1.
         11    1    4    4    0    0 -0.40411222581E-01  0.69220189215E-02  0.12031635057E-02  0.41020604333E-01  0.51100000000E-03 0. -1.
</event>
<event>
 8    1  0.2837913E+004  0.1043930E+01  0.7957747E-01            NaN
         13   -1    0    0    0    0  0.00000000000E+00  0.00000000000E+00  0.74505805969E-08  0.10566000000E+00  0.10566000000E+00 0. -1.
     999900   -1    0    0    0    0 -0.00000000000E+00 -0.00000000000E+00 -0.74505805969E-08  0.93827000000E+00  0.93827000000E+00 0.  1.
     999902    2    1    2    0    0 -0.72929256585E-02  0.15141710130E-02 -0.12900296359E-01  0.10290337882E+01  0.10289259644E+01 0.  0.
     999903    2    3    3    0    0 -0.31913391739E-01 -0.12784252880E+00  0.19735023809E-01  0.13863815300E+00  0.38326095052E-01 0.  0.
         14    1    1    2    0    0  0.72929256585E-02 -0.15141710130E-02  0.12900296359E-01  0.14896211756E-01  0.00000000000E+00 0. -1.
     999901    1    3    3    0    0  0.24620466081E-01  0.12935669981E+00 -0.32635320168E-01  0.89039563524E+00  0.88000000000E+00 0.  1.
        -11    1    4    4    0    0 -0.72309983502E-02 -0.26099874953E-01 -0.11433593427E-01  0.29402023559E-01  0.51100000000E-03 0. -1.
         11    1    4    4    0    0 -0.24682393389E-01 -0.10174265384E+00  0.31168617236E-01  0.10923612944E+00  0.51100000000E-03 0.  1.
</event>
<event>
 8    1  0.2837913E+004  0.1043930E+01  0.7957747E-01            NaN
         13   -1    0    0    0    0  0.00000000000E+00  0.00000000000E+00  0.74505805969E-08  0.10566000000E+00  0.10566000000E+00 0.  1.
     999900   -1    0    0    0    0 -0.00000000000E+00 -0.00000000000E+00 -0.74505805969E-08  0.93827000000E+00  0.93827000000E+00 0.  1.
     999902    2    1    2    0    0  0.32286166706E-02  0.25101083515E-01 -0.13139557659E-01  0.10154144545E+01  0.10150139793E+01 0.  0.
     999903    2    3    3    0    0 -0.44305962262E-01  0.37796114362E-01  0.10270810740E+00  0.12645923544E+00  0.45292586040E-01 0.  0.
         14    1    1    2    0    0 -0.32286166706E-02 -0.25101083515E-01  0.13139557659E-01  0.28515545492E-01  0.00000000000E+00 0.  1.
     999901    1    3    3    0    0  0.47534578932E-01 -0.12695030847E-01 -0.11584766506E+00  0.88895521906E+00  0.88000000000E+00 0.  1.
        -11    1    4    4    0    0 -0.38828938140E-01  0.85191408813E-02  0.36981080691E-01  0.54296626493E-01  0.51100000000E-03 0.  1.
         11    1    4    4    0    0 -0.54770241219E-02  0.29276973481E-01  0.65727026710E-01  0.72162608951E-01  0.51100000000E-03 0. -1.
</event>
<event>
 8    1  0.2837913E+004  0.1043930E+01  0.7957747E-01            NaN
         13   -1    0    0    0    0  0.00000000000E+00  0.00000000000E+00  0.74505805969E-08  0.10566000000E+00  0.10566000000E+00 0.  1.
     999900   -1    0    0    0    0 -0.00000000000E+00 -0.00000000000E+00 -0.74505805969E-08  0.93827000000E+00  0.93827000000E+00 0.  1.
     999902    2    1    2    0    0 -0.75801387133E-02  0.99155866411E-02  0.64696513883E-02  0.10298717729E+01  0.10297758177E+01 0.  0.
     999903    2    3    3    0    0  0.89300571846E-01  0.86591105542E-01 -0.43793880929E-01  0.13982040919E+00  0.46467527683E-01 0.  0.
         14    1    1    2    0    0  0.75801387133E-02 -0.99155866411E-02 -0.64696513883E-02  0.14058227144E-01  0.00000000000E+00 0. -1.
     999901    1    3    3    0    0 -0.96880710560E-01 -0.76675518901E-01  0.50263532318E-01  0.89005136366E+00  0.88000000000E+00 0. -1.
        -11    1    4    4    0    0  0.46391830942E-01  0.17202117140E-01 -0.27548109731E-01  0.56632802182E-01  0.51100000000E-03 0. -1.
         11    1    4    4    0    0  0.42908740904E-01  0.69388988401E-01 -0.16245771199E-01  0.83187607011E-01  0.51100000000E-03 0.  1.
</event>
<event>
 8    1  0.2837913E+004  0.1043930E+01  0.7957747E-01            NaN
         13   -1    0    0    0    0  0.00000000000E+00  0.00000000000E+00  0.74505805969E-08  0.10566000000E+00  0.10566000000E+00 0. -1.
     999900   -1    0    0    0    0 -0.00000000000E+00 -0.00000000000E+00 -0.74505805969E-08  0.93827000000E+00  0.93827000000E+00 0. -1.
     999902    2    1    2    0    0 -0.44956452068E-02  0.71041094232E-02 -0.10704147638E-01  0.10303190495E+01  0.10302291424E+01 0.  0.
     999903    2    3    3    0    0 -0.18489469672E-01  0.79574589040E-01  0.10427840961E+00  0.13977495402E+00  0.44599051008E-01 0.  0.
         14    1    1    2    0    0  0.44956452068E-02 -0.71041094232E-02  0.10704147638E-01  0.13610950488E-01  0.00000000000E+00 0. -1.
     999901    1    3    3    0    0  0.13993824466E-01 -0.72470479616E-01 -0.11498255725E+00  0.89054409549E+00  0.88000000000E+00 0. -1.
        -11    1    4    4    0    0 -0.30356383896E-01  0.35754539138E-01  0.61935200780E-01  0.77692517844E-01  0.51100000000E-03 0.  1.
         11    1    4    4    0    0  0.11866914224E-01  0.43820049902E-01  0.42343208834E-01  0.62082436179E-01  0.51100000000E-03 0. -1.
</event>
<event>
 8    1  0.2837913E+004  0.1043930E+01  0.7957747E-01            NaN
         13   -1    0    0    0    0  0.00000000000E+00  0.00000000000E+00  0.74505805969E-08  0.10566000000E+00  0.10566000000E+00 0. -1.
     999900   -1    0    0    0    0 -0.00000000000E+00 -0.00000000000E+00 -0.74505805969E-08  0.93827000000E+00  0.93827000000E+00 0. -1.
     999902    2    1    2    0    0 -0.27662158231E-02 -0.12538987747E-01  0.52568028101E-02  0.10300551256E+01  0.10299616739E+01 0.  0.
     999903    2    3    3    0    0  0.97041415609E-01  0.40444616499E-01 -0.79290471424E-01  0.13881045258E+00  0.43915367927E-01 0.  0.
         14    1    1    2    0    0  0.27662158231E-02  0.12538987747E-01 -0.52568028101E-02  0.13874874395E-01  0.00000000000E+00 0. -1.
     999901    1    3    3    0    0 -0.99807631432E-01 -0.52983604246E-01  0.84547274234E-01  0.89124467302E+00  0.88000000000E+00 0.  1.
        -11    1    4    4    0    0  0.60539256443E-01  0.12126748152E-01 -0.22768205264E-01  0.65808144506E-01  0.51100000000E-03 0. -1.
         11    1    4    4    0    0  0.36502159167E-01  0.28317868348E-01 -0.56522266160E-01  0.73002308076E-01  0.51100000000E-03 0.  1.
</event>
<event>
 8    1  0.2837913E+004  0.1043930E+01  0.7957747E-01            NaN
         13   -1    0    0    0    0  0.00000000000E+00  0.00000000000E+00  0.74505805969E-08  0.10566000000E+00  0.10566000000E+00 0. -1.
     999900   -1    0    0    0    0 -0.00000000000E+00 -0.00000000000E+00 -0.74505805969E-08  0.93827000000E+00  0.93827000000E+00 0.  1.
     999902    2    1    2    0    0 -0.27967333888E-02  0.14014837040E-01  0.55271344484E-02  0.10286072525E+01  0.10284931178E+01 0.  0.
     999903    2    3    3    0    0 -0.11437708753E+00  0.60127942105E-01  0.29247802090E-01  0.14004703287E+00  0.45389975915E-01 0.  0.
         14    1    1    2    0    0  0.27967333888E-02 -0.14014837040E-01 -0.55271344484E-02  0.15322747473E-01  0.00000000000E+00 0. -1.
     999901    1    3    3    0    0  0.11158035414E+00 -0.46113105066E-01 -0.23720667642E-01  0.88856021966E+00  0.88000000000E+00 0.  1.
        -11    1    4    4    0    0 -0.64211525447E-01  0.53513793738E-01  0.31668673851E-01  0.89386867855E-01  0.51100000000E-03 0.  1.
         11    1    4    4    0    0 -0.50165562086E-01  0.66141483679E-02 -0.24208717608E-02  0.50660165012E-01  0.51100000000E-03 0. -1.
</event>
<event>
 8    1  0.2837913E+004  0.1043930E+01  0.7957747E-01            NaN
         13   -1    0    0    0    0  0.00000000000E+00  0.00000000000E+00  0.74505805969E-08  0.10566000000E+00  0.10566000000E+00 0.  1.
     999900   -1    0    0    0    0 -0.00000000000E+00 -0.00000000000E+00 -0.74505805969E-08  0.93827000000E+00  0.93827000000E+00 0.  1.
     999902    2    1    2    0    0 -0.98973728932E-02 -0.64366051367E-02 -0.47436667298E-02  0.10312063901E+01  0.10311278915E+01 0.  0.
     999903    2    3    3    0    0  0.50037281682E-01  0.21969681122E-01 -0.12213577506E+00  0.14093677527E+00  0.44267715422E-01 0.  0.
         14    1    1    2    0    0  0.98973728932E-02  0.64366051367E-02  0.47436667298E-02  0.12723609940E-01  0.00000000000E+00 0.  1.
     999901    1    3    3    0    0 -0.59934654576E-01 -0.28406286259E-01  0.11739210833E+00  0.89026961479E+00  0.88000000000E+00 0. -1.
        -11    1    4    4    0    0  0.54132485320E-01  0.20374065365E-01 -0.80826503923E-01  0.99391213716E-01  0.51100000000E-03 0. -1.
         11    1    4    4    0    0 -0.40952036380E-02  0.15956157573E-02 -0.41309271132E-01  0.41545561555E-01  0.51100000000E-03 0.  1.
</event>
<event>
 8    1  0.2837913E+004  0.1043930E+01  0.7957747E-01            NaN
         13   -1    0    0    0    0  0.00000000000E+00  0.00000000000E+00  0.74505805969E-08  0.10566000000E+00  0.10566000000E+00 0. -1.
     999900   -1    0    0    0    0 -0.00000000000E+00 -0.00000000000E+00 -0.74505805969E-08  0.93827000000E+00  0.93827000000E+00 0.  1.
     999902    2    1    2    0    0 -0.12048111905E-01 -0.40152815634E-02 -0.15892937884E-02  0.10311313539E+01  0.10310519210E+01 0.  0.
     999903    2    3    3    0    0 -0.29807807403E-01  0.51726876618E-01 -0.12099408013E+00  0.14114253491E+00  0.41442400818E-01 0.  0.
         14    1    1    2    0    0  0.12048111905E-01  0.40152815634E-02  0.15892937884E-02  0.12798646071E-01  0.00000000000E+00 0. -1.
     999901    1    3    3    0    0  0.17759695498E-01 -0.55742158181E-01  0.11940478635E+00  0.88998881902E+00  0.88000000000E+00 0. -1.
        -11    1    4    4    0    0 -0.49977078117E-02  0.42632430135E-02 -0.58361888704E-01  0.58732644232E-01  0.51100000000E-03 0.  1.
         11    1    4    4    0    0 -0.24810099592E-01  0.47463633604E-01 -0.62632191429E-01  0.82409890674E-01  0.51100000000E-03 0. -1.
</event>
<event>
 8    1  0.2837913E+004  0.1043930E+01  0.7957747E-01            NaN
         13   -1    0    0    0    0  0.00000000000E+00  0.00000000000E+00  0.74505805969E-08  0.10566000000E+00  0.10566000000E+00 0. -1.
     999900   -1    0    0    0    0 -0.00000000000E+00 -0.00000000000E+00 -0.74505805969E-08  0.93827000000E+00  0.93827000000E+00 0.  1.
     999902    2    1    2    0    0 -0.12309520310E-01  0.48656107712E-02 -0.44145066984E-02  0.10299769957E+01  0.10298824814E+01 0.  0.
     999903    2    3    3    0    0 -0.13060023722E+00  0.25995639077E-01 -0.17720319069E-01  0.14171114790E+00  0.45120333751E-01 0.  0.
         14    1    1    2    0    0  0.12309520310E-01 -0.48656107712E-02  0.44145066984E-02  0.13953004258E-01  0.00000000000E+00 0. -1.
     999901    1    3    3    0    0  0.11829071691E+00 -0.21130028306E-01  0.13305812371E-01  0.88826584784E+00  0.88000000000E+00 0.  1.
        -11    1    4    4    0    0 -0.51124646250E-01  0.31302395258E-01  0.70905560821E-03  0.59952758768E-01  0.51100000000E-03 0. -1.
         11    1    4    4    0    0 -0.79475590969E-01 -0.53067561802E-02 -0.18429374677E-01  0.81758389129E-01  0.51100000000E-03 0.  1.
</event>
<event>
 8    1  0.2837913E+004  0.1043930E+01  0.7957747E-01            NaN
         13   -1    0    0    0    0  0.00000000000E+00  0.00000000000E+00  0.74505805969E-08  0.10566000000E+00  0.10566000000E+00 0. -1.
     999900   -1    0    0    0    0 -0.00000000000E+00 -0.00000000000E+00 -0.74505805969E-08  0.93827000000E+00  0.93827000000E+00 0. -1.
     999902    2    1    2    0    0  0.11703842937E-01 -0.36761968212E-02 -0.82346263805E-02  0.10291549049E+01  0.10290488399E+01 0.  0.
     999903    2    3    3    0    0  0.45418152684E-01  0.70034606637E-01  0.10164691280E+00  0.13862478760E+00  0.43784496511E-01 0.  0.
         14    1    1    2    0    0 -0.11703842937E-01  0.36761968212E-02  0.82346263805E-02  0.14775095065E-01  0.00000000000E+00 0. -1.
     999901    1    3    3    0    0 -0.33714309746E-01 -0.73710803458E-01 -0.10988153918E+00  0.89053011734E+00  0.88000000000E+00 0. -1.
        -11    1    4    4    0    0  0.37651544991E-01  0.49693166860E-01  0.42129782800E-01  0.75247786629E-01  0.51100000000E-03 0.  1.
         11    1    4    4    0    0  0.77666076929E-02  0.20341439777E-01  0.59517130003E-01  0.63377000970E-01  0.51100000000E-03 0. -1.
</event>
<event>
 8    1  0.2837913E+004  0.1043930E+01  0.7957747E-01            NaN
         13   -1    0    0    0    0  0.00000000000E+00  0.00000000000E+00  0.74505805969E-08  0.10566000000E+00  0.10566000000E+00 0.  1.
     999900   -1    0    0    0    0 -0.00000000000E+00 -0.00000000000E+00 -0.74505805969E-08  0.93827000000E+00  0.93827000000E+00 0. -1.
     999902    2    1    2    0    0  0.12625913795E-01  0.48764032946E-02 -0.89258506678E-03  0.10303657191E+01  0.10302764315E+01 0.  0.
     999903    2    3    3    0    0 -0.93224525529E-01 -0.28763481068E-01 -0.88338889010E-01  0.13908416235E+00  0.44972156968E-01 0.  0.
         14    1    1    2    0    0 -0.12625913795E-01 -0.48764032946E-02  0.89258506678E-03  0.13564280901E-01  0.00000000000E+00 0.  1.
     999901    1    3    3    0    0  0.10585043932E+00  0.33639884363E-01  0.87446303943E-01  0.89128155675E+00  0.88000000000E+00 0.  1.
        -11    1    4    4    0    0 -0.33960368153E-01 -0.33020084125E-01 -0.46768436572E-01  0.66567111557E-01  0.51100000000E-03 0. -1.
         11    1    4    4    0    0 -0.59264157376E-01  0.42566030562E-02 -0.41570452438E-01  0.72517050795E-01  0.51100000000E-03 0.  1.
</event>
<event>
 8    1  0.2837913E+004  0.1043930E+01  0.7957747E-01            NaN
         13   -1    0    0    0    0  0.00000000000E+00  0.00000000000E+00  0.74505805969E-08  0.10566000000E+00  0.10566000000E+00 0. -1.
     999900   -1    0    0    0    0 -0.00000000000E+00 -0.00000000000E+00 -0.74505805969E-08  0.93827000000E+00  0.93827000000E+00 0.  1.
     999902    2    1    2    0    0 -0.64689796072E-02 -0.78938573814E-02  0.10209429236E-01  0.10294941721E+01  0.10293929557E+01 0.  0.
     999903    2    3    3    0    0 -0.53512359098E-01  0.11788090914E+00  0.18133093283E-01  0.13927220209E+00  0.48046393079E-01 0.  0.
         14    1    1    2    0    0  0.64689796072E-02  0.78938573814E-02 -0.10209429236E-01  0.14435827889E-01  0.00000000000E+00 0.  1.
     999901    1    3    3    0    0  0.47043379490E-01 -0.12577476652E+00 -0.79236640464E-02  0.89022197002E+00  0.88000000000E+00 0. -1.
        -11    1    4    4    0    0  0.33012031616E-02  0.43895224870E-01  0.12757087996E-01  0.45833318927E-01  0.51100000000E-03 0. -1.
         11    1    4    4    0    0 -0.56813562259E-01  0.73985684271E-01  0.53760052868E-02  0.93438883167E-01  0.51100000000E-03 0.  1.
</event>
<event>
 8    1  0.2837913E+004  0.1043930E+01  0.7957747E-01            NaN
         13   -1    0    0    0    0  0.00000000000E+00  0.00000000000E+00  0.74505805969E-08  0.10566000000E+00  0.10566000000E+00 0. -1.
     999900   -1    0    0    0    0 -0.00000000000E+00 -0.00000000000E+00 -0.74505805969E-08  0.93827000000E+00  0.93827000000E+00 0.  1.
     999902    2    1    2    0    0  0.48420299757E-03  0.13391905517E-01 -0.26592366913E-02  0.10302680409E+01  0.10301774541E+01 0.  0.
     999903    2    3    3    0    0  0.45211533701E-01  0.10496560550E+00 -0.70790979371E-01  0.14177031386E+00  0.45006644111E-01 0.  0.
         14    1    1    2    0    0 -0.48420299757E-03 -0.13391905517E-01  0.26592366913E-02  0.13661959072E-01  0.00000000000E+00 0. -1.
     999901    1    3    3    0    0 -0.44727330703E-01 -0.91573699985E-01  0.68131742679E-01  0.88849772707E+00  0.88000000000E+00 0. -1.
        -11    1    4    4    0    0  0.18772249467E-01  0.24356296556E-01 -0.42257082929E-01  0.52264220176E-01  0.51100000000E-03 0.  1.
         11    1    4    4    0    0  0.26439284234E-01  0.80609308947E-01 -0.28533896441E-01  0.89506093685E-01  0.51100000000E-03 0. -1.
</event>
<event>
 8    1  0.2837913E+004  0.1043930E+01  0.7957747E-01            NaN
         13   -1    0    0    0    0  0.00000000000E+00  0.00000000000E+00  0.74505805969E-08  0.10566000000E+00  0.10566000000E+00 0.  1.
     999900   -1    0    0    0    0 -0.00000000000E+00 -0.00000000000E+00 -0.74505805969E-08  0.93827000000E+00  0.93827000000E+00 0. -1.
     999902    2    1    2    0    0  0.13064455458E-01 -0.58403385277E-02 -0.25368427202E-03  0.10296172817E+01  0.10295177962E+01 0.  0.
     999903    2    3    3    0    0  0.60614785470E-01  0.10779326450E+00 -0.46545795124E-01  0.13983270709E+00  0.45750790589E-01 0.  0.
         14    1    1    2    0    0 -0.13064455458E-01  0.58403385277E-02  0.25368427202E-03  0.14312718339E-01  0.00000000000E+00 0. -1.
     999901    1    3    3    0    0 -0.47550330011E-01 -0.11363360302E+00  0.46292110852E-01  0.88978457457E+00  0.88000000000E+00 0. -1.
        -11    1    4    4    0    0  0.28353167156E-01  0.14173806515E-01 -0.19354185700E-01  0.37143566118E-01  0.51100000000E-03 0. -1.
         11    1    4    4    0    0  0.32261618314E-01  0.93619457982E-01 -0.27191609424E-01  0.10268914097E+00  0.51100000000E-03 0.  1.
</event>
<event>
 8    1  0.2837913E+004  0.1043930E+01  0.7957747E-01            NaN
         13   -1    0    0    0    0  0.00000000000E+00  0.00000000000E+00  0.74505805969E-08  0.10566000000E+00  0.10566000000E+00 0. -1.
     999900   -1    0    0    0    0 -0.00000000000E+00 -0.00000000000E+00 -0.74505805969E-08  0.93827000000E+00  0.93827000000E+00 0. -1.
     999902    2    1    2    0    0 -0.43571338248E-02  0.16623651221E-02  0.12561332509E-01  0.10305309274E+01  0.10304438156E+01 0.  0.
     999903    2    3    3    0    0  0.27016484510E-01  0.12808596312E+00 -0.22167837390E-01  0.14026504276E+00  0.45243395336E-01 0.  0.
         14    1    1    2    0    0  0.43571338248E-02 -0.16623651221E-02 -0.12561332509E-01  0.13399072631E-01  0.00000000000E+00 0.  1.
     999901    1    3    3    0    0 -0.31373618334E-01 -0.12642359800E+00  0.34729169899E-01  0.89026588461E+00  0.88000000000E+00 0. -1.
        -11    1    4    4    0    0  0.37630967208E-02  0.89233551972E-01 -0.30187624497E-01  0.94278001083E-01  0.51100000000E-03 0. -1.
         11    1    4    4    0    0  0.23253387789E-01  0.38852411150E-01  0.80197871078E-02  0.45987041676E-01  0.51100000000E-03 0.  1.
</event>
<event>
 8    1  0.2837913E+004  0.1043930E+01  0.7957747E-01            NaN
         13   -1    0    0    0    0  0.00000000000E+00  0.00000000000E+00  0.74505805969E-08  0.10566000000E+00  0.10566000000E+00 0. -1.
     999900   -1    0    0    0    0 -0.00000000000E+00 -0.00000000000E+00 -0.74505805969E-08  0.93827000000E+00  0.93827000000E+00 0.  1.
     999902    2    1    2    0    0  0.22408601505E-02 -0.34558933070E-02  0.11384445500E-01  0.10318233798E+01  0.10317523525E+01 0.  0.
     999903    2    3    3    0    0  0.93106908233E-01 -0.32640473537E-01 -0.88628987880E-01  0.14103099926E+00  0.47961947265E-01 0.  0.
         14    1    1    2    0    0 -0.22408601505E-02  0.34558933070E-02 -0.11384445500E-01  0.12106620177E-01  0.00000000000E+00 0.  1.
     999901    1    3    3    0    0 -0.90866048082E-01  0.29184580230E-01  0.10001343338E+00  0.89079238057E+00  0.88000000000E+00 0. -1.
        -11    1    4    4    0    0  0.62468306463E-01 -0.19659224935E-01 -0.26695258473E-01  0.70722502666E-01  0.51100000000E-03 0.  1.
         11    1    4    4    0    0  0.30638601770E-01 -0.12981248602E-01 -0.61933729407E-01  0.70308496592E-01  0.51100000000E-03 0. -1.
</event>
<event>
 8    1  0.2837913E+004  0.1043930E+01  0.7957747E-01            NaN
         13   -1    0    0    0    0  0.00000000000E+00  0.00000000000E+00  0.74505805969E-08  0.10566000000E+00  0.10566000000E+00 0.  1.
     999900   -1    0    0    0    0 -0.00000000000E+00 -0.00000000000E+00 -0.74505805969E-08  0.93827000000E+00  0.93827000000E+00 0.  1.
     999902    2    1    2    0    0 -0.26144420851E-03  0.82134186245E-02  0.11454702967E-01  0.10298325244E+01  0.10297360290E+01 0.  0.
     999903    2    3    3    0    0 -0.93706997835E-02  0.97343328530E-01  0.91818126930E-01  0.14164031586E+00  0.45473915824E-01 0.  0.
         14    1    1    2    0    0  0.26144420851E-03 -0.82134186245E-02 -0.11454702967E-01  0.14097475613E-01  0.00000000000E+00 0. -1.
     999901    1    3    3    0    0  0.91092555750E-02 -0.89129909906E-01 -0.80363423963E-01  0.88819220853E+00  0.88000000000E+00 0.  1.
        -11    1    4    4    0    0 -0.15095378000E-01  0.32296606785E-01  0.58052039890E-01  0.68126659269E-01  0.51100000000E-03 0. -1.
         11    1    4    4    0    0  0.57246782166E-02  0.65046721745E-01  0.33766087040E-01  0.73513656591E-01  0.51100000000E-03 0.  1.
</event>
<event>
 8    1  0.2837913E+004  0.1043930E+01  0.7957747E-01            NaN
         13   -1    0    0    0    0  0.00000000000E+00  0.00000000000E+00  0.74505805969E-08  0.10566000000E+00  0.10566000000E+00 0. -1.
     999900   -1    0    0    0    0 -0.00000000000E+00 -0.00000000000E+00 -0.74505805969E-08  0.93827000000E+00  0.93827000000E+00 0. -1.
     999902    2    1    2    0    0 -0.12165329774E-03 -0.13275119049E-01  0.56853365412E-02  0.10294881637E+01  0.10293868624E+01 0.  0.
     999903    2    3    3    0    0 -0.10984868711E+00 -0.32928922024E-01  0.68541742806E-01  0.14023160803E+00  0.42613207104E-01 0.  0.
         14    1    1    2    0    0  0.12165329774E-03  0.13275119049E-01 -0.56853365412E-02  0.14441836340E-01  0.00000000000E+00 0.  1.
     999901    1    3    3    0    0  0.10972703381E+00  0.19653802975E-01 -0.62856406264E-01  0.88925655563E+00  0.88000000000E+00 0. -1.
        -11    1    4    4    0    0 -0.93778779602E-01 -0.12423661326E-01  0.43607547729E-01  0.10416662711E+00  0.51100000000E-03 0. -1.
         11    1    4    4    0    0 -0.16069907505E-01 -0.20505260698E-01  0.24934195076E-01  0.36064980918E-01  0.51100000000E-03 0.  1.
</event>
<event>
 8    1  0.2837913E+004  0.1043930E+01  0.7957747E-01            NaN
         13   -1    0    0    0    0  0.00000000000E+00  0.00000000000E+00  0.74505805969E-08  0.10566000000E+00  0.10566000000E+00 0. -1.
     999900   -1    0    0    0    0 -0.00000000000E+00 -0.00000000000E+00 -0.74505805969E-08  0.93827000000E+00  0.93827000000E+00 0. -1.
     999902    2    1    2    0    0  0.14837214398E-01  0.71337677103E-02  0.12805777177E-01  0.10230728309E+01  0.10228602035E+01 0.  0.
     999903    2    3    3    0    0  0.10165001912E+00 -0.70598514175E-01 -0.27443580529E-01  0.13447912089E+00  0.44884376489E-01 0.  0.
         14    1    1    2    0    0 -0.14837214398E-01 -0.71337677103E-02 -0.12805777177E-01  0.20857169078E-01  0.00000000000E+00 0.  1.
     999901    1    3    3    0    0 -0.86812804721E-01  0.77732281885E-01  0.40249357706E-01  0.88859371003E+00  0.88000000000E+00 0.  1.
        -11    1    4    4    0    0  0.28832656799E-01 -0.21095095203E-02  0.50748885623E-02  0.29356221546E-01  0.51100000000E-03 0. -1.
         11    1    4    4    0    0  0.72817362320E-01 -0.68489004654E-01 -0.32518469091E-01  0.10512289935E+00  0.51100000000E-03 0.  1.
</event>
<event>
 8    1  0.2837913E+004  0.1043930E+01  0.7957747E-01            NaN
         13   -1    0    0    0    0  0.00000000000E+00  0.00000000000E+00  0.74505805969E-08  0.10566000000E+00  0.10566000000E+00 0.  1.
     999900   -1    0    0    0    0 -0.00000000000E+00 -0.00000000000E+00 -0.74505805969E-08  0.93827000000E+00  0.93827000000E+00 0. -1.
     999902    2    1    2    0    0  0.33390511677E-02 -0.23103304074E-03 -0.12723774648E-01  0.10307733636E+01  0.10306893956E+01 0.  0.
     999903    2    3    3    0    0  0.65190410630E-01 -0.11625705670E+00 -0.92591038180E-02  0.14099831748E+00  0.45047770837E-01 0.  0.
         14    1    1    2    0    0 -0.33390511677E-02  0.23103304074E-03  0.12723774648E-01  0.13156636358E-01  0.00000000000E+00 0.  1.
     999901    1    3    3    0    0 -0.61851359463E-01  0.11602602366E+00 -0.34646708297E-02  0.88977504616E+00  0.88000000000E+00 0. -1.
        -11    1    4    4    0    0  0.45161503582E-01 -0.36502956237E-01 -0.90068136111E-02  0.58765730083E-01  0.51100000000E-03 0. -1.
         11    1    4    4    0    0  0.20028907048E-01 -0.79754100463E-01 -0.25229020690E-03  0.82232587394E-01  0.51100000000E-03 0.  1.
</event>
<event>
 8    1  0.2837913E+004  0.1043930E+01  0.7957747E-01            NaN
         13   -1    0    0    0    0  0.00000000000E+00  0.00000000000E+00  0.74505805969E-08  0.10566000000E+00  0.10566000000E+00 0.  1.
     999900   -1    0    0    0    0 -0.00000000000E+00 -0.00000000000E+00 -0.74505805969E-08  0.93827000000E+00  0.93827000000E+00 0.  1.
     999902    2    1    2    0    0  0.12389342060E-01  0.18457637495E-02 -0.60974941923E-02  0.10299986657E+01  0.10299044466E+01 0.  0.
     999903    2    3    3    0    0 -0.22349584392E-02 -0.41883705433E-01 -0.12648661924E+00  0.14060579520E+00  0.44854040799E-01 0.  0.
         14    1    1    2    0    0 -0.12389342060E-01 -0.18457637495E-02  0.60974941923E-02  0.13931334319E-01  0.00000000000E+00 0.  1.
     999901    1    3    3    0    0  0.14624300499E-01  0.43729469182E-01  0.12038912505E+00  0.88939287049E+00  0.88000000000E+00 0. -1.
        -11    1    4    4    0    0  0.11009893139E-01 -0.25315366614E-01 -0.11088103748E+00  0.11426701680E+00  0.51100000000E-03 0.  1.
         11    1    4    4    0    0 -0.13244851578E-01 -0.16568338819E-01 -0.15605581758E-01  0.26338778399E-01  0.51100000000E-03 0. -1.
</event>
<event>
 8    1  0.2837913E+004  0.1043930E+01  0.7957747E-01            NaN
         13   -1    0    0    0    0  0.00000000000E+00  0.00000000000E+00  0.74505805969E-08  0.10566000000E+00  0.10566000000E+00 0.  1.
     999900   -1    0    0    0    0 -0.00000000000E+00 -0.00000000000E+00 -0.74505805969E-08  0.93827000000E+00  0.93827000000E+00 0.  1.
     999902    2    1    2    0    0 -0.89461402031E-02 -0.32831846216E-02 -0.99775643362E-02  0.10301327352E+01  0.10300403330E+01 0.  0.
     999903    2    3    3    0    0 -0.11810343017E+00  0.64060860665E-01  0.23450834651E-01  0.14020689995E+00  0.32493369515E-01 0.  0.
         14    1    1    2    0    0  0.89461402031E-02  0.32831846216E-02  0.99775643362E-02  0.13797264797E-01  0.00000000000E+00 0. -1.
     999901    1    3    3    0    0  0.10915728996E+00 -0.67344045287E-01 -0.33428398987E-01  0.88992583525E+00  0.88000000000E+00 0.  1.
        -11    1    4    4    0    0 -0.10714424832E+00  0.61539113968E-01  0.11987969312E-01  0.12414074684E+00  0.51100000000E-03 0. -1.
         11    1    4    4    0    0 -0.10959181841E-01  0.25217466974E-02  0.11462865339E-01  0.16066153112E-01  0.51100000000E-03 0.  1.
</event>
<event>
 8    1  0.2837913E+004  0.1043930E+01  0.7957747E-01            NaN
         13   -1    0    0    0    0  0.00000000000E+00  0.00000000000E+00  0.74505805969E-08  0.10566000000E+00  0.10566000000E+00 0. -1.
     999900   -1    0    0    0    0 -0.00000000000E+00 -0.00000000000E+00 -0.74505805969E-08  0.93827000000E+00  0.93827000000E+00 0.  1.
     999902    2    1    2    0    0 -0.65082886335E-03 -0.11131324443E-01 -0.89039715957E-02  0.10296607788E+01  0.10295619014E+01 0.  0.
     999903    2    3    3    0    0  0.11083320369E+00  0.59060753423E-01 -0.41000751590E-01  0.13927556974E+00  0.44095930205E-01 0.  0.
         14    1    1    2    0    0  0.65082886335E-03  0.11131324443E-01  0.89039715957E-02  0.14269221151E-01  0.00000000000E+00 0. -1.
     999901    1    3    3    0    0 -0.11148403256E+00 -0.70192077866E-01  0.32096779994E-01  0.89038520911E+00  0.88000000000E+00 0. -1.
        -11    1    4    4    0    0  0.23128301976E-01  0.27947763126E-01 -0.26870904518E-01  0.45147563020E-01  0.51100000000E-03 0. -1.
         11    1    4    4    0    0  0.87704901717E-01  0.31112990297E-01 -0.14129847072E-01  0.94128006723E-01  0.51100000000E-03 0.  1.
</event>
<event>
 8    1  0.2837913E+004  0.1043930E+01  0.7957747E-01            NaN
         13   -1    0    0    0    0  0.00000000000E+00  0.00000000000E+00  0.74505805969E-08  0.10566000000E+00  0.10566000000E+00 0. -1.
     999900   -1    0    0    0    0 -0.00000000000E+00 -0.00000000000E+00 -0.74505805969E-08  0.93827000000E+00  0.93827000000E+00 0. -1.
     999902    2    1    2    0    0 -0.69788021435E-02 -0.58644170177E-02  0.10122314873E-01  0.10303080939E+01  0.10302180411E+01 0.  0.
     999903    2    3    3    0    0 -0.94030383247E-01  0.91470431988E-01  0.21307003437E-01  0.14060187959E+00  0.45894958828E-01 0.  0.
         14    1    1    2    0    0  0.69788021435E-02  0.58644170177E-02 -0.10122314873E-01  0.13621906060E-01  0.00000000000E+00 0.  1.
     999901    1    3    3    0    0  0.87051581104E-01 -0.97334849006E-01 -0.11184688565E-01  0.88970621436E+00  0.88000000000E+00 0. -1.
        -11    1    4    4    0    0 -0.11278914885E-01  0.37339988061E-01 -0.18081314334E-02  0.39051492797E-01  0.51100000000E-03 0.  1.
         11    1    4    4    0    0 -0.82751468362E-01  0.54130443927E-01  0.23115134870E-01  0.10155038679E+00  0.51100000000E-03 0. -1.
</event>
<event>
 8    1  0.2837913E+004  0.1043930E+01  0.7957747E-01            NaN
         13   -1    0    0    0    0  0.00000000000E+00  0.00000000000E+00  0.74505805969E-08  0.10566000000E+00  0.10566000000E+00 0.  1.
     999900   -1    0    0    0    0 -0.00000000000E+00 -0.00000000000E+00 -0.74505805969E-08  0.93827000000E+00  0.93827000000E+00 0. -1.
     999902    2    1    2    0    0  0.78587147432E-02  0.15265705244E-02 -0.12703248374E-01  0.10289145968E+01  0.10288050277E+01 0.  0.
     999903    2    3    3    0    0  0.11752179685E+00  0.53170683872E-01 -0.33089213301E-01  0.14037157947E+00  0.44393579803E-01 0.  0.
         14    1    1    2    0    0 -0.78587147432E-02 -0.15265705244E-02  0.12703248374E-01  0.15015403232E-01  0.00000000000E+00 0.  1.
     999901    1    3    3    0    0 -0.10966308211E+00 -0.51644113348E-01  0.20385964927E-01  0.88854301730E+00  0.88000000000E+00 0.  1.
        -11    1    4    4    0    0  0.77890279582E-01  0.32262820556E-01  0.59600202115E-03  0.84311337215E-01  0.51100000000E-03 0. -1.
         11    1    4    4    0    0  0.39631517270E-01  0.20907863317E-01 -0.33685215322E-01  0.56060242256E-01  0.51100000000E-03 0.  1.
</event>
<event>
 8    1  0.2837913E+004  0.1043930E+01  0.7957747E-01            NaN
         13   -1    0    0    0    0  0.00000000000E+00  0.00000000000E+00  0.74505805969E-08  0.10566000000E+00  0.10566000000E+00 0.  1.
     999900   -1    0    0    0    0 -0.00000000000E+00 -0.00000000000E+00 -0.74505805969E-08  0.93827000000E+00  0.93827000000E+00 0. -1.
     999902    2    1    2    0    0 -0.73749139919E-02  0.49687558567E-02 -0.11200679998E-01  0.10296284923E+01  0.10295291637E+01 0.  0.
     999903    2    3    3    0    0 -0.10472247378E+00 -0.33729087621E-01  0.73259512242E-01  0.13939953600E+00  0.44281222176E-01 0.  0.
         14    1    1    2    0    0  0.73749139919E-02 -0.49687558567E-02  0.11200679998E-01  0.14301507738E-01  0.00000000000E+00 0.  1.
     999901    1    3    3    0    0  0.97347559790E-01  0.38697843478E-01 -0.84460192241E-01  0.89022895626E+00  0.88000000000E+00 0. -1.
        -11    1    4    4    0    0 -0.23207773893E-01 -0.99963810621E-02  0.41820764421E-01  0.48864771167E-01  0.51100000000E-03 0. -1.
         11    1    4    4    0    0 -0.81514699889E-01 -0.23732706559E-01  0.31438747821E-01  0.90534764838E-01  0.51100000000E-03 0.  1.
</event>
<event>
 8    1  0.2837913E+004  0.1043930E+01  0.7957747E-01            NaN
         13   -1    0    0    0    0  0.00000000000E+00  0.00000000000E+00  0.74505805969E-08  0.10566000000E+00  0.10566000000E+00 0. -1.
     999900   -1    0    0    0    0 -0.00000000000E+00 -0.00000000000E+00 -0.74505805969E-08  0.93827000000E+00  0.93827000000E+00 0. -1.
     999902    2    1    2    0    0  0.12922102010E-01  0.18009584303E-02  0.43750340168E-02  0.10301690010E+01  0.10300770871E+01 0.  0.
     999903    2    3    3    0    0  0.56306195240E-01 -0.10026035058E+00  0.67752684102E-01  0.14094719688E+00  0.45311815069E-01 0.  0.
         14    1    1    2    0    0 -0.12922102010E-01 -0.18009584303E-02 -0.43750340168E-02  0.13760999028E-01  0.00000000000E+00 0.  1.
     999901    1    3    3    0    0 -0.43384093230E-01  0.10206130901E+00 -0.63377650086E-01  0.88922180409E+00  0.88000000000E+00 0. -1.
        -11    1    4    4    0    0  0.27372334358E-01 -0.71826749400E-01  0.64328178273E-01  0.10023323929E+00  0.51100000000E-03 0. -1.
         11    1    4    4    0    0  0.28933860882E-01 -0.28433601178E-01  0.34245058294E-02  0.40713957590E-01  0.51100000000E-03 0.  1.
</event>
<event>
 8    1  0.2837913E+004  0.1043930E+01  0.7957747E-01            NaN
         13   -1    0    0    0    0  0.00000000000E+00  0.00000000000E+00  0.74505805969E-08  0.10566000000E+00  0.10566000000E+00 0.  1.
     999900   -1    0    0    0    0 -0.00000000000E+00 -0.00000000000E+00 -0.74505805969E-08  0.93827000000E+00  0.93827000000E+00 0.  1.
     999902    2    1    2    0    0 -0.13648530430E-01  0.88648248816E-03 -0.54869386897E-02  0.10291931506E+01  0.10290876379E+01 0.  0.
     999903    2    3    3    0    0  0.79109434101E-01 -0.96978602930E-01 -0.37841644255E-01  0.13833488920E+00  0.45181849677E-01 0.  0.
         14    1    1    2    0    0  0.13648530430E-01 -0.88648248816E-03  0.54869386897E-02  0.14736849402E-01  0.00000000000E+00 0. -1.
     999901    1    3    3    0    0 -0.92757964531E-01  0.97865085418E-01  0.32354705565E-01  0.89085826140E+00  0.88000000000E+00 0. -1.
        -11    1    4    4    0    0  0.45625318672E-01 -0.34304670420E-01 -0.35526760400E-01  0.67237578347E-01  0.51100000000E-03 0. -1.
         11    1    4    4    0    0  0.33484115429E-01 -0.62673932510E-01 -0.23148838552E-02  0.71097310853E-01  0.51100000000E-03 0.  1.
</event>
<event>
 8    1  0.2837913E+004  0.1043930E+01  0.7957747E-01            NaN
         13   -1    0    0    0    0  0.00000000000E+00  0.00000000000E+00  0.74505805969E-08  0.10566000000E+00  0.10566000000E+00 0.  1.
     999900   -1    0    0    0    0 -0.00000000000E+00 -0.00000000000E+00 -0.74505805969E-08  0.93827000000E+00  0.93827000000E+00 0. -1.
     999902    2    1    2    0    0 -0.25612451626E-03 -0.13099447025E-01  0.34872811350E-03  0.10308234092E+01  0.10307400827E+01 0.  0.
     999903    2    3    3    0    0 -0.98252058193E-01 -0.73024818171E-01  0.55063972984E-01  0.14167324685E+00  0.45311993368E-01 0.  0.
         14    1    1    2    0    0  0.25612451626E-03  0.13099447025E-01 -0.34872811350E-03  0.13106590839E-01  0.00000000000E+00 0. -1.
     999901    1    3    3    0    0  0.97995933677E-01  0.59925371145E-01 -0.54715244870E-01  0.88915016232E+00  0.88000000000E+00 0.  1.
        -11    1    4    4    0    0 -0.86477473599E-01 -0.42924814396E-01  0.50718358784E-01  0.10905735266E+00  0.51100000000E-03 0.  1.
         11    1    4    4    0    0 -0.11774584594E-01 -0.30100003774E-01  0.43456142001E-02  0.32615894183E-01  0.51100000000E-03 0. -1.
</event>
<event>
 8    1  0.2837913E+004  0.1043930E+01  0.7957747E-01            NaN
         13   -1    0    0    0    0  0.00000000000E+00  0.00000000000E+00  0.74505805969E-08  0.10566000000E+00  0.10566000000E+00 0.  1.
     999900   -1    0    0    0    0 -0.00000000000E+00 -0.00000000000E+00 -0.74505805969E-08  0.93827000000E+00  0.93827000000E+00 0.  1.
     999902    2    1    2    0    0  0.29688500055E-02 -0.13144010080E-01 -0.32207236147E-02  0.10300753209E+01  0.10299821429E+01 0.  0.
     999903    2    3    3    0    0 -0.12277136370E+00  0.18653079313E-01  0.43930816167E-01  0.13932006614E+00  0.45380823137E-01 0.  0.
         14    1    1    2    0    0 -0.29688500055E-02  0.13144010080E-01  0.32207236147E-02  0.13854679063E-01  0.00000000000E+00 0. -1.
     999901    1    3    3    0    0  0.12574021371E+00 -0.31797089393E-01 -0.47151539782E-01  0.89075525479E+00  0.88000000000E+00 0.  1.
        -11    1    4    4    0    0 -0.51442154144E-01  0.10880318035E-01 -0.44640686149E-02  0.52771825562E-01  0.51100000000E-03 0. -1.
         11    1    4    4    0    0 -0.71329209556E-01  0.77727612781E-02  0.48394884782E-01  0.86548240582E-01  0.51100000000E-03 0.  1.
</event>
<event>
 8    1  0.2837913E+004  0.1043930E+01  0.7957747E-01            NaN
         13   -1    0    0    0    0  0.00000000000E+00  0.00000000000E+00  0.74505805969E-08  0.10566000000E+00  0.10566000000E+00 0. -1.
     999900   -1    0    0    0    0 -0.00000000000E+00 -0.00000000000E+00 -0.74505805969E-08  0.93827000000E+00  0.93827000000E+00 0.  1.
     999902    2    1    2    0    0 -0.14747530903E-01  0.29572108560E-02  0.13261739190E-02  0.10288305463E+01  0.10287197381E+01 0.  0.
     999903    2    3    3    0    0  0.95336439461E-01 -0.77478655300E-01 -0.42394583090E-01  0.13725894871E+00  0.44167177965E-01 0.  0.
         14    1    1    2    0    0  0.14747530903E-01 -0.29572108560E-02 -0.13261739190E-02  0.15099453667E-01  0.00000000000E+00 0. -1.
     999901    1    3    3    0    0 -0.11008397036E+00  0.80435866156E-01  0.43720757009E-01  0.89157159762E+00  0.88000000000E+00 0.  1.
        -11    1    4    4    0    0  0.84872006308E-01 -0.68768620458E-01 -0.51605488575E-01  0.12081294710E+00  0.51100000000E-03 0. -1.
         11    1    4    4    0    0  0.10464433153E-01 -0.87100348419E-02  0.92109054852E-02  0.16446001612E-01  0.51100000000E-03 0.  1.
</event>
<event>
 8    1  0.2837913E+004  0.1043930E+01  0.7957747E-01            NaN
         13   -1    0    0    0    0  0.00000000000E+00  0.00000000000E+00  0.74505805969E-08  0.10566000000E+00  0.10566000000E+00 0.  1.
     999900   -1    0    0    0    0 -0.00000000000E+00 -0.00000000000E+00 -0.74505805969E-08  0.93827000000E+00  0.93827000000E+00 0.  1.
     999902    2    1    2    0    0  0.20732123699E-02 -0.12259011515E-01  0.32301985463E-02  0.10310841542E+01  0.10310041305E+01 0.  0.
     999903    2    3    3    0    0 -0.63566128077E-01  0.28574547730E-01  0.11392631423E+00  0.14078671363E+00  0.44548134001E-01 0.  0.
         14    1    1    2    0    0 -0.20732123699E-02  0.12259011515E-01 -0.32301985463E-02  0.12845845846E-01  0.00000000000E+00 0. -1.
     999901    1    3    3    0    0  0.65639340447E-01 -0.40833559245E-01 -0.11069611569E+00  0.89029744052E+00  0.88000000000E+00 0. -1.
        -11    1    4    4    0    0 -0.18661314051E-02 -0.57317859391E-02  0.32318248759E-01  0.32879570257E-01  0.51100000000E-03 0. -1.
         11    1    4    4    0    0 -0.61699996672E-01  0.34306333670E-01  0.81608065476E-01  0.10790714337E+00  0.51100000000E-03 0.  1.
</event>
<event>
 8    1  0.2837913E+004  0.1043930E+01  0.7957747E-01            NaN
         13   -1    0    0    0    0  0.00000000000E+00  0.00000000000E+00  0.74505805969E-08  0.10566000000E+00  0.10566000000E+00 0.  1.
     999900   -1    0    0    0    0 -0.00000000000E+00 -0.00000000000E+00 -0.74505805969E-08  0.93827000000E+00  0.93827000000E+00 0. -1.
     999902    2    1    2    0    0  0.10604157293E-01 -0.59884337936E-03 -0.87029715587E-02  0.10301987044E+01  0.10301071896E+01 0.  0.
     999903    2    3    3    0    0  0.39067286778E-01 -0.11978205273E+00 -0.40466783504E-01  0.14114092961E+00  0.49083687639E-01 0.  0.
         14    1    1    2    0    0 -0.10604157293E-01  0.59884337936E-03  0.87029715587E-02  0.13731295614E-01  0.00000000000E+00 0.  1.
     999901    1    3    3    0    0 -0.28463129485E-01  0.11918320935E+00  0.31763811945E-01  0.88905777477E+00  0.88000000000E+00 0.  1.
        -11    1    4    4    0    0  0.39125989784E-01 -0.66955224591E-01 -0.54121195565E-02  0.77739290811E-01  0.51100000000E-03 0. -1.
         11    1    4    4    0    0 -0.58703006490E-04 -0.52826828142E-01 -0.35054663947E-01  0.63401638804E-01  0.51100000000E-03 0.  1.
</event>
<event>
 8    1  0.2837913E+004  0.1043930E+01  0.7957747E-01            NaN
         13   -1    0    0    0    0  0.00000000000E+00  0.00000000000E+00  0.74505805969E-08  0.10566000000E+00  0.10566000000E+00 0.  1.
     999900   -1    0    0    0    0 -0.00000000000E+00 -0.00000000000E+00 -0.74505805969E-08  0.93827000000E+00  0.93827000000E+00 0.  1.
     999902    2    1    2    0    0  0.11199377802E-01 -0.65665501094E-02 -0.55446295663E-02  0.10298130400E+01  0.10297162758E+01 0.  0.
     999903    2    3    3    0    0 -0.26833884818E-02  0.46251778298E-01  0.12304792197E+00  0.13879196765E+00  0.44452127206E-01 0.  0.
         14    1    1    2    0    0 -0.11199377802E-01  0.65665501094E-02  0.55446295663E-02  0.14116960031E-01  0.00000000000E+00 0.  1.
     999901    1    3    3    0    0  0.13882766284E-01 -0.52818328408E-01 -0.12859255153E+00  0.89102107232E+00  0.88000000000E+00 0.  1.
        -11    1    4    4    0    0  0.15738877451E-01  0.42594688101E-01  0.87823413547E-01  0.98869777009E-01  0.51100000000E-03 0. -1.
         11    1    4    4    0    0 -0.18422265932E-01  0.36570901970E-02  0.35224508420E-01  0.39922190636E-01  0.51100000000E-03 0.  1.
</event>
<event>
 8    1  0.2837913E+004  0.1043930E+01  0.7957747E-01            NaN
         13   -1    0    0    0    0  0.00000000000E+00  0.00000000000E+00  0.74505805969E-08  0.10566000000E+00  0.10566000000E+00 0.  1.
     999900   -1    0    0    0    0 -0.00000000000E+00 -0.00000000000E+00 -0.74505805969E-08  0.93827000000E+00  0.93827000000E+00 0. -1.
     999902    2    1    2    0    0 -0.10084761250E-01 -0.79491739054E-02 -0.53548766625E-02  0.10300171829E+01  0.10299232159E+01 0.  0.
     999903    2    3    3    0    0 -0.82430691655E-01 -0.74054590310E-01  0.72679511582E-01  0.14114529930E+00  0.48587887777E-01 0.  0.
         14    1    1    2    0    0  0.10084761250E-01  0.79491739054E-02  0.53548766625E-02  0.13912817088E-01  0.00000000000E+00 0. -1.
     999901    1    3    3    0    0  0.72345930405E-01  0.66105416404E-01 -0.78034388244E-01  0.88887188361E+00  0.88000000000E+00 0. -1.
        -11    1    4    4    0    0 -0.59073058612E-01 -0.31694101656E-01  0.20759408875E-01  0.70180884231E-01  0.51100000000E-03 0.  1.
         11    1    4    4    0    0 -0.23357633043E-01 -0.42360488653E-01  0.51920102706E-01  0.70964415071E-01  0.51100000000E-03 0. -1.
</event>
<event>
 8    1  0.2837913E+004  0.1043930E+01  0.7957747E-01            NaN
         13   -1    0    0    0    0  0.00000000000E+00  0.00000000000E+00  0.74505805969E-08  0.10566000000E+00  0.10566000000E+00 0. -1.
     999900   -1    0    0    0    0 -0.00000000000E+00 -0.00000000000E+00 -0.74505805969E-08  0.93827000000E+00  0.93827000000E+00 0.  1.
     999902    2    1    2    0    0  0.22629628634E-02  0.12600597273E-01 -0.66593354078E-02  0.10294993798E+01  0.10293982369E+01 0.  0.
     999903    2    3    3    0    0  0.43922432581E-01 -0.12304095488E+00  0.37728095253E-03  0.13810515941E+00  0.44773162205E-01 0.  0.
         14    1    1    2    0    0 -0.22629628634E-02 -0.12600597273E-01  0.66593354078E-02  0.14430620245E-01  0.00000000000E+00 0.  1.
     999901    1    3    3    0    0 -0.41659469718E-01  0.13564155216E+00 -0.70366163604E-02  0.89139422034E+00  0.88000000000E+00 0. -1.
        -11    1    4    4    0    0  0.37335622124E-02 -0.64652108637E-01 -0.12776690184E-01  0.66010147485E-01  0.51100000000E-03 0. -1.
         11    1    4    4    0    0  0.40188870369E-01 -0.58388846245E-01  0.13153971136E-01  0.72095011929E-01  0.51100000000E-03 0.  1.
</event>
<event>
 8    1  0.2837913E+004  0.1043930E+01  0.7957747E-01            NaN
         13   -1    0    0    0    0  0.00000000000E+00  0.00000000000E+00  0.74505805969E-08  0.10566000000E+00  0.10566000000E+00 0. -1.
     999900   -1    0    0    0    0 -0.00000000000E+00 -0.00000000000E+00 -0.74505805969E-08  0.93827000000E+00  0.93827000000E+00 0.  1.
     999902    2    1    2    0    0  0.96226167309E-02  0.86419033832E-02 -0.88386507358E-02  0.10282647840E+01  0.10281454503E+01 0.  0.
     999903    2    3    3    0    0  0.59664135968E-01  0.11589772975E+00  0.22537370513E-01  0.13978719806E+00  0.45171172108E-01 0.  0.
         14    1    1    2    0    0 -0.96226167309E-02 -0.86419033832E-02  0.88386507358E-02  0.15665216043E-01  0.00000000000E+00 0. -1.
     999901    1    3    3    0    0 -0.50041519237E-01 -0.10725582636E+00 -0.31376021249E-01  0.88847758590E+00  0.88000000000E+00 0.  1.
        -11    1    4    4    0    0  0.14477031152E-01  0.72469523581E-01  0.22006369214E-01  0.77110036222E-01  0.51100000000E-03 0. -1.
         11    1    4    4    0    0  0.45187104815E-01  0.43428206167E-01  0.53100129918E-03  0.62677161836E-01  0.51100000000E-03 0.  1.
</event>
<event>
 8    1  0.2837913E+004  0.1043930E+01  0.7957747E-01            NaN
         13   -1    0    0    0    0  0.00000000000E+00  0.00000000000E+00  0.74505805969E-08  0.10566000000E+00  0.10566000000E+00 0. -1.
     999900   -1    0    0    0    0 -0.00000000000E+00 -0.00000000000E+00 -0.74505805969E-08  0.93827000000E+00  0.93827000000E+00 0. -1.
     999902    2    1    2    0    0 -0.11271558850E-01  0.17442669238E-01 -0.90864920254E-02  0.10212615398E+01  0.10210099283E+01 0.  0.
     999903    2    3    3    0    0 -0.26525258695E-01 -0.99190757049E-01 -0.68892636252E-01  0.13142289919E+00  0.44535238520E-01 0.  0.
         14    1    1    2    0    0  0.11271558850E-01 -0.17442669238E-01  0.90864920254E-02  0.22668460168E-01  0.00000000000E+00 0.  1.
     999901    1    3    3    0    0  0.15253699845E-01  0.11663342629E+00  0.59806144227E-01  0.88983864064E+00  0.88000000000E+00 0.  1.
        -11    1    4    4    0    0 -0.48136438751E-02 -0.78349015915E-01 -0.63224362642E-01  0.10079345522E+00  0.51100000000E-03 0.  1.
         11    1    4    4    0    0 -0.21711614820E-01 -0.20841741133E-01 -0.56682736097E-02  0.30629443976E-01  0.51100000000E-03 0. -1.
</event>
<event>
 8    1  0.2837913E+004  0.1043930E+01  0.7957747E-01            NaN
         13   -1    0    0    0    0  0.00000000000E+00  0.00000000000E+00  0.74505805969E-08  0.10566000000E+00  0.10566000000E+00 0. -1.
     999900   -1    0    0    0    0 -0.00000000000E+00 -0.00000000000E+00 -0.74505805969E-08  0.93827000000E+00  0.93827000000E+00 0. -1.
     999902    2    1    2    0    0  0.21163869336E-02  0.14679938362E-01 -0.32939546308E-03  0.10290946306E+01  0.10289876921E+01 0.  0.
     999903    2    3    3    0    0  0.40402751252E-01 -0.35742851643E-01 -0.11943248034E+00  0.13881723098E+00  0.45783976484E-01 0.  0.
         14    1    1    2    0    0 -0.21163869336E-02 -0.14679938362E-01  0.32939546308E-03  0.14835369403E-01  0.00000000000E+00 0.  1.
     999901    1    3    3    0    0 -0.38286364319E-01  0.50422790004E-01  0.11910308488E+00  0.89027739962E+00  0.88000000000E+00 0.  1.
        -11    1    4    4    0    0  0.50020685954E-01 -0.32917674305E-01 -0.93747811623E-01  0.11124097990E+00  0.51100000000E-03 0. -1.
         11    1    4    4    0    0 -0.96179347014E-02 -0.28251773375E-02 -0.25684668722E-01  0.27576251073E-01  0.51100000000E-03 0.  1.
</event>
<event>
 8    1  0.2837913E+004  0.1043930E+01  0.7957747E-01            NaN
         13   -1    0    0    0    0  0.00000000000E+00  0.00000000000E+00  0.74505805969E-08  0.10566000000E+00  0.10566000000E+00 0. -1.
     999900   -1    0    0    0    0 -0.00000000000E+00 -0.00000000000E+00 -0.74505805969E-08  0.93827000000E+00  0.93827000000E+00 0. -1.
     999902    2    1    2    0    0 -0.17893935817E-02  0.13721914895E-02 -0.13204865563E-01  0.10305339814E+01  0.10304469096E+01 0.  0.
     999903    2    3    3    0    0 -0.52115889128E-01  0.23654878843E-01  0.11789846760E+00  0.13912085708E+00  0.46679171153E-01 0.  0.
         14    1    1    2    0    0  0.17893935817E-02 -0.13721914895E-02  0.13204865563E-01  0.13396018566E-01  0.00000000000E+00 0. -1.
     999901    1    3    3    0    0  0.50326495546E-01 -0.22282687353E-01 -0.13110333316E+00  0.89141312436E+00  0.88000000000E+00 0. -1.
        -11    1    4    4    0    0 -0.22969968444E-01 -0.70257261883E-03  0.87497406349E-01  0.90466404247E-01  0.51100000000E-03 0. -1.
         11    1    4    4    0    0 -0.29145920683E-01  0.24357451461E-01  0.30401061248E-01  0.48654452830E-01  0.51100000000E-03 0.  1.
</event>
<event>
 8    1  0.2837913E+004  0.1043930E+01  0.7957747E-01            NaN
         13   -1    0    0    0    0  0.00000000000E+00  0.00000000000E+00  0.74505805969E-08  0.10566000000E+00  0.10566000000E+00 0. -1.
     999900   -1    0    0    0    0 -0.00000000000E+00 -0.00000000000E+00 -0.74505805969E-08  0.93827000000E+00  0.93827000000E+00 0.  1.
     999902    2    1    2    0    0 -0.34417417151E-02  0.26024843050E-01 -0.64194600382E-02  0.10169050577E+01  0.10165458911E+01 0.  0.
     999903    2    3    3    0    0 -0.64324239493E-01  0.10839321175E-01 -0.10248707706E+00  0.12945575451E+00  0.44722396422E-01 0.  0.
         14    1    1    2    0    0  0.34417417151E-02 -0.26024843050E-01  0.64194600382E-02  0.27024942349E-01  0.00000000000E+00 0.  1.
     999901    1    3    3    0    0  0.60882497778E-01  0.15185521875E-01  0.96067617018E-01  0.88744930314E+00  0.88000000000E+00 0. -1.
        -11    1    4    4    0    0 -0.60364619456E-02 -0.13904742117E-01 -0.13974843049E-01  0.20623726274E-01  0.51100000000E-03 0.  1.
         11    1    4    4    0    0 -0.58287777548E-01  0.24744063292E-01 -0.88512234006E-01  0.10883202823E+00  0.51100000000E-03 0. -1.
</event>
<event>
 8    1  0.2837913E+004  0.1043930E+01  0.7957747E-01            NaN
         13   -1    0    0    0    0  0.00000000000E+00  0.00000000000E+00  0.74505805969E-08  0.10566000000E+00  0.10566000000E+00 0.  1.
     999900   -1    0    0    0    0 -0.00000000000E+00 -0.00000000000E+00 -0.74505805969E-08  0.93827000000E+00  0.93827000000E+00 0. -1.
     999902    2    1    2    0    0 -0.31487669978E-02  0.11125138977E-01  0.35998272973E-02  0.10318204085E+01  0.10317493461E+01 0.  0.
     999903    2    3    3    0    0 -0.11715621804E-01  0.73069393259E-01  0.11346582255E+00  0.14278665288E+00  0.45134724194E-01 0.  0.
         14    1    1    2    0    0  0.31487669978E-02 -0.11125138977E-01 -0.35998272973E-02  0.12109591547E-01  0.00000000000E+00 0. -1.
     999901    1    3    3    0    0  0.85668548067E-02 -0.61944254282E-01 -0.10986599525E+00  0.88903375558E+00  0.88000000000E+00 0. -1.
        -11    1    4    4    0    0 -0.13419754526E-01  0.77052818670E-01  0.91416461870E-01  0.12030983874E+00  0.51100000000E-03 0. -1.
         11    1    4    4    0    0  0.17041327211E-02 -0.39834254116E-02  0.22049360677E-01  0.22476814134E-01  0.51100000000E-03 0.  1.
</event>
<event>
 8    1  0.2837913E+004  0.1043930E+01  0.7957747E-01            NaN
         13   -1    0    0    0    0  0.00000000000E+00  0.00000000000E+00  0.74505805969E-08  0.10566000000E+00  0.10566000000E+00 0.  1.
     999900   -1    0    0    0    0 -0.00000000000E+00 -0.00000000000E+00 -0.74505805969E-08  0.93827000000E+00  0.93827000000E+00 0. -1.
     999902    2    1    2    0    0 -0.98675135094E-02 -0.10166503150E-02 -0.96784033550E-02  0.10300709635E+01  0.10299777265E+01 0.  0.
     999903    2    3    3    0    0  0.22440896358E-01 -0.12787950021E+00  0.26560660964E-01  0.13964899287E+00  0.44041027412E-01 0.  0.
         14    1    1    2    0    0  0.98675135094E-02  0.10166503150E-02  0.96784033550E-02  0.13859036483E-01  0.00000000000E+00 0.  1.
     999901    1    3    3    0    0 -0.32308409867E-01  0.12686284989E+00 -0.36239064319E-01  0.89042197065E+00  0.88000000000E+00 0. -1.
        -11    1    4    4    0    0  0.83216508603E-02 -0.69149135346E-01 -0.79134425054E-02  0.70098049084E-01  0.51100000000E-03 0. -1.
         11    1    4    4    0    0  0.14119245498E-01 -0.58730364863E-01  0.34474103469E-01  0.69550943785E-01  0.51100000000E-03 0.  1.
</event>
<event>
 8    1  0.2837913E+004  0.1043930E+01  0.7957747E-01            NaN
         13   -1    0    0    0    0  0.00000000000E+00  0.00000000000E+00  0.74505805969E-08  0.10566000000E+00  0.10566000000E+00 0.  1.
     999900   -1    0    0    0    0 -0.00000000000E+00 -0.00000000000E+00 -0.74505805969E-08  0.93827000000E+00  0.93827000000E+00 0.  1.
     999902    2    1    2    0    0  0.12102596016E-01 -0.83883905089E-02 -0.12149603574E-02  0.10291545455E+01  0.10290484753E+01 0.  0.
     999903    2    3    3    0    0 -0.12298291221E+00 -0.51370950822E-03  0.43819277615E-01  0.13767364966E+00  0.43690320750E-01 0.  0.
         14    1    1    2    0    0 -0.12102596016E-01  0.83883905089E-02  0.12149603574E-02  0.14775454454E-01  0.00000000000E+00 0. -1.
     999901    1    3    3    0    0  0.13508550823E+00 -0.78746810007E-02 -0.45034237972E-01  0.89148089588E+00  0.88000000000E+00 0.  1.
        -11    1    4    4    0    0 -0.28692316806E-01  0.62982975877E-03  0.31429457521E-01  0.42564276691E-01  0.51100000000E-03 0. -1.
         11    1    4    4    0    0 -0.94290595407E-01 -0.11435392670E-02  0.12389820094E-01  0.95109372972E-01  0.51100000000E-03 0.  1.
</event>
<event>
 8    1  0.2837913E+004  0.1043930E+01  0.7957747E-01            NaN
         13   -1    0    0    0    0  0.00000000000E+00  0.00000000000E+00  0.74505805969E-08  0.10566000000E+00  0.10566000000E+00 0. -1.
     999900   -1    0    0    0    0 -0.00000000000E+00 -0.00000000000E+00 -0.74505805969E-08  0.93827000000E+00  0.93827000000E+00 0.  1.
     999902    2    1    2    0    0  0.49182753247E-02 -0.68582140420E-04 -0.13455609213E-01  0.10296035366E+01  0.10295038586E+01 0.  0.
     999903    2    3    3    0    0 -0.60348612830E-01  0.57689429051E-01 -0.10370448646E+00  0.14070499656E+00  0.45532957854E-01 0.  0.
         14    1    1    2    0    0 -0.49182753247E-02  0.68582140420E-04  0.13455609213E-01  0.14326463449E-01  0.00000000000E+00 0. -1.
     999901    1    3    3    0    0  0.65266888155E-01 -0.57758011192E-01  0.90248877249E-01  0.88889853999E+00  0.88000000000E+00 0. -1.
        -11    1    4    4    0    0 -0.28615570126E-01  0.55106506866E-01 -0.57767369932E-01  0.84811014040E-01  0.51100000000E-03 0.  1.
         11    1    4    4    0    0 -0.31733042705E-01  0.25829221850E-02 -0.45937116530E-01  0.55893982524E-01  0.51100000000E-03 0. -1.
</event>
<event>
 8    1  0.2837913E+004  0.1043930E+01  0.7957747E-01            NaN
         13   -1    0    0    0    0  0.00000000000E+00  0.00000000000E+00  0.74505805969E-08  0.10566000000E+00  0.10566000000E+00 0.  1.
     999900   -1    0    0    0    0 -0.00000000000E+00 -0.00000000000E+00 -0.74505805969E-08  0.93827000000E+00  0.93827000000E+00 0.  1.
     999902    2    1    2    0    0  0.71573577193E-02 -0.90019203355E-02 -0.84085281386E-02  0.10296833974E+01  0.10295848354E+01 0.  0.
     999903    2    3    3    0    0 -0.10528846359E+00 -0.47881969430E-01  0.62210628462E-01  0.13887321214E+00  0.45136052034E-01 0.  0.
         14    1    1    2    0    0 -0.71573577193E-02  0.90019203355E-02  0.84085281386E-02  0.14246602567E-01  0.00000000000E+00 0. -1.
     999901    1    3    3    0    0  0.11244582131E+00  0.38880049094E-01 -0.70619156601E-01  0.89081018530E+00  0.88000000000E+00 0.  1.
        -11    1    4    4    0    0 -0.57700757310E-01 -0.46887058698E-01  0.50418408129E-01  0.89833460730E-01  0.51100000000E-03 0. -1.
         11    1    4    4    0    0 -0.47587706283E-01 -0.99491073190E-03  0.11792220333E-01  0.49039751406E-01  0.51100000000E-03 0.  1.
</event>
<event>
 8    1  0.2837913E+004  0.1043930E+01  0.7957747E-01            NaN
         13   -1    0    0    0    0  0.00000000000E+00  0.00000000000E+00  0.74505805969E-08  0.10566000000E+00  0.10566000000E+00 0.  1.
     999900   -1    0    0    0    0 -0.00000000000E+00 -0.00000000000E+00 -0.74505805969E-08  0.93827000000E+00  0.93827000000E+00 0. -1.
     999902    2    1    2    0    0 -0.25125573083E-02  0.10803130448E-02  0.14791776360E-01  0.10288875046E+01  0.10287775369E+01 0.  0.
     999903    2    3    3    0    0  0.55661500251E-01  0.28307925044E-01 -0.11355236261E+00  0.13726102346E+00  0.45242770423E-01 0.  0.
         14    1    1    2    0    0  0.25125573083E-02 -0.10803130448E-02 -0.14791776360E-01  0.15042495418E-01  0.00000000000E+00 0. -1.
     999901    1    3    3    0    0 -0.58174057560E-01 -0.27227612000E-01  0.12834413897E+00  0.89162648112E+00  0.88000000000E+00 0.  1.
        -11    1    4    4    0    0  0.14472112801E-01  0.14510593634E-02 -0.11813900995E-02  0.14601521351E-01  0.51100000000E-03 0.  1.
         11    1    4    4    0    0  0.41189387450E-01  0.26856865681E-01 -0.11237097252E+00  0.12265950211E+00  0.51100000000E-03 0. -1.
</event>
<event>
 8    1  0.2837913E+004  0.1043930E+01  0.7957747E-01            NaN
         13   -1    0    0    0    0  0.00000000000E+00  0.00000000000E+00  0.74505805969E-08  0.10566000000E+00  0.10566000000E+00 0. -1.
     999900   -1    0    0    0    0 -0.00000000000E+00 -0.00000000000E+00 -0.74505805969E-08  0.93827000000E+00  0.93827000000E+00 0.  1.
     999902    2    1    2    0    0 -0.44528832516E-02  0.11633545306E-01  0.15859590787E-03  0.10314723639E+01  0.10313971324E+01 0.  0.
     999903    2    3    3    0    0 -0.10371386607E+00  0.79541867740E-01 -0.35370923442E-01  0.14258169020E+00  0.44664990938E-01 0.  0.
         14    1    1    2    0    0  0.44528832516E-02 -0.11633545306E-01 -0.15859590787E-03  0.12457636145E-01  0.00000000000E+00 0.  1.
     999901    1    3    3    0    0  0.99260982822E-01 -0.67908322433E-01  0.35529519350E-01  0.88889067366E+00  0.88000000000E+00 0. -1.
        -11    1    4    4    0    0 -0.33339815384E-01  0.36842034871E-02 -0.10503483805E-02  0.33563089815E-01  0.51100000000E-03 0.  1.
         11    1    4    4    0    0 -0.70374050690E-01  0.75857664253E-01 -0.34320575062E-01  0.10901860039E+00  0.51100000000E-03 0. -1.
</event>
<event>
 8    1  0.2837913E+004  0.1043930E+01  0.7957747E-01            NaN
         13   -1    0    0    0    0  0.00000000000E+00  0.00000000000E+00  0.74505805969E-08  0.10566000000E+00  0.10566000000E+00 0.  1.
     999900   -1    0    0    0    0 -0.00000000000E+00 -0.00000000000E+00 -0.74505805969E-08  0.93827000000E+00  0.93827000000E+00 0.  1.
     999902    2    1    2    0    0 -0.12427643413E-01 -0.39874373308E-02 -0.28145319345E-02  0.10305783122E+01  0.10304918195E+01 0.  0.
     999903    2    3    3    0    0  0.88362333516E-01  0.28928073303E-01 -0.94030870554E-01  0.13953259467E+00  0.44528698029E-01 0.  0.
         14    1    1    2    0    0  0.12427643413E-01  0.39874373308E-02  0.28145319345E-02  0.13351687806E-01  0.00000000000E+00 0.  1.
     999901    1    3    3    0    0 -0.10078997693E+00 -0.32915510634E-01  0.91216338620E-01  0.89104571753E+00  0.88000000000E+00 0. -1.
        -11    1    4    4    0    0  0.45881209979E-01  0.27974052743E-01 -0.26934323617E-01  0.60111163403E-01  0.51100000000E-03 0.  1.
         11    1    4    4    0    0  0.42481123537E-01  0.95402055953E-03 -0.67096546938E-01  0.79421431265E-01  0.51100000000E-03 0. -1.
</event>
<event>
 8    1  0.2837913E+004  0.1043930E+01  0.7957747E-01            NaN
         13   -1    0    0    0    0  0.00000000000E+00  0.00000000000E+00  0.74505805969E-08  0.10566000000E+00  0.10566000000E+00 0.  1.
     999900   -1    0    0    0    0 -0.00000000000E+00 -0.00000000000E+00 -0.74505805969E-08  0.93827000000E+00  0.93827000000E+00 0.  1.
     999902    2    1    2    0    0  0.72173368113E-02  0.14313992473E-02  0.12370159373E-01  0.10295369566E+01  0.10294363435E+01 0.  0.
     999903    2    3    3    0    0  0.92584649458E-01 -0.75052569241E-01 -0.56182951361E-01  0.13946004732E+00  0.45692179957E-01 0.  0.
         14    1    1    2    0    0 -0.72173368113E-02 -0.14313992473E-02 -0.12370159373E-01  0.14393043367E-01  0.00000000000E+00 0. -1.
     999901    1    3    3    0    0 -0.85367312647E-01  0.76483968489E-01  0.68553110734E-01  0.89007690931E+00  0.88000000000E+00 0. -1.
        -11    1    4    4    0    0  0.56948910468E-01 -0.31757957331E-01 -0.51678803009E-01  0.83202800787E-01  0.51100000000E-03 0.  1.
         11    1    4    4    0    0  0.35635738991E-01 -0.43294611910E-01 -0.45041483517E-02  0.56257246531E-01  0.51100000000E-03 0. -1.
</event>
<event>
 8    1  0.2837913E+004  0.1043930E+01  0.7957747E-01            NaN
         13   -1    0    0    0    0  0.00000000000E+00  0.00000000000E+00  0.74505805969E-08  0.10566000000E+00  0.10566000000E+00 0. -1.
     999900   -1    0    0    0    0 -0.00000000000E+00 -0.00000000000E+00 -0.74505805969E-08  0.93827000000E+00  0.93827000000E+00 0. -1.
     999902    2    1    2    0    0 -0.32700258028E-02 -0.99266380256E-02 -0.10896387249E-01  0.10288315740E+01  0.10287207810E+01 0.  0.
     999903    2    3    3    0    0  0.15363744527E-01  0.87184705782E-01 -0.96720141575E-01  0.13914424284E+00  0.46573779771E-01 0.  0.
         14    1    1    2    0    0  0.32700258028E-02  0.99266380256E-02  0.10896387249E-01  0.15098425955E-01  0.00000000000E+00 0. -1.
     999901    1    3    3    0    0 -0.18633770329E-01 -0.97111343808E-01  0.85823754325E-01  0.88968733120E+00  0.88000000000E+00 0.  1.
        -11    1    4    4    0    0  0.11388787356E-01  0.75587079223E-01 -0.10053357620E+00  0.12629478251E+00  0.51100000000E-03 0.  1.
         11    1    4    4    0    0  0.39749571705E-02  0.11597626559E-01  0.38134346289E-02  0.12849460338E-01  0.51100000000E-03 0. -1.
</event>
<event>
 8    1  0.2837913E+004  0.1043930E+01  0.7957747E-01            NaN
         13   -1    0    0    0    0  0.00000000000E+00  0.00000000000E+00  0.74505805969E-08  0.10566000000E+00  0.10566000000E+00 0.  1.
     999900   -1    0    0    0    0 -0.00000000000E+00 -0.00000000000E+00 -0.74505805969E-08  0.93827000000E+00  0.93827000000E+00 0. -1.
     999902    2    1    2    0    0 -0.11932326893E-01  0.42513429558E-02 -0.10089529719E-01  0.10277357741E+01  0.10276081785E+01 0.  0.
     999903    2    3    3    0    0  0.89297043512E-01 -0.14823894249E-01 -0.94779864152E-01  0.13768875128E+00  0.42204973175E-01 0.  0.
         14    1    1    2    0    0  0.11932326893E-01 -0.42513429558E-02  0.10089529719E-01  0.16194225884E-01  0.00000000000E+00 0.  1.
     999901    1    3    3    0    0 -0.10122937040E+00  0.19075237205E-01  0.84690334433E-01  0.89004702283E+00  0.88000000000E+00 0.  1.
        -11    1    4    4    0    0  0.40953282643E-01  0.73512957503E-02 -0.20656314966E-01  0.46455972462E-01  0.51100000000E-03 0. -1.
         11    1    4    4    0    0  0.48343760868E-01 -0.22175189999E-01 -0.74123549187E-01  0.91232778821E-01  0.51100000000E-03 0.  1.
</event>
<event>
 8    1  0.2837913E+004  0.1043930E+01  0.7957747E-01            NaN
         13   -1    0    0    0    0  0.00000000000E+00  0.00000000000E+00  0.74505805969E-08  0.10566000000E+00  0.10566000000E+00 0. -1.
     999900   -1    0    0    0    0 -0.00000000000E+00 -0.00000000000E+00 -0.74505805969E-08  0.93827000000E+00  0.93827000000E+00 0. -1.
     999902    2    1    2    0    0  0.12971329391E-01 -0.71341868745E-02  0.17867571920E-02  0.10290187791E+01  0.10289107362E+01 0.  0.
     999903    2    3    3    0    0 -0.97238817895E-01 -0.49753282949E-01 -0.73158689785E-01  0.13796351482E+00  0.41844481845E-01 0.  0.
         14    1    1    2    0    0 -0.12971329391E-01  0.71341868745E-02 -0.17867571920E-02  0.14911220936E-01  0.00000000000E+00 0.  1.
     999901    1    3    3    0    0  0.11021014729E+00  0.42619096074E-01  0.74945446977E-01  0.89105526424E+00  0.88000000000E+00 0.  1.
        -11    1    4    4    0    0 -0.61717138547E-02 -0.14753295652E-01  0.29638879129E-04  0.16000368245E-01  0.51100000000E-03 0.  1.
         11    1    4    4    0    0 -0.91067104040E-01 -0.34999987296E-01 -0.73188328664E-01  0.12196314658E+00  0.51100000000E-03 0. -1.
</event>
<event>
 8    1  0.2837913E+004  0.1043930E+01  0.7957747E-01            NaN
         13   -1    0    0    0    0  0.00000000000E+00  0.00000000000E+00  0.74505805969E-08  0.10566000000E+00  0.10566000000E+00 0.  1.
     999900   -1    0    0    0    0 -0.00000000000E+00 -0.00000000000E+00 -0.74505805969E-08  0.93827000000E+00  0.93827000000E+00 0. -1.
     999902    2    1    2    0    0 -0.11492534801E-03 -0.78847635968E-02  0.11558949715E-01  0.10299374297E+01  0.10298423749E+01 0.  0.
     999903    2    3    3    0    0  0.72510067111E-01  0.10962222367E+00 -0.75361103558E-02  0.13895656409E+00  0.44467875918E-01 0.  0.
         14    1    1    2    0    0  0.11492534801E-03  0.78847635968E-02 -0.11558949715E-01  0.13992570290E-01  0.00000000000E+00 0. -1.
     999901    1    3    3    0    0 -0.72624992459E-01 -0.11750698727E+00  0.19095060071E-01  0.89098086562E+00  0.88000000000E+00 0. -1.
        -11    1    4    4    0    0  0.71135664658E-01  0.72977093134E-01 -0.85262158354E-02  0.10226874589E+00  0.51100000000E-03 0.  1.
         11    1    4    4    0    0  0.13744024531E-02  0.36645130537E-01  0.99010547961E-03  0.36687818197E-01  0.51100000000E-03 0. -1.
</event>
<event>
 8    1  0.2837913E+004  0.1043930E+01  0.7957747E-01            NaN
         13   -1    0    0    0    0  0.00000000000E+00  0.00000000000E+00  0.74505805969E-08  0.10566000000E+00  0.10566000000E+00 0.  1.
     999900   -1    0    0    0    0 -0.00000000000E+00 -0.00000000000E+00 -0.74505805969E-08  0.93827000000E+00  0.93827000000E+00 0. -1.
     999902    2    1    2    0    0  0.11198059954E-01  0.85438871573E-02 -0.13377768579E-03  0.10298441045E+01  0.10297477687E+01 0.  0.
     999903    2    3    3    0    0 -0.83252996792E-02 -0.12972320065E+00 -0.17886449269E-01  0.13865719570E+00  0.44815995470E-01 0.  0.
         14    1    1    2    0    0 -0.11198059954E-01 -0.85438871573E-02  0.13377768579E-03  0.14085895462E-01  0.00000000000E+00 0.  1.
     999901    1    3    3    0    0  0.19523359634E-01  0.13826708780E+00  0.17752671584E-01  0.89118690884E+00  0.88000000000E+00 0.  1.
        -11    1    4    4    0    0  0.42797204333E-02 -0.68131172856E-01  0.11548282526E-01  0.69237249166E-01  0.51100000000E-03 0.  1.
         11    1    4    4    0    0 -0.12605020112E-01 -0.61592027791E-01 -0.29434731795E-01  0.69419946531E-01  0.51100000000E-03 0. -1.
</event>
<event>
 8    1  0.2837913E+004  0.1043930E+01  0.7957747E-01            NaN
         13   -1    0    0    0    0  0.00000000000E+00  0.00000000000E+00  0.74505805969E-08  0.10566000000E+00  0.10566000000E+00 0.  1.
     999900   -1    0    0    0    0 -0.00000000000E+00 -0.00000000000E+00 -0.74505805969E-08  0.93827000000E+00  0.93827000000E+00 0. -1.
     999902    2    1    2    0    0  0.95771397364E-02 -0.63295747659E-02  0.83947731571E-02  0.10297082793E+01  0.10296100637E+01 0.  0.
     999903    2    3    3    0    0 -0.61591856437E-01  0.44933847145E-01 -0.10653306127E+00  0.13791156956E+00  0.43101049608E-01 0.  0.
         14    1    1    2    0    0 -0.95771397364E-02  0.63295747659E-02 -0.83947731571E-02  0.14221720663E-01  0.00000000000E+00 0. -1.
     999901    1    3    3    0    0  0.71168996173E-01 -0.51263421911E-01  0.11492783442E+00  0.89179670978E+00  0.88000000000E+00 0.  1.
        -11    1    4    4    0    0 -0.29081911158E-02 -0.80105587910E-02 -0.10779672927E-01  0.13750967134E-01  0.51100000000E-03 0. -1.
         11    1    4    4    0    0 -0.58683665321E-01  0.52944405936E-01 -0.95753388340E-01  0.12416060243E+00  0.51100000000E-03 0.  1.
</event>
<event>
 8    1  0.2837913E+004  0.1043930E+01  0.7957747E-01            NaN
         13   -1    0    0    0    0  0.00000000000E+00  0.00000000000E+00  0.74505805969E-08  0.10566000000E+00  0.10566000000E+00 0.  1.
     999900   -1    0    0    0    0 -0.00000000000E+00 -0.00000000000E+00 -0.74505805969E-08  0.93827000000E+00  0.93827000000E+00 0.  1.
     999902    2    1    2    0    0 -0.93011369205E-02  0.30586895569E-02 -0.98081564664E-02  0.10300711883E+01  0.10299779542E+01 0.  0.
     999903    2    3    3    0    0  0.44882226087E-02  0.56280611651E-02  0.13108592647E+00  0.13875312453E+00  0.44912027736E-01 0.  0.
         14    1    1    2    0    0  0.93011369205E-02 -0.30586895569E-02  0.98081564664E-02  0.13858811749E-01  0.00000000000E+00 0.  1.
     999901    1    3    3    0    0 -0.13789359529E-01 -0.25693716082E-02 -0.14089408293E+00  0.89131806372E+00  0.88000000000E+00 0.  1.
        -11    1    4    4    0    0  0.23144323097E-01  0.11566575162E-01  0.76717543436E-01  0.80964732720E-01  0.51100000000E-03 0. -1.
         11    1    4    4    0    0 -0.18656100488E-01 -0.59385139965E-02  0.54368383030E-01  0.57788391812E-01  0.51100000000E-03 0.  1.
</event>
<event>
 8    1  0.2837913E+004  0.1043930E+01  0.7957747E-01            NaN
         13   -1    0    0    0    0  0.00000000000E+00  0.00000000000E+00  0.74505805969E-08  0.10566000000E+00  0.10566000000E+00 0.  1.
     999900   -1    0    0    0    0 -0.00000000000E+00 -0.00000000000E+00 -0.74505805969E-08  0.93827000000E+00  0.93827000000E+00 0.  1.
     999902    2    1    2    0    0  0.13820827095E-01 -0.20818817673E-02  0.16139133104E-02  0.10298603799E+01  0.10297642681E+01 0.  0.
     999903    2    3    3    0    0  0.18297613014E-01  0.13109773124E+00  0.19250686032E-02  0.13982838737E+00  0.45020598011E-01 0.  0.
         14    1    1    2    0    0 -0.13820827095E-01  0.20818817673E-02 -0.16139133104E-02  0.14069620090E-01  0.00000000000E+00 0. -1.
     999901    1    3    3    0    0 -0.44767859182E-02 -0.13317961301E+00 -0.31115529281E-03  0.89003199254E+00  0.88000000000E+00 0. -1.
        -11    1    4    4    0    0  0.32894531055E-01  0.95697814917E-01 -0.28645230266E-02  0.10123531284E+00  0.51100000000E-03 0. -1.
         11    1    4    4    0    0 -0.14596918041E-01  0.35399916327E-01  0.47895916298E-02  0.38593074524E-01  0.51100000000E-03 0.  1.
</event>
<event>
 8    1  0.2837913E+004  0.1043930E+01  0.7957747E-01            NaN
         13   -1    0    0    0    0  0.00000000000E+00  0.00000000000E+00  0.74505805969E-08  0.10566000000E+00  0.10566000000E+00 0.  1.
     999900   -1    0    0    0    0 -0.00000000000E+00 -0.00000000000E+00 -0.74505805969E-08  0.93827000000E+00  0.93827000000E+00 0.  1.
     999902    2    1    2    0    0  0.24365249740E-02 -0.88301318473E-02 -0.12311587440E-01  0.10285845424E+01  0.10284700666E+01 0.  0.
     999903    2    3    3    0    0 -0.12196463538E+00 -0.48357007603E-01  0.25825316907E-02  0.13883184793E+00  0.45319312241E-01 0.  0.
         14    1    1    2    0    0 -0.24365249740E-02  0.88301318473E-02  0.12311587440E-01  0.15345457559E-01  0.00000000000E+00 0.  1.
     999901    1    3    3    0    0  0.12440116035E+00  0.39526875756E-01 -0.14894119131E-01  0.88975269451E+00  0.88000000000E+00 0.  1.
        -11    1    4    4    0    0 -0.80165288705E-01 -0.25861492942E-01 -0.19520539850E-01  0.86467351801E-01  0.51100000000E-03 0.  1.
         11    1    4    4    0    0 -0.41799346675E-01 -0.22495514662E-01  0.22103071541E-01  0.52364496130E-01  0.51100000000E-03 0. -1.
</event>
<event>
 8    1  0.2837913E+004  0.1043930E+01  0.7957747E-01            NaN
         13   -1    0    0    0    0  0.00000000000E+00  0.00000000000E+00  0.74505805969E-08  0.10566000000E+00  0.10566000000E+00 0. -1.
     999900   -1    0    0    0    0 -0.00000000000E+00 -0.00000000000E+00 -0.74505805969E-08  0.93827000000E+00  0.93827000000E+00 0.  1.
     999902    2    1    2    0    0  0.22979764332E-03 -0.10746761422E-01 -0.91433156445E-02  0.10298180934E+01  0.10297213990E+01 0.  0.
     999903    2    3    3    0    0  0.11588850086E+00 -0.49922999906E-01  0.41828413127E-01  0.13992493661E+00  0.43668308781E-01 0.  0.
         14    1    1    2    0    0 -0.22979764332E-03  0.10746761422E-01  0.91433156445E-02  0.14111906639E-01  0.00000000000E+00 0. -1.
     999901    1    3    3    0    0 -0.11565870321E+00  0.39176238483E-01 -0.50971728771E-01  0.88989315675E+00  0.88000000000E+00 0.  1.
        -11    1    4    4    0    0  0.79391298169E-01 -0.13871990253E-01  0.36073067229E-01  0.88300269756E-01  0.51100000000E-03 0. -1.
         11    1    4    4    0    0  0.36497202686E-01 -0.36051009653E-01  0.57553458975E-02  0.51624666859E-01  0.51100000000E-03 0.  1.
</event>
<event>
 8    1  0.2837913E+004  0.1043930E+01  0.7957747E-01            NaN
         13   -1    0    0    0    0  0.00000000000E+00  0.00000000000E+00  0.74505805969E-08  0.10566000000E+00  0.10566000000E+00 0. -1.
     999900   -1    0    0    0    0 -0.00000000000E+00 -0.00000000000E+00 -0.74505805969E-08  0.93827000000E+00  0.93827000000E+00 0.  1.
     999902    2    1    2    0    0 -0.70490554944E-02 -0.88648678436E-02 -0.14448867019E-01  0.10255712194E+01  0.10254068857E+01 0.  0.
     999903    2    3    3    0    0 -0.50208662610E-01 -0.30163706466E-01 -0.11709370308E+00  0.13829879534E+00  0.44551795722E-01 0.  0.
         14    1    1    2    0    0  0.70490554944E-02  0.88648678436E-02  0.14448867019E-01  0.18358780553E-01  0.00000000000E+00 0. -1.
     999901    1    3    3    0    0  0.43159607116E-01  0.21298838622E-01  0.10264483606E+00  0.88727242411E+00  0.88000000000E+00 0. -1.
        -11    1    4    4    0    0 -0.11067868538E-01 -0.18948801840E-01 -0.80880960171E-01  0.83806596664E-01  0.51100000000E-03 0. -1.
         11    1    4    4    0    0 -0.39140794072E-01 -0.11214904626E-01 -0.36212742910E-01  0.54492198675E-01  0.51100000000E-03 0.  1.
</event>
<event>
 8    1  0.2837913E+004  0.1043930E+01  0.7957747E-01            NaN
         13   -1    0    0    0    0  0.00000000000E+00  0.00000000000E+00  0.74505805969E-08  0.10566000000E+00  0.10566000000E+00 0. -1.
     999900   -1    0    0    0    0 -0.00000000000E+00 -0.00000000000E+00 -0.74505805969E-08  0.93827000000E+00  0.93827000000E+00 0. -1.
     999902    2    1    2    0    0  0.54640859996E-02  0.12944322391E-01  0.16422647622E-03  0.10298787122E+01  0.10297828524E+01 0.  0.
     999903    2    3    3    0    0  0.75879866737E-01 -0.98729645605E-01 -0.41865808042E-01  0.13903866984E+00  0.45537992165E-01 0.  0.
         14    1    1    2    0    0 -0.54640859996E-02 -0.12944322391E-01 -0.16422647622E-03  0.14051287781E-01  0.00000000000E+00 0.  1.
     999901    1    3    3    0    0 -0.70415780737E-01  0.11167396800E+00  0.42030034519E-01  0.89084004238E+00  0.88000000000E+00 0.  1.
        -11    1    4    4    0    0  0.14239158021E-01 -0.17665703060E-01 -0.28336313587E-01  0.36304799606E-01  0.51100000000E-03 0.  1.
         11    1    4    4    0    0  0.61640708716E-01 -0.81063942545E-01 -0.13529494456E-01  0.10273387023E+00  0.51100000000E-03 0. -1.
</event>
<event>
 8    1  0.2837913E+004  0.1043930E+01  0.7957747E-01            NaN
         13   -1    0    0    0    0  0.00000000000E+00  0.00000000000E+00  0.74505805969E-08  0.10566000000E+00  0.10566000000E+00 0.  1.
     999900   -1    0    0    0    0 -0.00000000000E+00 -0.00000000000E+00 -0.74505805969E-08  0.93827000000E+00  0.93827000000E+00 0. -1.
     999902    2    1    2    0    0  0.13672712357E-01  0.57865632235E-02 -0.16599179070E-02  0.10289906993E+01  0.10288822462E+01 0.  0.
     999903    2    3    3    0    0  0.52842540924E-01 -0.95947463958E-01 -0.73495482707E-01  0.13935906987E+00  0.44956806005E-01 0.  0.
         14    1    1    2    0    0 -0.13672712357E-01 -0.57865632235E-02  0.16599179070E-02  0.14939300673E-01  0.00000000000E+00 0. -1.
     999901    1    3    3    0    0 -0.39169828567E-01  0.10173402718E+00  0.71835564800E-01  0.88963162945E+00  0.88000000000E+00 0.  1.
        -11    1    4    4    0    0  0.43307744690E-01 -0.86902009742E-01 -0.43085973625E-01  0.10622703183E+00  0.51100000000E-03 0. -1.
         11    1    4    4    0    0  0.95347962344E-02 -0.90454542153E-02 -0.30409509082E-01  0.33132038042E-01  0.51100000000E-03 0.  1.
</event>
<event>
 8    1  0.2837913E+004  0.1043930E+01  0.7957747E-01            NaN
         13   -1    0    0    0    0  0.00000000000E+00  0.00000000000E+00  0.74505805969E-08  0.10566000000E+00  0.10566000000E+00 0. -1.
     999900   -1    0    0    0    0 -0.00000000000E+00 -0.00000000000E+00 -0.74505805969E-08  0.93827000000E+00  0.93827000000E+00 0. -1.
     999902    2    1    2    0    0 -0.80899396283E-02  0.68528011951E-02 -0.12793003439E-01  0.10273146774E+01  0.10271803043E+01 0.  0.
     999903    2    3    3    0    0  0.88344800100E-01 -0.58174642307E-01 -0.78363147355E-01  0.13724295491E+00  0.38804034553E-01 0.  0.
         14    1    1    2    0    0  0.80899396283E-02 -0.68528011951E-02  0.12793003439E-01  0.16615322579E-01  0.00000000000E+00 0. -1.
     999901    1    3    3    0    0 -0.96434739729E-01  0.65027443502E-01  0.65570143915E-01  0.89007172251E+00  0.88000000000E+00 0. -1.
        -11    1    4    4    0    0  0.71803187433E-03 -0.13564553561E-01 -0.47060257312E-02  0.14384730872E-01  0.51100000000E-03 0. -1.
         11    1    4    4    0    0  0.87626768226E-01 -0.44610088746E-01 -0.73657121624E-01  0.12285822404E+00  0.51100000000E-03 0.  1.
</event>
<event>
 8    1  0.2837913E+004  0.1043930E+01  0.7957747E-01            NaN
         13   -1    0    0    0    0  0.00000000000E+00  0.00000000000E+00  0.74505805969E-08  0.10566000000E+00  0.10566000000E+00 0.  1.
     999900   -1    0    0    0    0 -0.00000000000E+00 -0.00000000000E+00 -0.74505805969E-08  0.93827000000E+00  0.93827000000E+00 0. -1.
     999902    2    1    2    0    0  0.55422989323E-02 -0.74473720070E-02 -0.10000743551E-01  0.10302846602E+01  0.10301942951E+01 0.  0.
     999903    2    3    3    0    0  0.77330072050E-01  0.25614999097E-01  0.10347788536E+00  0.13948501718E+00  0.45960080900E-01 0.  0.
         14    1    1    2    0    0 -0.55422989323E-02  0.74473720070E-02  0.10000743551E-01  0.13645339821E-01  0.00000000000E+00 0. -1.
     999901    1    3    3    0    0 -0.71787773118E-01 -0.33062371104E-01 -0.11347862891E+00  0.89079964300E+00  0.88000000000E+00 0. -1.
        -11    1    4    4    0    0  0.59782216096E-01  0.34509872461E-02  0.90149714511E-01  0.10822686737E+00  0.51100000000E-03 0. -1.
         11    1    4    4    0    0  0.17547855955E-01  0.22164011851E-01  0.13328170849E-01  0.31258149803E-01  0.51100000000E-03 0.  1.
</event>
<event>
 8    1  0.2837913E+004  0.1043930E+01  0.7957747E-01            NaN
         13   -1    0    0    0    0  0.00000000000E+00  0.00000000000E+00  0.74505805969E-08  0.10566000000E+00  0.10566000000E+00 0. -1.
     999900   -1    0    0    0    0 -0.00000000000E+00 -0.00000000000E+00 -0.74505805969E-08  0.93827000000E+00  0.93827000000E+00 0.  1.
     999902    2    1    2    0    0 -0.88854358004E-02 -0.67591138761E-02  0.83475856713E-02  0.10299901730E+01  0.10298958383E+01 0.  0.
     999903    2    3    3    0    0  0.64214679648E-01 -0.11054991916E+00  0.36886833880E-01  0.14042249890E+00  0.44866802606E-01 0.  0.
         14    1    1    2    0    0  0.88854358004E-02  0.67591138761E-02 -0.83475856713E-02  0.13939826982E-01  0.00000000000E+00 0.  1.
     999901    1    3    3    0    0 -0.73100115448E-01  0.10379080528E+00 -0.28539248209E-01  0.88956767411E+00  0.88000000000E+00 0. -1.
        -11    1    4    4    0    0  0.37090234903E-01 -0.69111616396E-01  0.44701679505E-01  0.90280686293E-01  0.51100000000E-03 0. -1.
         11    1    4    4    0    0  0.27124444745E-01 -0.41438302765E-01 -0.78148456253E-02  0.50141812611E-01  0.51100000000E-03 0.  1.
</event>
<event>
 8    1  0.2837913E+004  0.1043930E+01  0.7957747E-01            NaN
         13   -1    0    0    0    0  0.00000000000E+00  0.00000000000E+00  0.74505805969E-08  0.10566000000E+00  0.10566000000E+00 0.  1.
     999900   -1    0    0    0    0 -0.00000000000E+00 -0.00000000000E+00 -0.74505805969E-08  0.93827000000E+00  0.93827000000E+00 0.  1.
     999902    2    1    2    0    0  0.22747898711E-02 -0.10460699071E-01 -0.49450316394E-02  0.10321378742E+01  0.10320705097E+01 0.  0.
     999903    2    3    3    0    0 -0.88544198959E-01 -0.93825963312E-01 -0.42095666452E-01  0.14276842017E+00  0.44355271425E-01 0.  0.
         14    1    1    2    0    0 -0.22747898711E-02  0.10460699071E-01  0.49450316394E-02  0.11792125844E-01  0.00000000000E+00 0. -1.
     999901    1    3    3    0    0  0.90818988830E-01  0.83365264241E-01  0.37150634813E-01  0.88936945398E+00  0.88000000000E+00 0. -1.
        -11    1    4    4    0    0 -0.71880615478E-01 -0.45325266627E-01 -0.22931833325E-01  0.88018934196E-01  0.51100000000E-03 0. -1.
         11    1    4    4    0    0 -0.16663583481E-01 -0.48500696685E-01 -0.19163833128E-01  0.54749485975E-01  0.51100000000E-03 0.  1.
</event>
<event>
 8    1  0.2837913E+004  0.1043930E+01  0.7957747E-01            NaN
         13   -1    0    0    0    0  0.00000000000E+00  0.00000000000E+00  0.74505805969E-08  0.10566000000E+00  0.10566000000E+00 0.  1.
     999900   -1    0    0    0    0 -0.00000000000E+00 -0.00000000000E+00 -0.74505805969E-08  0.93827000000E+00  0.93827000000E+00 0.  1.
     999902    2    1    2    0    0 -0.41846626205E-02 -0.48839918353E-02 -0.13174743663E-01  0.10292692139E+01  0.10291647954E+01 0.  0.
     999903    2    3    3    0    0 -0.89638461343E-01 -0.97772266184E-01 -0.26793733578E-02  0.14020187339E+00  0.45331186542E-01 0.  0.
         14    1    1    2    0    0  0.41846626205E-02  0.48839918353E-02  0.13174743663E-01  0.14660786066E-01  0.00000000000E+00 0.  1.
     999901    1    3    3    0    0  0.85453798722E-01  0.92888274349E-01 -0.10495370305E-01  0.88906734055E+00  0.88000000000E+00 0.  1.
        -11    1    4    4    0    0 -0.29027580812E-01 -0.56832336318E-01  0.13639887927E-01  0.65259654940E-01  0.51100000000E-03 0.  1.
         11    1    4    4    0    0 -0.60610880530E-01 -0.40939929866E-01 -0.16319261285E-01  0.74942218448E-01  0.51100000000E-03 0. -1.
</event>
<event>
 8    1  0.2837913E+004  0.1043930E+01  0.7957747E-01            NaN
         13   -1    0    0    0    0  0.00000000000E+00  0.00000000000E+00  0.74505805969E-08  0.10566000000E+00  0.10566000000E+00 0. -1.
     999900   -1    0    0    0    0 -0.00000000000E+00 -0.00000000000E+00 -0.74505805969E-08  0.93827000000E+00  0.93827000000E+00 0. -1.
     999902    2    1    2    0    0 -0.62094966134E-02  0.21612430338E-01  0.14090237269E-02  0.10213991247E+01  0.10211505920E+01 0.  0.
     999903    2    3    3    0    0 -0.11654816890E+00  0.46177542387E-01  0.17000294977E-01  0.13403158245E+00  0.44267527246E-01 0.  0.
         14    1    1    2    0    0  0.62094966134E-02 -0.21612430338E-01 -0.14090237269E-02  0.22530875286E-01  0.00000000000E+00 0. -1.
     999901    1    3    3    0    0  0.11033867229E+00 -0.24565112049E-01 -0.15591271250E-01  0.88736754227E+00  0.88000000000E+00 0.  1.
        -11    1    4    4    0    0 -0.11594127236E+00  0.34111422328E-01  0.15575610515E-01  0.12185576939E+00  0.51100000000E-03 0.  1.
         11    1    4    4    0    0 -0.60689653800E-03  0.12066120059E-01  0.14246844623E-02  0.12175813053E-01  0.51100000000E-03 0. -1.
</event>
<event>
 8    1  0.2837913E+004  0.1043930E+01  0.7957747E-01            NaN
         13   -1    0    0    0    0  0.00000000000E+00  0.00000000000E+00  0.74505805969E-08  0.10566000000E+00  0.10566000000E+00 0.  1.
     999900   -1    0    0    0    0 -0.00000000000E+00 -0.00000000000E+00 -0.74505805969E-08  0.93827000000E+00  0.93827000000E+00 0.  1.
     999902    2    1    2    0    0  0.52603223082E-02  0.21760024035E-02  0.13563049238E-01  0.10292207416E+01  0.10291156265E+01 0.  0.
     999903    2    3    3    0    0  0.33718907368E-02 -0.12327553039E+00  0.47774264352E-01  0.13966351441E+00  0.44891991292E-01 0.  0.
         14    1    1    2    0    0 -0.52603223082E-02 -0.21760024035E-02 -0.13563049238E-01  0.14709258372E-01  0.00000000000E+00 0. -1.
     999901    1    3    3    0    0  0.18884315714E-02  0.12545153280E+00 -0.34211215114E-01  0.88955722722E+00  0.88000000000E+00 0.  1.
        -11    1    4    4    0    0 -0.20160662288E-01 -0.72255515745E-01  0.28870420184E-01  0.80380807050E-01  0.51100000000E-03 0. -1.
         11    1    4    4    0    0  0.23532553025E-01 -0.51020014648E-01  0.18903844168E-01  0.59282707360E-01  0.51100000000E-03 0.  1.
</event>
<event>
 8    1  0.2837913E+004  0.1043930E+01  0.7957747E-01            NaN
         13   -1    0    0    0    0  0.00000000000E+00  0.00000000000E+00  0.74505805969E-08  0.10566000000E+00  0.10566000000E+00 0. -1.
     999900   -1    0    0    0    0 -0.00000000000E+00 -0.00000000000E+00 -0.74505805969E-08  0.93827000000E+00  0.93827000000E+00 0. -1.
     999902    2    1    2    0    0  0.19878158848E-01 -0.32313334029E-02  0.15331212398E-01  0.10186193542E+01  0.10183048463E+01 0.  0.
     999903    2    3    3    0    0 -0.73294654933E-01  0.13696825571E-01 -0.92361795520E-01  0.12701096502E+00  0.45181572464E-01 0.  0.
         14    1    1    2    0    0 -0.19878158848E-01  0.32313334029E-02 -0.15331212398E-01  0.25310645751E-01  0.00000000000E+00 0. -1.
     999901    1    3    3    0    0  0.93172813781E-01 -0.16928158974E-01  0.10769300792E+00  0.89160838923E+00  0.88000000000E+00 0. -1.
        -11    1    4    4    0    0 -0.25062684927E-01 -0.54475488113E-02 -0.61492423611E-01  0.66628771911E-01  0.51100000000E-03 0. -1.
         11    1    4    4    0    0 -0.48231970007E-01  0.19144374382E-01 -0.30869371909E-01  0.60382193106E-01  0.51100000000E-03 0.  1.
</event>
<event>
 8    1  0.2837913E+004  0.1043930E+01  0.7957747E-01            NaN
         13   -1    0    0    0    0  0.00000000000E+00  0.00000000000E+00  0.74505805969E-08  0.10566000000E+00  0.10566000000E+00 0. -1.
     999900   -1    0    0    0    0 -0.00000000000E+00 -0.00000000000E+00 -0.74505805969E-08  0.93827000000E+00  0.93827000000E+00 0. -1.
     999902    2    1    2    0    0 -0.16426610551E-02 -0.71385571548E-02  0.12878982529E-01  0.10291136062E+01  0.10290069431E+01 0.  0.
     999903    2    3    3    0    0  0.16390132703E-01 -0.44650076778E-01 -0.12139119626E+00  0.13795661856E+00  0.45099226899E-01 0.  0.
         14    1    1    2    0    0  0.16426610551E-02  0.71385571548E-02 -0.12878982529E-01  0.14816393778E-01  0.00000000000E+00 0.  1.
     999901    1    3    3    0    0 -0.18032793758E-01  0.37511519623E-01  0.13427017879E+00  0.89115698767E+00  0.88000000000E+00 0.  1.
        -11    1    4    4    0    0  0.14920064444E-01 -0.50954830865E-01 -0.79728896684E-01  0.95791237589E-01  0.51100000000E-03 0. -1.
         11    1    4    4    0    0  0.14700682585E-02  0.63047540872E-02 -0.41662299579E-01  0.42165380966E-01  0.51100000000E-03 0.  1.
</event>
<event>
 8    1  0.2837913E+004  0.1043930E+01  0.7957747E-01            NaN
         13   -1    0    0    0    0  0.00000000000E+00  0.00000000000E+00  0.74505805969E-08  0.10566000000E+00  0.10566000000E+00 0. -1.
     999900   -1    0    0    0    0 -0.00000000000E+00 -0.00000000000E+00 -0.74505805969E-08  0.93827000000E+00  0.93827000000E+00 0.  1.
     999902    2    1    2    0    0  0.11101924509E-01  0.11360398649E-02 -0.98302543717E-02  0.10290579720E+01  0.10289505006E+01 0.  0.
     999903    2    3    3    0    0 -0.11928369739E+00  0.51459052580E-01 -0.17382677816E-01  0.13799688822E+00  0.43178109233E-01 0.  0.
         14    1    1    2    0    0 -0.11101924509E-01 -0.11360398649E-02  0.98302543717E-02  0.14872027952E-01  0.00000000000E+00 0. -1.
     999901    1    3    3    0    0  0.13038562190E+00 -0.50323012715E-01  0.75524234445E-02  0.89106108382E+00  0.88000000000E+00 0. -1.
        -11    1    4    4    0    0 -0.13310972066E-01  0.19187411086E-01  0.73568714491E-02  0.24489250705E-01  0.51100000000E-03 0. -1.
         11    1    4    4    0    0 -0.10597272532E+00  0.32271641494E-01 -0.24739549265E-01  0.11350763752E+00  0.51100000000E-03 0.  1.
</event>
<event>
 7    1  0.2837913E+004  0.1043930E+01  0.7957747E-01            NaN
         13   -1    0    0    0    0  0.00000000000E+00  0.00000000000E+00  0.74505805969E-08  0.10566000000E+00  0.10566000000E+00 0. -1.
     999900   -1    0    0    0    0 -0.00000000000E+00 -0.00000000000E+00 -0.74505805969E-08  0.93827000000E+00  0.93827000000E+00 0. -1.
     999902    2    1    2    0    0 -0.69791492434E-02  0.40761428877E-02  0.10685536130E-01  0.10305320842E+01  0.10304449876E+01 0.  0.
         14    1    1    2    0    0  0.69791492434E-02 -0.40761428877E-02 -0.10685536130E-01  0.13397915786E-01  0.00000000000E+00 0. -1.
     999901    1    3    3    0    0 -0.34399069705E-01 -0.11968583516E+00 -0.47024843615E-01  0.89001086008E+00  0.88000000000E+00 0. -1.
        -11    1    3    3    0    0  0.14733531657E-01  0.32700763025E-01  0.11855355175E-01  0.37778663619E-01  0.51100000000E-03 0. -1.
         11    1    3    3    0    0  0.12686388805E-01  0.91061215026E-01  0.45855024570E-01  0.10274256052E+00  0.51100000000E-03 0.  1.
</event>
<event>
 8    1  0.2837913E+004  0.1043930E+01  0.7957747E-01            NaN
         13   -1    0    0    0    0  0.00000000000E+00  0.00000000000E+00  0.74505805969E-08  0.10566000000E+00  0.10566000000E+00 0.  1.
     999900   -1    0    0    0    0 -0.00000000000E+00 -0.00000000000E+00 -0.74505805969E-08  0.93827000000E+00  0.93827000000E+00 0.  1.
     999902    2    1    2    0    0 -0.13528616949E-01 -0.36383426313E-02 -0.32236047175E-02  0.10295545821E+01  0.10294542169E+01 0.  0.
     999903    2    3    3    0    0 -0.69500856018E-01 -0.10268246764E-01  0.11269100958E+00  0.14016544058E+00  0.44847309979E-01 0.  0.
         14    1    1    2    0    0  0.13528616949E-01  0.36383426313E-02  0.32236047175E-02  0.14375417943E-01  0.00000000000E+00 0. -1.
     999901    1    3    3    0    0  0.55972239069E-01  0.66299041329E-02 -0.11591461430E+00  0.88938914148E+00  0.88000000000E+00 0.  1.
        -11    1    4    4    0    0 -0.44109415669E-01 -0.75738222006E-02  0.10394264869E+00  0.11316951299E+00  0.51100000000E-03 0. -1.
         11    1    4    4    0    0 -0.25391440350E-01 -0.26944245636E-02  0.87483608919E-02  0.26995927583E-01  0.51100000000E-03 0.  1.
</event>
<event>
 8    1  0.2837913E+004  0.1043930E+01  0.7957747E-01            NaN
         13   -1    0    0    0    0  0.00000000000E+00  0.00000000000E+00  0.74505805969E-08  0.10566000000E+00  0.10566000000E+00 0. -1.
     999900   -1    0    0    0    0 -0.00000000000E+00 -0.00000000000E+00 -0.74505805969E-08  0.93827000000E+00  0.93827000000E+00 0. -1.
     999902    2    1    2    0    0  0.30470909165E-02 -0.11930526643E-01  0.67251722510E-02  0.10298996696E+01  0.10298040975E+01 0.  0.
     999903    2    3    3    0    0 -0.99277835338E-01  0.60561963622E-01  0.61233882583E-01  0.13933987309E+00  0.46283602165E-01 0.  0.
         14    1    1    2    0    0 -0.30470909165E-02  0.11930526643E-01 -0.67251722510E-02  0.14030330389E-01  0.00000000000E+00 0.  1.
     999901    1    3    3    0    0  0.10232492625E+00 -0.72492490264E-01 -0.54508710332E-01  0.89055979652E+00  0.88000000000E+00 0.  1.
        -11    1    4    4    0    0 -0.47916953865E-01  0.41471302103E-02  0.31283751916E-01  0.57377412033E-01  0.51100000000E-03 0.  1.
         11    1    4    4    0    0 -0.51360881473E-01  0.56414833411E-01  0.29950130667E-01  0.81962461057E-01  0.51100000000E-03 0. -1.
</event>
<event>
 8    1  0.2837913E+004  0.1043930E+01  0.7957747E-01            NaN
         13   -1    0    0    0    0  0.00000000000E+00  0.00000000000E+00  0.74505805969E-08  0.10566000000E+00  0.10566000000E+00 0.  1.
     999900   -1    0    0    0    0 -0.00000000000E+00 -0.00000000000E+00 -0.74505805969E-08  0.93827000000E+00  0.93827000000E+00 0.  1.
     999902    2    1    2    0    0  0.49498351995E-02  0.79205518263E-02  0.97660150589E-02  0.10304166340E+01  0.10303280199E+01 0.  0.
     999903    2    3    3    0    0 -0.12980910474E+00  0.21940182754E-01 -0.12655462104E-01  0.13976561113E+00  0.45193915977E-01 0.  0.
         14    1    1    2    0    0 -0.49498351995E-02 -0.79205518263E-02 -0.97660150589E-02  0.13513365971E-01  0.00000000000E+00 0. -1.
     999901    1    3    3    0    0  0.13475893994E+00 -0.14019630928E-01  0.22421477163E-01  0.89065102289E+00  0.88000000000E+00 0. -1.
        -11    1    4    4    0    0 -0.81477963173E-01  0.33177253995E-01  0.20839632602E-02  0.87999958462E-01  0.51100000000E-03 0. -1.
         11    1    4    4    0    0 -0.48331141569E-01 -0.11237071241E-01 -0.14739425364E-01  0.51765652672E-01  0.51100000000E-03 0.  1.
</event>
<event>
 7    1  0.2837913E+004  0.1043930E+01  0.7957747E-01            NaN
         13   -1    0    0    0    0  0.00000000000E+00  0.00000000000E+00  0.74505805969E-08  0.10566000000E+00  0.10566000000E+00 0.  1.
     999900   -1    0    0    0    0 -0.00000000000E+00 -0.00000000000E+00 -0.74505805969E-08  0.93827000000E+00  0.93827000000E+00 0. -1.
     999903    2    1    2    0    0 -0.86455394993E-01  0.39114276991E-01  0.48712467783E-01  0.11582163789E+00  0.45136296912E-01 0.  0.
         14    1    1    2    0    0 -0.36176829679E-02  0.80143838973E-02  0.37082862932E-01  0.38111109962E-01  0.00000000000E+00 0.  1.
     999901    1    1    2    0    0  0.90073077961E-01 -0.47128660889E-01 -0.85795330715E-01  0.88999725214E+00  0.88000000000E+00 0. -1.
        -11    1    3    3    0    0 -0.41582676925E-01  0.28469447424E-01  0.23896707111E-02  0.50453940421E-01  0.51100000000E-03 0.  1.
         11    1    3    3    0    0 -0.44872718068E-01  0.10644829567E-01  0.46322797072E-01  0.65367697473E-01  0.51100000000E-03 0. -1.
</event>
<event>
 8    1  0.2837913E+004  0.1043930E+01  0.7957747E-01            NaN
         13   -1    0    0    0    0  0.00000000000E+00  0.00000000000E+00  0.74505805969E-08  0.10566000000E+00  0.10566000000E+00 0.  1.
     999900   -1    0    0    0    0 -0.00000000000E+00 -0.00000000000E+00 -0.74505805969E-08  0.93827000000E+00  0.93827000000E+00 0.  1.
     999902    2    1    2    0    0  0.76844443825E-02 -0.69715105033E-02 -0.93840888588E-02  0.10299402263E+01  0.10298452097E+01 0.  0.
     999903    2    3    3    0    0  0.11443133500E+00 -0.12047276340E-01 -0.68545223076E-01  0.14150300182E+00  0.45661631819E-01 0.  0.
         14    1    1    2    0    0 -0.76844443825E-02  0.69715105033E-02  0.93840888588E-02  0.13989773689E-01  0.00000000000E+00 0.  1.
     999901    1    3    3    0    0 -0.10674689062E+00  0.50757658367E-02  0.59161134217E-01  0.88843722449E+00  0.88000000000E+00 0. -1.
        -11    1    4    4    0    0  0.25193610754E-01 -0.15334333795E-01 -0.35804330214E-01  0.46390419257E-01  0.51100000000E-03 0. -1.
         11    1    4    4    0    0  0.89237724248E-01  0.32870574550E-02 -0.32740892862E-01  0.95112582565E-01  0.51100000000E-03 0.  1.
</event>
<event>
 8    1  0.2837913E+004  0.1043930E+01  0.7957747E-01            NaN
         13   -1    0    0    0    0  0.00000000000E+00  0.00000000000E+00  0.74505805969E-08  0.10566000000E+00  0.10566000000E+00 0. -1.
     999900   -1    0    0    0    0 -0.00000000000E+00 -0.00000000000E+00 -0.74505805969E-08  0.93827000000E+00  0.93827000000E+00 0. -1.
     999902    2    1    2    0    0  0.73702434801E-02  0.65878948965E-02  0.17326456680E-01  0.10239818936E+01  0.10237875715E+01 0.  0.
     999903    2    3    3    0    0 -0.20504329095E-01  0.92942429459E-01  0.87134828978E-01  0.13656580952E+00  0.44710392557E-01 0.  0.
         14    1    1    2    0    0 -0.73702434801E-02 -0.65878948965E-02 -0.17326456680E-01  0.19948106406E-01  0.00000000000E+00 0.  1.
     999901    1    3    3    0    0  0.27874572575E-01 -0.86354534562E-01 -0.69808372298E-01  0.88741608408E+00  0.88000000000E+00 0. -1.
        -11    1    4    4    0    0 -0.13985690206E-01  0.86598502348E-01  0.55875458434E-01  0.10400590423E+00  0.51100000000E-03 0. -1.
         11    1    4    4    0    0 -0.65186388883E-02  0.63439271108E-02  0.31259370544E-01  0.32559905282E-01  0.51100000000E-03 0.  1.
</event>
<event>
 8    1  0.2837913E+004  0.1043930E+01  0.7957747E-01            NaN
         13   -1    0    0    0    0  0.00000000000E+00  0.00000000000E+00  0.74505805969E-08  0.10566000000E+00  0.10566000000E+00 0. -1.
     999900   -1    0    0    0    0 -0.00000000000E+00 -0.00000000000E+00 -0.74505805969E-08  0.93827000000E+00  0.93827000000E+00 0. -1.
     999902    2    1    2    0    0  0.96310548569E-02  0.17755939692E-02  0.96218054002E-02  0.10302008671E+01  0.10301093813E+01 0.  0.
     999903    2    3    3    0    0  0.97292835217E-01 -0.70838330096E-01 -0.58237457357E-01  0.14027825851E+00  0.42454959372E-01 0.  0.
         14    1    1    2    0    0 -0.96310548569E-02 -0.17755939692E-02 -0.96218054002E-02  0.13729132921E-01  0.00000000000E+00 0.  1.
     999901    1    3    3    0    0 -0.87661780360E-01  0.72613924065E-01  0.67859262757E-01  0.88992260857E+00  0.88000000000E+00 0.  1.
        -11    1    4    4    0    0  0.43897269920E-01 -0.16592156573E-01 -0.45912724714E-02  0.47155178613E-01  0.51100000000E-03 0. -1.
         11    1    4    4    0    0  0.53395565297E-01 -0.54246173523E-01 -0.53646184886E-01  0.93123079895E-01  0.51100000000E-03 0.  1.
</event>
<event>
 8    1  0.2837913E+004  0.1043930E+01  0.7957747E-01            NaN
         13   -1    0    0    0    0  0.00000000000E+00  0.00000000000E+00  0.74505805969E-08  0.10566000000E+00  0.10566000000E+00 0.  1.
     999900   -1    0    0    0    0 -0.00000000000E+00 -0.00000000000E+00 -0.74505805969E-08  0.93827000000E+00  0.93827000000E+00 0. -1.
     999902    2    1    2    0    0  0.43332573068E-02 -0.87271075609E-02  0.10183115973E-01  0.10298361937E+01  0.10297397489E+01 0.  0.
     999903    2    3    3    0    0  0.17649502424E-02  0.74202021040E-02 -0.13066310835E+00  0.13848609933E+00  0.45247954396E-01 0.  0.
         14    1    1    2    0    0 -0.43332573068E-02  0.87271075609E-02 -0.10183115973E-01  0.14093806306E-01  0.00000000000E+00 0. -1.
     999901    1    3    3    0    0  0.25683070644E-02 -0.16147309665E-01  0.14084622432E+00  0.89135009436E+00  0.88000000000E+00 0.  1.
        -11    1    4    4    0    0 -0.12038046127E-01  0.21725230128E-01 -0.87582088590E-01  0.91037264576E-01  0.51100000000E-03 0.  1.
         11    1    4    4    0    0  0.13802996370E-01 -0.14305028024E-01 -0.43081019758E-01  0.47448834758E-01  0.51100000000E-03 0. -1.
</event>
<event>
 8    1  0.2837913E+004  0.1043930E+01  0.7957747E-01            NaN
         13   -1    0    0    0    0  0.00000000000E+00  0.00000000000E+00  0.74505805969E-08  0.10566000000E+00  0.10566000000E+00 0.  1.
     999900   -1    0    0    0    0 -0.00000000000E+00 -0.00000000000E+00 -0.74505805969E-08  0.93827000000E+00  0.93827000000E+00 0. -1.
     999902    2    1    2    0    0 -0.11078958231E-01  0.87358625029E-02 -0.14825235557E-02  0.10297435105E+01  0.10296457842E+01 0.  0.
     999903    2    3    3    0    0  0.12808572801E+00 -0.21463010668E-01  0.11813915121E-01  0.13819677747E+00  0.45740202940E-01 0.  0.
         14    1    1    2    0    0  0.11078958231E-01 -0.87358625029E-02  0.14825235557E-02  0.14186489532E-01  0.00000000000E+00 0.  1.
     999901    1    3    3    0    0 -0.13916468624E+00  0.30198873171E-01 -0.13296438677E-01  0.89154673300E+00  0.88000000000E+00 0. -1.
        -11    1    4    4    0    0  0.53882756512E-01  0.49890044261E-03 -0.15596752540E-01  0.56099199297E-01  0.51100000000E-03 0. -1.
         11    1    4    4    0    0  0.74202971501E-01 -0.21961911110E-01  0.27410667661E-01  0.82097578172E-01  0.51100000000E-03 0.  1.
</event>
<event>
 8    1  0.2837913E+004  0.1043930E+01  0.7957747E-01            NaN
         13   -1    0    0    0    0  0.00000000000E+00  0.00000000000E+00  0.74505805969E-08  0.10566000000E+00  0.10566000000E+00 0.  1.
     999900   -1    0    0    0    0 -0.00000000000E+00 -0.00000000000E+00 -0.74505805969E-08  0.93827000000E+00  0.93827000000E+00 0. -1.
     999902    2    1    2    0    0  0.67365661892E-02 -0.51366072650E-04 -0.11756860781E-01  0.10303798067E+01  0.10302907058E+01 0.  0.
     999903    2    3    3    0    0 -0.82327143315E-01 -0.97141973916E-01  0.34508088134E-01  0.13936949478E+00  0.44930238219E-01 0.  0.
         14    1    1    2    0    0 -0.67365661892E-02  0.51366072650E-04  0.11756860781E-01  0.13550193280E-01  0.00000000000E+00 0.  1.
     999901    1    3    3    0    0  0.89063709504E-01  0.97090607843E-01 -0.46264948916E-01  0.89101031194E+00  0.88000000000E+00 0. -1.
        -11    1    4    4    0    0 -0.21692768928E-01 -0.41020208475E-01  0.32623823339E-01  0.56725732233E-01  0.51100000000E-03 0.  1.
         11    1    4    4    0    0 -0.60634374386E-01 -0.56121765441E-01  0.18842647954E-02  0.82643762549E-01  0.51100000000E-03 0. -1.
</event>
<event>
 8    1  0.2837913E+004  0.1043930E+01  0.7957747E-01            NaN
         13   -1    0    0    0    0  0.00000000000E+00  0.00000000000E+00  0.74505805969E-08  0.10566000000E+00  0.10566000000E+00 0.  1.
     999900   -1    0    0    0    0 -0.00000000000E+00 -0.00000000000E+00 -0.74505805969E-08  0.93827000000E+00  0.93827000000E+00 0. -1.
     999902    2    1    2    0    0 -0.23752003180E-02  0.87925317564E-02  0.10182298677E-01  0.10302687630E+01  0.10301781858E+01 0.  0.
     999903    2    3    3    0    0 -0.11066451526E+00 -0.64834627823E-01 -0.37738956393E-01  0.13928953702E+00  0.39079181050E-01 0.  0.
         14    1    1    2    0    0  0.23752003180E-02 -0.87925317564E-02 -0.10182298677E-01  0.13661237045E-01  0.00000000000E+00 0. -1.
     999901    1    3    3    0    0  0.10828931494E+00  0.73627159579E-01  0.47921255070E-01  0.89097922593E+00  0.88000000000E+00 0.  1.
        -11    1    4    4    0    0 -0.27725776830E-01 -0.67924889102E-02 -0.23666091730E-01  0.37083711050E-01  0.51100000000E-03 0. -1.
         11    1    4    4    0    0 -0.82938738429E-01 -0.58042138913E-01 -0.14072864662E-01  0.10220582597E+00  0.51100000000E-03 0.  1.
</event>
<event>
 7    1  0.2837913E+004  0.1043930E+01  0.7957747E-01            NaN
         13   -1    0    0    0    0  0.00000000000E+00  0.00000000000E+00  0.74505805969E-08  0.10566000000E+00  0.10566000000E+00 0. -1.
     999900   -1    0    0    0    0 -0.00000000000E+00 -0.00000000000E+00 -0.74505805969E-08  0.93827000000E+00  0.93827000000E+00 0. -1.
     999903    2    1    2    0    0 -0.19388477635E-01  0.39133062692E-01  0.76258393764E-01  0.98720317097E-01  0.44978313971E-01 0.  0.
         14    1    1    2    0    0 -0.47284531592E-01 -0.96984255086E-03  0.29211728895E-01  0.55588601597E-01  0.00000000000E+00 0. -1.
     999901    1    1    2    0    0  0.66673009228E-01 -0.38163220141E-01 -0.10547012266E+00  0.88962108131E+00  0.88000000000E+00 0. -1.
        -11    1    3    3    0    0  0.15298164891E-02  0.41556078671E-01  0.48919685670E-01  0.64207824913E-01  0.51100000000E-03 0. -1.
         11    1    3    3    0    0 -0.20918294124E-01 -0.24230159793E-02  0.27338708094E-01  0.34512492184E-01  0.51100000000E-03 0.  1.
</event>
<event>
 8    1  0.2837913E+004  0.1043930E+01  0.7957747E-01            NaN
         13   -1    0    0    0    0  0.00000000000E+00  0.00000000000E+00  0.74505805969E-08  0.10566000000E+00  0.10566000000E+00 0.  1.
     999900   -1    0    0    0    0 -0.00000000000E+00 -0.00000000000E+00 -0.74505805969E-08  0.93827000000E+00  0.93827000000E+00 0.  1.
     999902    2    1    2    0    0  0.20183495145E-02  0.82353013099E-02  0.10472618431E-01  0.10304552214E+01  0.10303671159E+01 0.  0.
     999903    2    3    3    0    0  0.11258028103E+00 -0.67216687743E-01  0.25421691886E-01  0.14020782982E+00  0.42656422006E-01 0.  0.
         14    1    1    2    0    0 -0.20183495145E-02 -0.82353013099E-02 -0.10472618431E-01  0.13474778634E-01  0.00000000000E+00 0. -1.
     999901    1    3    3    0    0 -0.11056193151E+00  0.75451989053E-01 -0.14949073455E-01  0.89024739154E+00  0.88000000000E+00 0. -1.
        -11    1    4    4    0    0  0.31100782508E-01 -0.42591822076E-01  0.10953993978E-01  0.53866251823E-01  0.51100000000E-03 0.  1.
         11    1    4    4    0    0  0.81479498518E-01 -0.24624865667E-01  0.14467697908E-01  0.86341578001E-01  0.51100000000E-03 0. -1.
</event>
<event>
 8    1  0.2837913E+004  0.1043930E+01  0.7957747E-01            NaN
         13   -1    0    0    0    0  0.00000000000E+00  0.00000000000E+00  0.74505805969E-08  0.10566000000E+00  0.10566000000E+00 0.  1.
     999900   -1    0    0    0    0 -0.00000000000E+00 -0.00000000000E+00 -0.74505805969E-08  0.93827000000E+00  0.93827000000E+00 0. -1.
     999902    2    1    2    0    0  0.47014813437E-02 -0.12424702193E-01  0.38197545123E-02  0.10301072768E+01  0.10300145310E+01 0.  0.
     999903    2    3    3    0    0  0.90410526091E-01 -0.99243348866E-01  0.68495671815E-02  0.14168581292E+00  0.44773289923E-01 0.  0.
         14    1    1    2    0    0 -0.47014813437E-02  0.12424702193E-01 -0.38197545123E-02  0.13822723174E-01  0.00000000000E+00 0. -1.
     999901    1    3    3    0    0 -0.85709044747E-01  0.86818646673E-01 -0.30298126692E-02  0.88842146390E+00  0.88000000000E+00 0. -1.
        -11    1    4    4    0    0  0.65492997617E-01 -0.38764908255E-01  0.34996792413E-02  0.76187661236E-01  0.51100000000E-03 0. -1.
         11    1    4    4    0    0  0.24917528474E-01 -0.60478440611E-01  0.33498879403E-02  0.65498151685E-01  0.51100000000E-03 0.  1.
</event>
<event>
 8    1  0.2837913E+004  0.1043930E+01  0.7957747E-01            NaN
         13   -1    0    0    0    0  0.00000000000E+00  0.00000000000E+00  0.74505805969E-08  0.10566000000E+00  0.10566000000E+00 0.  1.
     999900   -1    0    0    0    0 -0.00000000000E+00 -0.00000000000E+00 -0.74505805969E-08  0.93827000000E+00  0.93827000000E+00 0. -1.
     999902    2    1    2    0    0  0.80407297519E-02  0.10625801855E-01  0.10383181433E-02  0.10305644059E+01  0.10304777318E+01 0.  0.
     999903    2    3    3    0    0  0.32618927850E-01  0.13048478767E+00 -0.10687505815E-01  0.14202191441E+00  0.44336521355E-01 0.  0.
         14    1    1    2    0    0 -0.80407297519E-02 -0.10625801855E-01 -0.10383181433E-02  0.13365594060E-01  0.00000000000E+00 0. -1.
     999901    1    3    3    0    0 -0.24578198098E-01 -0.11985898581E+00  0.11725823959E-01  0.88854249153E+00  0.88000000000E+00 0.  1.
        -11    1    4    4    0    0  0.12795951099E-01  0.39560243884E-01 -0.24003605424E-01  0.48012326074E-01  0.51100000000E-03 0. -1.
         11    1    4    4    0    0  0.19822976751E-01  0.90924543786E-01  0.13316099609E-01  0.94009588339E-01  0.51100000000E-03 0.  1.
</event>
<event>
 8    1  0.2837913E+004  0.1043930E+01  0.7957747E-01            NaN
         13   -1    0    0    0    0  0.00000000000E+00  0.00000000000E+00  0.74505805969E-08  0.10566000000E+00  0.10566000000E+00 0.  1.
     999900   -1    0    0    0    0 -0.00000000000E+00 -0.00000000000E+00 -0.74505805969E-08  0.93827000000E+00  0.93827000000E+00 0.  1.
     999902    2    1    2    0    0 -0.12281451083E-01  0.61725933576E-02 -0.85492945759E-03  0.10301580773E+01  0.10300660165E+01 0.  0.
     999903    2    3    3    0    0 -0.19474508838E-01 -0.55123564559E-01 -0.11891472687E+00  0.14013163120E+00  0.45588353034E-01 0.  0.
         14    1    1    2    0    0  0.12281451083E-01 -0.61725933576E-02  0.85492945759E-03  0.13771922663E-01  0.00000000000E+00 0.  1.
     999901    1    3    3    0    0  0.71930577556E-02  0.61296157917E-01  0.11805979741E+00  0.89002644614E+00  0.88000000000E+00 0. -1.
        -11    1    4    4    0    0 -0.25265767227E-01 -0.81608732201E-02 -0.48478574041E-01  0.55275601375E-01  0.51100000000E-03 0.  1.
         11    1    4    4    0    0  0.57912583889E-02 -0.46962691339E-01 -0.70436152829E-01  0.84856029827E-01  0.51100000000E-03 0. -1.
</event>
<event>
 8    1  0.2837913E+004  0.1043930E+01  0.7957747E-01            NaN
         13   -1    0    0    0    0  0.00000000000E+00  0.00000000000E+00  0.74505805969E-08  0.10566000000E+00  0.10566000000E+00 0.  1.
     999900   -1    0    0    0    0 -0.00000000000E+00 -0.00000000000E+00 -0.74505805969E-08  0.93827000000E+00  0.93827000000E+00 0.  1.
     999902    2    1    2    0    0  0.90777433389E-02  0.29446583091E-02  0.10160562198E-01  0.10299903637E+01  0.10298960315E+01 0.  0.
     999903    2    3    3    0    0 -0.18775058296E-01 -0.46310958395E-01  0.12641675962E+00  0.14054255870E+00  0.35690419031E-01 0.  0.
         14    1    1    2    0    0 -0.90777433389E-02 -0.29446583091E-02 -0.10160562198E-01  0.13939636325E-01  0.00000000000E+00 0. -1.
     999901    1    3    3    0    0  0.27852801635E-01  0.49255616705E-01 -0.11625619742E+00  0.88944780498E+00  0.88000000000E+00 0.  1.
        -11    1    4    4    0    0  0.56404695603E-02 -0.27520633964E-01  0.80345834935E-01  0.85117063525E-01  0.51100000000E-03 0. -1.
         11    1    4    4    0    0 -0.24415527857E-01 -0.18790324431E-01  0.46070924688E-01  0.55425495175E-01  0.51100000000E-03 0.  1.
</event>
<event>
 8    1  0.2837913E+004  0.1043930E+01  0.7957747E-01            NaN
         13   -1    0    0    0    0  0.00000000000E+00  0.00000000000E+00  0.74505805969E-08  0.10566000000E+00  0.10566000000E+00 0. -1.
     999900   -1    0    0    0    0 -0.00000000000E+00 -0.00000000000E+00 -0.74505805969E-08  0.93827000000E+00  0.93827000000E+00 0. -1.
     999902    2    1    2    0    0  0.11556652881E-02 -0.13833276229E-01 -0.27713918874E-02  0.10297745874E+01  0.10296772917E+01 0.  0.
     999903    2    3    3    0    0 -0.11985569134E+00 -0.64175256908E-02 -0.56832363378E-01  0.13981878487E+00  0.43735611258E-01 0.  0.
         14    1    1    2    0    0 -0.11556652881E-02  0.13833276229E-01  0.27713918874E-02  0.14155412621E-01  0.00000000000E+00 0. -1.
     999901    1    3    3    0    0  0.12101135663E+00 -0.74157505383E-02  0.54060971491E-01  0.88995580251E+00  0.88000000000E+00 0.  1.
        -11    1    4    4    0    0 -0.61657010049E-01 -0.25071800025E-01 -0.27341341102E-01  0.71958266370E-01  0.51100000000E-03 0. -1.
         11    1    4    4    0    0 -0.58198681289E-01  0.18654274334E-01 -0.29491022276E-01  0.67860518496E-01  0.51100000000E-03 0.  1.
</event>
<event>
 8    1  0.2837913E+004  0.1043930E+01  0.7957747E-01            NaN
         13   -1    0    0    0    0  0.00000000000E+00  0.00000000000E+00  0.74505805969E-08  0.10566000000E+00  0.10566000000E+00 0.  1.
     999900   -1    0    0    0    0 -0.00000000000E+00 -0.00000000000E+00 -0.74505805969E-08  0.93827000000E+00  0.93827000000E+00 0.  1.
     999902    2    1    2    0    0 -0.12221963596E-01 -0.27033581315E-02  0.20033698558E-01  0.10203072648E+01  0.10200337647E+01 0.  0.
     999903    2    3    3    0    0  0.14140805705E-01  0.97178372720E-02 -0.11945014830E+00  0.12884496880E+00  0.45147417512E-01 0.  0.
         14    1    1    2    0    0  0.12221963596E-01  0.27033581315E-02 -0.20033698558E-01  0.23622735177E-01  0.00000000000E+00 0. -1.
     999901    1    3    3    0    0 -0.26362769301E-01 -0.12421195403E-01  0.13948384686E+00  0.89146229603E+00  0.88000000000E+00 0. -1.
        -11    1    4    4    0    0  0.10676997557E-01 -0.14277574461E-02 -0.21899775455E-02  0.11004266936E-01  0.51100000000E-03 0. -1.
         11    1    4    4    0    0  0.34638081478E-02  0.11145594718E-01 -0.11726017076E+00  0.11784070186E+00  0.51100000000E-03 0.  1.
</event>
<event>
 8    1  0.2837913E+004  0.1043930E+01  0.7957747E-01            NaN
         13   -1    0    0    0    0  0.00000000000E+00  0.00000000000E+00  0.74505805969E-08  0.10566000000E+00  0.10566000000E+00 0. -1.
     999900   -1    0    0    0    0 -0.00000000000E+00 -0.00000000000E+00 -0.74505805969E-08  0.93827000000E+00  0.93827000000E+00 0. -1.
     999902    2    1    2    0    0  0.26164974280E-02  0.13435350902E-01 -0.23852627358E-02  0.10300359656E+01  0.10299422539E+01 0.  0.
     999903    2    3    3    0    0 -0.96504348805E-01  0.37578807290E-01  0.83008944160E-01  0.14003595484E+00  0.44657896744E-01 0.  0.
         14    1    1    2    0    0 -0.26164974280E-02 -0.13435350902E-01  0.23852627358E-02  0.13894034366E-01  0.00000000000E+00 0. -1.
     999901    1    3    3    0    0  0.99120846233E-01 -0.24143456388E-01 -0.85394206895E-01  0.89000001080E+00  0.88000000000E+00 0. -1.
        -11    1    4    4    0    0 -0.50243170125E-01  0.34701823599E-01  0.25507625748E-01  0.66177736419E-01  0.51100000000E-03 0. -1.
         11    1    4    4    0    0 -0.46261178680E-01  0.28769836910E-02  0.57501318412E-01  0.73858218420E-01  0.51100000000E-03 0.  1.
</event>
<event>
 8    1  0.2837913E+004  0.1043930E+01  0.7957747E-01            NaN
         13   -1    0    0    0    0  0.00000000000E+00  0.00000000000E+00  0.74505805969E-08  0.10566000000E+00  0.10566000000E+00 0. -1.
     999900   -1    0    0    0    0 -0.00000000000E+00 -0.00000000000E+00 -0.74505805969E-08  0.93827000000E+00  0.93827000000E+00 0.  1.
     999902    2    1    2    0    0  0.79155006099E-02  0.12864947273E-01  0.19350206108E-02  0.10287015292E+01  0.10285888050E+01 0.  0.
     999903    2    3    3    0    0  0.27828486463E-01 -0.32073445854E-01  0.12460852564E+00  0.13883368788E+00  0.44095097688E-01 0.  0.
         14    1    1    2    0    0 -0.79155006099E-02 -0.12864947273E-01 -0.19350206108E-02  0.15228470803E-01  0.00000000000E+00 0. -1.
     999901    1    3    3    0    0 -0.19912985853E-01  0.44938393127E-01 -0.12267350503E+00  0.88986784132E+00  0.88000000000E+00 0.  1.
        -11    1    4    4    0    0  0.11093633678E-02 -0.28307909163E-01  0.93255971827E-01  0.97465408278E-01  0.51100000000E-03 0. -1.
         11    1    4    4    0    0  0.26719123095E-01 -0.37655366906E-02  0.31352553809E-01  0.41368279598E-01  0.51100000000E-03 0.  1.
</event>
<event>
 8    1  0.2837913E+004  0.1043930E+01  0.7957747E-01            NaN
         13   -1    0    0    0    0  0.00000000000E+00  0.00000000000E+00  0.74505805969E-08  0.10566000000E+00  0.10566000000E+00 0.  1.
     999900   -1    0    0    0    0 -0.00000000000E+00 -0.00000000000E+00 -0.74505805969E-08  0.93827000000E+00  0.93827000000E+00 0.  1.
     999902    2    1    2    0    0  0.27475401315E-02 -0.16005547338E-02 -0.12391346869E-01  0.10311371806E+01  0.10310578203E+01 0.  0.
     999903    2    3    3    0    0 -0.85957630126E-01 -0.23111972497E-01  0.97785009136E-01  0.13958225922E+00  0.44703709330E-01 0.  0.
         14    1    1    2    0    0 -0.27475401315E-02  0.16005547338E-02  0.12391346869E-01  0.12792819449E-01  0.00000000000E+00 0.  1.
     999901    1    3    3    0    0  0.88705170258E-01  0.21511417764E-01 -0.11017635601E+00  0.89155492133E+00  0.88000000000E+00 0.  1.
        -11    1    4    4    0    0 -0.79178513547E-01 -0.33742041688E-01  0.78230551356E-01  0.11631011423E+00  0.51100000000E-03 0. -1.
         11    1    4    4    0    0 -0.67791165791E-02  0.10630069191E-01  0.19554457780E-01  0.23272144995E-01  0.51100000000E-03 0.  1.
</event>
<event>
 8    1  0.2837913E+004  0.1043930E+01  0.7957747E-01            NaN
         13   -1    0    0    0    0  0.00000000000E+00  0.00000000000E+00  0.74505805969E-08  0.10566000000E+00  0.10566000000E+00 0.  1.
     999900   -1    0    0    0    0 -0.00000000000E+00 -0.00000000000E+00 -0.74505805969E-08  0.93827000000E+00  0.93827000000E+00 0. -1.
     999902    2    1    2    0    0  0.29955748195E-02  0.12747150247E-01 -0.45645928812E-02  0.10300628151E+01  0.10299694677E+01 0.  0.
     999903    2    3    3    0    0 -0.38061395283E-02 -0.10436709698E+00 -0.80259824575E-01  0.13905676671E+00  0.44588869655E-01 0.  0.
         14    1    1    2    0    0 -0.29955748195E-02 -0.12747150247E-01  0.45645928812E-02  0.13867184865E-01  0.00000000000E+00 0.  1.
     999901    1    3    3    0    0  0.68017143478E-02  0.11711424723E+00  0.75695231694E-01  0.89100604842E+00  0.88000000000E+00 0.  1.
        -11    1    4    4    0    0  0.23287759312E-02 -0.50148579882E-01 -0.65502354512E-01  0.82529527014E-01  0.51100000000E-03 0.  1.
         11    1    4    4    0    0 -0.61349154594E-02 -0.54218517101E-01 -0.14757470063E-01  0.56527239699E-01  0.51100000000E-03 0. -1.
</event>
<event>
 8    1  0.2837913E+004  0.1043930E+01  0.7957747E-01            NaN
         13   -1    0    0    0    0  0.00000000000E+00  0.00000000000E+00  0.74505805969E-08  0.10566000000E+00  0.10566000000E+00 0.  1.
     999900   -1    0    0    0    0 -0.00000000000E+00 -0.00000000000E+00 -0.74505805969E-08  0.93827000000E+00  0.93827000000E+00 0. -1.
     999902    2    1    2    0    0  0.33152850865E-02 -0.79724378460E-02  0.10923881729E-01  0.10300058457E+01  0.10299117244E+01 0.  0.
     999903    2    3    3    0    0  0.11733918821E+00 -0.60804734290E-01  0.21305761484E-01  0.14101738378E+00  0.44342600909E-01 0.  0.
         14    1    1    2    0    0 -0.33152850865E-02  0.79724378460E-02 -0.10923881729E-01  0.13924154281E-01  0.00000000000E+00 0. -1.
     999901    1    3    3    0    0 -0.11402390312E+00  0.52832296444E-01 -0.10381879755E-01  0.88898846194E+00  0.88000000000E+00 0.  1.
        -11    1    4    4    0    0  0.11287929748E-01  0.19214745023E-02  0.13279995368E-01  0.17542201122E-01  0.51100000000E-03 0.  1.
         11    1    4    4    0    0  0.10605125846E+00 -0.62726208793E-01  0.80257661162E-02  0.12347518266E+00  0.51100000000E-03 0. -1.
</event>
<event>
 8    1  0.2837913E+004  0.1043930E+01  0.7957747E-01            NaN
         13   -1    0    0    0    0  0.00000000000E+00  0.00000000000E+00  0.74505805969E-08  0.10566000000E+00  0.10566000000E+00 0. -1.
     999900   -1    0    0    0    0 -0.00000000000E+00 -0.00000000000E+00 -0.74505805969E-08  0.93827000000E+00  0.93827000000E+00 0.  1.
     999902    2    1    2    0    0 -0.81451714484E-02 -0.34023508773E-02 -0.85271106291E-02  0.10316568005E+01  0.10315837933E+01 0.  0.
     999903    2    3    3    0    0  0.13220877057E+00  0.13650488800E-01  0.55463804595E-03  0.14032492826E+00  0.45003144421E-01 0.  0.
         14    1    1    2    0    0  0.81451714484E-02  0.34023508773E-02  0.85271106291E-02  0.12273199465E-01  0.00000000000E+00 0. -1.
     999901    1    3    3    0    0 -0.14035394201E+00 -0.17052839677E-01 -0.90817486751E-02  0.89133187228E+00  0.88000000000E+00 0.  1.
        -11    1    4    4    0    0  0.25108331390E-01 -0.59915491130E-02  0.15959362160E-01  0.30352748270E-01  0.51100000000E-03 0. -1.
         11    1    4    4    0    0  0.10710043918E+00  0.19642037913E-01 -0.15404724114E-01  0.10997217999E+00  0.51100000000E-03 0.  1.
</event>
<event>
 8    1  0.2837913E+004  0.1043930E+01  0.7957747E-01            NaN
         13   -1    0    0    0    0  0.00000000000E+00  0.00000000000E+00  0.74505805969E-08  0.10566000000E+00  0.10566000000E+00 0. -1.
     999900   -1    0    0    0    0 -0.00000000000E+00 -0.00000000000E+00 -0.74505805969E-08  0.93827000000E+00  0.93827000000E+00 0.  1.
     999902    2    1    2    0    0 -0.39930975194E-02  0.10940335329E-02 -0.12432247572E-01  0.10308264693E+01  0.10307431820E+01 0.  0.
     999903    2    3    3    0    0  0.11811656660E+00 -0.30515756867E-01  0.51617449045E-01  0.13952836397E+00  0.43829996405E-01 0.  0.
         14    1    1    2    0    0  0.39930975194E-02 -0.10940335329E-02  0.12432247572E-01  0.13103530702E-01  0.00000000000E+00 0. -1.
     999901    1    3    3    0    0 -0.12210966412E+00  0.31609790400E-01 -0.64049696616E-01  0.89129810533E+00  0.88000000000E+00 0. -1.
        -11    1    4    4    0    0  0.96348354355E-01 -0.16234413024E-01  0.56742339073E-01  0.11298900707E+00  0.51100000000E-03 0.  1.
         11    1    4    4    0    0  0.21768212244E-01 -0.14281343843E-01 -0.51248900286E-02  0.26539356907E-01  0.51100000000E-03 0. -1.
</event>
<event>
 8    1  0.2837913E+004  0.1043930E+01  0.7957747E-01            NaN
         13   -1    0    0    0    0  0.00000000000E+00  0.00000000000E+00  0.74505805969E-08  0.10566000000E+00  0.10566000000E+00 0. -1.
     999900   -1    0    0    0    0 -0.00000000000E+00 -0.00000000000E+00 -0.74505805969E-08  0.93827000000E+00  0.93827000000E+00 0. -1.
     999902    2    1    2    0    0  0.38308253461E-02  0.10970285336E-01 -0.70460116534E-02  0.10303407151E+01  0.10302510959E+01 0.  0.
     999903    2    3    3    0    0 -0.77597988287E-01 -0.59927271541E-01  0.88264841600E-01  0.13863377111E+00  0.42613549117E-01 0.  0.
         14    1    1    2    0    0 -0.38308253461E-02 -0.10970285336E-01  0.70460116534E-02  0.13589284875E-01  0.00000000000E+00 0. -1.
     999901    1    3    3    0    0  0.81428813633E-01  0.70897556878E-01 -0.95310853253E-01  0.89170694402E+00  0.88000000000E+00 0. -1.
        -11    1    4    4    0    0 -0.45879031357E-01 -0.58625124996E-01  0.68953048644E-01  0.10147203968E+00  0.51100000000E-03 0.  1.
         11    1    4    4    0    0 -0.31718956930E-01 -0.13021465456E-02  0.19311792955E-01  0.37161731425E-01  0.51100000000E-03 0. -1.
</event>
<event>
 8    1  0.2837913E+004  0.1043930E+01  0.7957747E-01            NaN
         13   -1    0    0    0    0  0.00000000000E+00  0.00000000000E+00  0.74505805969E-08  0.10566000000E+00  0.10566000000E+00 0.  1.
     999900   -1    0    0    0    0 -0.00000000000E+00 -0.00000000000E+00 -0.74505805969E-08  0.93827000000E+00  0.93827000000E+00 0. -1.
     999902    2    1    2    0    0  0.52796674114E-03  0.58840658348E-02 -0.13200677338E-01  0.10294676744E+01  0.10293660835E+01 0.  0.
     999903    2    3    3    0    0  0.71204908833E-01  0.10908526812E+00 -0.27861325769E-01  0.14050161604E+00  0.44662242160E-01 0.  0.
         14    1    1    2    0    0 -0.52796674114E-03 -0.58840658348E-02  0.13200677338E-01  0.14462325602E-01  0.00000000000E+00 0.  1.
     999901    1    3    3    0    0 -0.70676942092E-01 -0.10320120228E+00  0.14660648431E-01  0.88896605836E+00  0.88000000000E+00 0.  1.
        -11    1    4    4    0    0  0.15771892814E-01  0.62657476266E-01 -0.56627410434E-02  0.64861696648E-01  0.51100000000E-03 0. -1.
         11    1    4    4    0    0  0.55433016019E-01  0.46427791851E-01 -0.22198584726E-01  0.75639919395E-01  0.51100000000E-03 0.  1.
</event>
<event>
 8    1  0.2837913E+004  0.1043930E+01  0.7957747E-01            NaN
         13   -1    0    0    0    0  0.00000000000E+00  0.00000000000E+00  0.74505805969E-08  0.10566000000E+00  0.10566000000E+00 0. -1.
     999900   -1    0    0    0    0 -0.00000000000E+00 -0.00000000000E+00 -0.74505805969E-08  0.93827000000E+00  0.93827000000E+00 0. -1.
     999902    2    1    2    0    0 -0.21965884382E-02 -0.57083273538E-02  0.58625349028E-02  0.10354577325E+01  0.10354230712E+01 0.  0.
     999903    2    3    3    0    0 -0.10696484369E+00 -0.83525434290E-01  0.26820567803E-01  0.14558632119E+00  0.45365825252E-01 0.  0.
         14    1    1    2    0    0  0.21965884382E-02  0.57083273538E-02 -0.58625349028E-02  0.84722675495E-02  0.00000000000E+00 0.  1.
     999901    1    3    3    0    0  0.10476825525E+00  0.77817106936E-01 -0.20958032900E-01  0.88987141126E+00  0.88000000000E+00 0. -1.
        -11    1    4    4    0    0 -0.64450378908E-01 -0.75968059661E-01  0.22908468974E-01  0.10222551786E+00  0.51100000000E-03 0. -1.
         11    1    4    4    0    0 -0.42514464782E-01 -0.75573746293E-02  0.39120988286E-02  0.43360803328E-01  0.51100000000E-03 0.  1.
</event>
<event>
 8    1  0.2837913E+004  0.1043930E+01  0.7957747E-01            NaN
         13   -1    0    0    0    0  0.00000000000E+00  0.00000000000E+00  0.74505805969E-08  0.10566000000E+00  0.10566000000E+00 0.  1.
     999900   -1    0    0    0    0 -0.00000000000E+00 -0.00000000000E+00 -0.74505805969E-08  0.93827000000E+00  0.93827000000E+00 0. -1.
     999902    2    1    2    0    0  0.41004554937E-02  0.13402678591E-01 -0.17148947004E-02  0.10298095753E+01  0.10297127634E+01 0.  0.
     999903    2    3    3    0    0 -0.64659042508E-01 -0.27240840467E-01  0.11130301565E+00  0.13899376258E+00  0.44811266185E-01 0.  0.
         14    1    1    2    0    0 -0.41004554937E-02 -0.13402678591E-01  0.17148947004E-02  0.14120424657E-01  0.00000000000E+00 0.  1.
     999901    1    3    3    0    0  0.68759498002E-01  0.40643519058E-01 -0.11301791035E+00  0.89081581276E+00  0.88000000000E+00 0. -1.
        -11    1    4    4    0    0  0.33926748201E-02 -0.68427928369E-02  0.30287831772E-01  0.31240165344E-01  0.51100000000E-03 0.  1.
         11    1    4    4    0    0 -0.68051717328E-01 -0.20398047630E-01  0.81015183874E-01  0.10775359724E+00  0.51100000000E-03 0. -1.
</event>
<event>
 8    1  0.2837913E+004  0.1043930E+01  0.7957747E-01            NaN
         13   -1    0    0    0    0  0.00000000000E+00  0.00000000000E+00  0.74505805969E-08  0.10566000000E+00  0.10566000000E+00 0.  1.
     999900   -1    0    0    0    0 -0.00000000000E+00 -0.00000000000E+00 -0.74505805969E-08  0.93827000000E+00  0.93827000000E+00 0.  1.
     999902    2    1    2    0    0 -0.77128919479E-02  0.89194076388E-02 -0.76477371218E-02  0.10298753773E+01  0.10297794718E+01 0.  0.
     999903    2    3    3    0    0  0.83140326997E-01 -0.92776102150E-01  0.37687004549E-01  0.13821876020E+00  0.46523072291E-01 0.  0.
         14    1    1    2    0    0  0.77128919479E-02 -0.89194076388E-02  0.76477371218E-02  0.14054622653E-01  0.00000000000E+00 0.  1.
     999901    1    3    3    0    0 -0.90853218945E-01  0.10169550979E+00 -0.45334741671E-01  0.89165661715E+00  0.88000000000E+00 0.  1.
        -11    1    4    4    0    0  0.29307143629E-02 -0.32046245339E-01  0.12325416966E-01  0.34463429188E-01  0.51100000000E-03 0.  1.
         11    1    4    4    0    0  0.80209612635E-01 -0.60729856811E-01  0.25361587583E-01  0.10375533101E+00  0.51100000000E-03 0. -1.
</event>
<event>
 8    1  0.2837913E+004  0.1043930E+01  0.7957747E-01            NaN
         13   -1    0    0    0    0  0.00000000000E+00  0.00000000000E+00  0.74505805969E-08  0.10566000000E+00  0.10566000000E+00 0.  1.
     999900   -1    0    0    0    0 -0.00000000000E+00 -0.00000000000E+00 -0.74505805969E-08  0.93827000000E+00  0.93827000000E+00 0.  1.
     999902    2    1    2    0    0 -0.27118304431E-02 -0.34928355929E-02 -0.12952357242E-01  0.10302436023E+01  0.10301526889E+01 0.  0.
     999903    2    3    3    0    0  0.10571511785E+00  0.10702687268E-01 -0.80484345297E-01  0.14090762222E+00  0.45683634980E-01 0.  0.
         14    1    1    2    0    0  0.27118304431E-02  0.34928355929E-02  0.12952357242E-01  0.13686397734E-01  0.00000000000E+00 0.  1.
     999901    1    3    3    0    0 -0.10842694830E+00 -0.14195522861E-01  0.67531988055E-01  0.88933598004E+00  0.88000000000E+00 0. -1.
        -11    1    4    4    0    0  0.79305717588E-01 -0.12708454721E-01 -0.57710529261E-01  0.98902315302E-01  0.51100000000E-03 0.  1.
         11    1    4    4    0    0  0.26409400267E-01  0.23411141990E-01 -0.22773816036E-01  0.42005306921E-01  0.51100000000E-03 0. -1.
</event>
<event>
 8    1  0.2837913E+004  0.1043930E+01  0.7957747E-01            NaN
         13   -1    0    0    0    0  0.00000000000E+00  0.00000000000E+00  0.74505805969E-08  0.10566000000E+00  0.10566000000E+00 0.  1.
     999900   -1    0    0    0    0 -0.00000000000E+00 -0.00000000000E+00 -0.74505805969E-08  0.93827000000E+00  0.93827000000E+00 0.  1.
     999902    2    1    2    0    0 -0.10965472191E-01  0.94679044925E-02 -0.55179272534E-02  0.10284274093E+01  0.10283105591E+01 0.  0.
     999903    2    3    3    0    0 -0.62214852741E-01 -0.23236551010E-01 -0.11405423070E+00  0.13967760789E+00  0.45725719246E-01 0.  0.
         14    1    1    2    0    0  0.10965472191E-01 -0.94679044925E-02  0.55179272534E-02  0.15502590655E-01  0.00000000000E+00 0. -1.
     999901    1    3    3    0    0  0.51249380550E-01  0.32704455502E-01  0.10853630345E+00  0.88874980145E+00  0.88000000000E+00 0. -1.
        -11    1    4    4    0    0  0.68471314560E-02 -0.64054259818E-02 -0.16276772136E-01  0.18791144812E-01  0.51100000000E-03 0.  1.
         11    1    4    4    0    0 -0.69061984197E-01 -0.16831125028E-01 -0.97777458567E-01  0.12088646308E+00  0.51100000000E-03 0. -1.
</event>
<event>
 8    1  0.2837913E+004  0.1043930E+01  0.7957747E-01            NaN
         13   -1    0    0    0    0  0.00000000000E+00  0.00000000000E+00  0.74505805969E-08  0.10566000000E+00  0.10566000000E+00 0.  1.
     999900   -1    0    0    0    0 -0.00000000000E+00 -0.00000000000E+00 -0.74505805969E-08  0.93827000000E+00  0.93827000000E+00 0.  1.
     999902    2    1    2    0    0 -0.38975596792E-02 -0.11550929444E-01 -0.89327646510E-02  0.10288167864E+01  0.10287057746E+01 0.  0.
     999903    2    3    3    0    0  0.11289987411E+00  0.54870213581E-01 -0.35441783775E-01  0.13822364868E+00  0.45744235736E-01 0.  0.
         14    1    1    2    0    0  0.38975596792E-02  0.11550929444E-01  0.89327646510E-02  0.15113213648E-01  0.00000000000E+00 0.  1.
     999901    1    3    3    0    0 -0.11679743379E+00 -0.66421143024E-01  0.26509019124E-01  0.89059313768E+00  0.88000000000E+00 0. -1.
        -11    1    4    4    0    0  0.45991720682E-01  0.85934471353E-02  0.55628304713E-02  0.47119973565E-01  0.51100000000E-03 0. -1.
         11    1    4    4    0    0  0.66908153431E-01  0.46276766445E-01 -0.41004614246E-01  0.91103675110E-01  0.51100000000E-03 0.  1.
</event>
<event>
 8    1  0.2837913E+004  0.1043930E+01  0.7957747E-01            NaN
         13   -1    0    0    0    0  0.00000000000E+00  0.00000000000E+00  0.74505805969E-08  0.10566000000E+00  0.10566000000E+00 0. -1.
     999900   -1    0    0    0    0 -0.00000000000E+00 -0.00000000000E+00 -0.74505805969E-08  0.93827000000E+00  0.93827000000E+00 0.  1.
     999902    2    1    2    0    0  0.28388919155E-02 -0.88156042049E-02  0.10198654450E-01  0.10301536893E+01  0.10300615694E+01 0.  0.
     999903    2    3    3    0    0 -0.84904392916E-01 -0.81414055213E-02 -0.99774810469E-01  0.13897834089E+00  0.45661011935E-01 0.  0.
         14    1    1    2    0    0 -0.28388919155E-02  0.88156042049E-02 -0.10198654450E-01  0.13776310733E-01  0.00000000000E+00 0.  1.
     999901    1    3    3    0    0  0.87743284831E-01 -0.67419868360E-03  0.10997346492E+00  0.89117534838E+00  0.88000000000E+00 0. -1.
        -11    1    4    4    0    0 -0.39944176705E-01 -0.26084450060E-01 -0.41634048502E-01  0.63321330555E-01  0.51100000000E-03 0.  1.
         11    1    4    4    0    0 -0.44960216211E-01  0.17943044539E-01 -0.58140761967E-01  0.75657010331E-01  0.51100000000E-03 0. -1.
</event>
<event>
 8    1  0.2837913E+004  0.1043930E+01  0.7957747E-01            NaN
         13   -1    0    0    0    0  0.00000000000E+00  0.00000000000E+00  0.74505805969E-08  0.10566000000E+00  0.10566000000E+00 0. -1.
     999900   -1    0    0    0    0 -0.00000000000E+00 -0.00000000000E+00 -0.74505805969E-08  0.93827000000E+00  0.93827000000E+00 0. -1.
     999902    2    1    2    0    0 -0.60331027541E-03 -0.76119836299E-02 -0.11126625365E-01  0.10304352577E+01  0.10303468893E+01 0.  0.
     999903    2    3    3    0    0  0.12494208841E+00 -0.97209524273E-03 -0.53966093382E-01  0.14046842950E+00  0.34750108288E-01 0.  0.
         14    1    1    2    0    0  0.60331027541E-03  0.76119836299E-02  0.11126625365E-01  0.13494742312E-01  0.00000000000E+00 0. -1.
     999901    1    3    3    0    0 -0.12554539869E+00 -0.66398883872E-02  0.42839468017E-01  0.88996682818E+00  0.88000000000E+00 0.  1.
        -11    1    4    4    0    0  0.54301090235E-01 -0.16606787788E-01 -0.17343851785E-01  0.59375618877E-01  0.51100000000E-03 0. -1.
         11    1    4    4    0    0  0.70640998178E-01  0.15634692545E-01 -0.36622241597E-01  0.81092810626E-01  0.51100000000E-03 0.  1.
</event>
<event>
 7    1  0.2837913E+004  0.1043930E+01  0.7957747E-01            NaN
         13   -1    0    0    0    0  0.00000000000E+00  0.00000000000E+00  0.74505805969E-08  0.10566000000E+00  0.10566000000E+00 0. -1.
     999900   -1    0    0    0    0 -0.00000000000E+00 -0.00000000000E+00 -0.74505805969E-08  0.93827000000E+00  0.93827000000E+00 0.  1.
     999903    2    1    2    0    0  0.13493892717E-01 -0.61894481073E-01 -0.64961393077E-03  0.77961812629E-01  0.45437983034E-01 0.  0.
         14    1    1    2    0    0 -0.52788151273E-03 -0.73505790092E-01 -0.16567843276E-01  0.75351663995E-01  0.00000000000E+00 0. -1.
     999901    1    1    2    0    0 -0.12966011204E-01  0.13540027116E+00  0.17217457207E-01  0.89061652338E+00  0.88000000000E+00 0. -1.
        -11    1    3    3    0    0 -0.56608933235E-02 -0.25327572843E-01 -0.19610502308E-01  0.32532515752E-01  0.51100000000E-03 0. -1.
         11    1    3    3    0    0  0.19154786040E-01 -0.36566908230E-01  0.18960888377E-01  0.45429296877E-01  0.51100000000E-03 0.  1.
</event>
<event>
 8    1  0.2837913E+004  0.1043930E+01  0.7957747E-01            NaN
         13   -1    0    0    0    0  0.00000000000E+00  0.00000000000E+00  0.74505805969E-08  0.10566000000E+00  0.10566000000E+00 0.  1.
     999900   -1    0    0    0    0 -0.00000000000E+00 -0.00000000000E+00 -0.74505805969E-08  0.93827000000E+00  0.93827000000E+00 0. -1.
     999902    2    1    2    0    0  0.13732507058E-01 -0.27890950081E-02 -0.92490134866E-02  0.10271399717E+01  0.10270027343E+01 0.  0.
     999903    2    3    3    0    0 -0.13582405065E-01 -0.10742773171E+00 -0.73234950706E-01  0.13821390675E+00  0.44883479674E-01 0.  0.
         14    1    1    2    0    0 -0.13732507058E-01  0.27890950081E-02  0.92490134866E-02  0.16790028336E-01  0.00000000000E+00 0.  1.
     999901    1    3    3    0    0  0.27314912123E-01  0.10463863670E+00  0.63985937220E-01  0.88892606491E+00  0.88000000000E+00 0.  1.
        -11    1    4    4    0    0 -0.67229724627E-02 -0.55241856127E-02  0.45486668345E-02  0.98319111260E-02  0.51100000000E-03 0.  1.
         11    1    4    4    0    0 -0.68594326023E-02 -0.10190354610E+00 -0.77783617541E-01  0.12838199563E+00  0.51100000000E-03 0. -1.
</event>
<event>
 7    1  0.2837913E+004  0.1043930E+01  0.7957747E-01            NaN
         13   -1    0    0    0    0  0.00000000000E+00  0.00000000000E+00  0.74505805969E-08  0.10566000000E+00  0.10566000000E+00 0.  1.
     999900   -1    0    0    0    0 -0.00000000000E+00 -0.00000000000E+00 -0.74505805969E-08  0.93827000000E+00  0.93827000000E+00 0.  1.
     999902    2    1    2    0    0  0.10371021824E-01  0.53412000507E-02  0.10001544115E-01  0.10285638881E+01  0.10284491015E+01 0.  0.
         14    1    1    2    0    0 -0.10371021824E-01 -0.53412000507E-02 -0.10001544115E-01  0.15366111946E-01  0.00000000000E+00 0. -1.
     999901    1    3    3    0    0 -0.33504453002E-02 -0.11625207287E-01  0.12914573410E+00  0.88950828639E+00  0.88000000000E+00 0. -1.
        -11    1    3    3    0    0 -0.31134012048E-02 -0.32458850508E-02 -0.11159126464E+00  0.11168303588E+00  0.51100000000E-03 0.  1.
         11    1    3    3    0    0  0.16834868329E-01  0.20212292388E-01 -0.75529253424E-02  0.27372565782E-01  0.51100000000E-03 0. -1.
</event>
<event>
 7    1  0.2837913E+004  0.1043930E+01  0.7957747E-01            NaN
         13   -1    0    0    0    0  0.00000000000E+00  0.00000000000E+00  0.74505805969E-08  0.10566000000E+00  0.10566000000E+00 0.  1.
     999900   -1    0    0    0    0 -0.00000000000E+00 -0.00000000000E+00 -0.74505805969E-08  0.93827000000E+00  0.93827000000E+00 0.  1.
     999902    2    1    2    0    0  0.44268808705E-02  0.91256476161E-02 -0.79747980224E-02  0.10310275924E+01  0.10309468581E+01 0.  0.
         14    1    1    2    0    0 -0.44268808705E-02 -0.91256476161E-02  0.79747980224E-02  0.12902407611E-01  0.00000000000E+00 0. -1.
     999901    1    3    3    0    0 -0.92916892382E-01  0.99456036111E-01 -0.43892842378E-01  0.89154452139E+00  0.88000000000E+00 0.  1.
        -11    1    3    3    0    0  0.20116202020E-01 -0.93054190720E-02  0.11254984589E-01  0.24863390897E-01  0.51100000000E-03 0. -1.
         11    1    3    3    0    0  0.77227571233E-01 -0.81024969423E-01  0.24663059766E-01  0.11461968010E+00  0.51100000000E-03 0.  1.
</event>
<event>
 8    1  0.2837913E+004  0.1043930E+01  0.7957747E-01            NaN
         13   -1    0    0    0    0  0.00000000000E+00  0.00000000000E+00  0.74505805969E-08  0.10566000000E+00  0.10566000000E+00 0.  1.
     999900   -1    0    0    0    0 -0.00000000000E+00 -0.00000000000E+00 -0.74505805969E-08  0.93827000000E+00  0.93827000000E+00 0. -1.
     999902    2    1    2    0    0  0.61580559082E-02 -0.10381338449E-01 -0.77348832388E-02  0.10295939525E+01  0.10294941402E+01 0.  0.
     999903    2    3    3    0    0  0.28425660599E-01  0.25262314301E-01 -0.12383750291E+00  0.14097359792E+00  0.55602387341E-01 0.  0.
         14    1    1    2    0    0 -0.61580559082E-02  0.10381338449E-01  0.77348832388E-02  0.14336047547E-01  0.00000000000E+00 0.  1.
     999901    1    3    3    0    0 -0.22267604691E-01 -0.35643652750E-01  0.11610261967E+00  0.88862035454E+00  0.88000000000E+00 0.  1.
        -11    1    4    4    0    0  0.30414403959E-01 -0.27634597793E-02 -0.98532997644E-01  0.10315854508E+00  0.51100000000E-03 0. -1.
         11    1    4    4    0    0 -0.19887433596E-02  0.28025774080E-01 -0.25304505268E-01  0.37815052834E-01  0.51100000000E-03 0.  1.
</event>
<event>
 8    1  0.2837913E+004  0.1043930E+01  0.7957747E-01            NaN
         13   -1    0    0    0    0  0.00000000000E+00  0.00000000000E+00  0.74505805969E-08  0.10566000000E+00  0.10566000000E+00 0. -1.
     999900   -1    0    0    0    0 -0.00000000000E+00 -0.00000000000E+00 -0.74505805969E-08  0.93827000000E+00  0.93827000000E+00 0. -1.
     999902    2    1    2    0    0  0.12159460677E-01  0.67231792556E-02  0.22927656097E-02  0.10298477275E+01  0.10297514416E+01 0.  0.
     999903    2    3    3    0    0  0.21041949674E-01 -0.27659924351E-01 -0.12758237006E+00  0.13960694704E+00  0.44777264874E-01 0.  0.
         14    1    1    2    0    0 -0.12159460677E-01 -0.67231792556E-02 -0.22927656097E-02  0.14082272451E-01  0.00000000000E+00 0.  1.
     999901    1    3    3    0    0 -0.88824889974E-02  0.34383103606E-01  0.12987513567E+00  0.89024078051E+00  0.88000000000E+00 0.  1.
        -11    1    4    4    0    0  0.20030507233E-01  0.29119173546E-02 -0.83693361989E-01  0.86107725814E-01  0.51100000000E-03 0. -1.
         11    1    4    4    0    0  0.10114424416E-02 -0.30571841705E-01 -0.43889008069E-01  0.53499221222E-01  0.51100000000E-03 0.  1.
</event>
<event>
 8    1  0.2837913E+004  0.1043930E+01  0.7957747E-01            NaN
         13   -1    0    0    0    0  0.00000000000E+00  0.00000000000E+00  0.74505805969E-08  0.10566000000E+00  0.10566000000E+00 0. -1.
     999900   -1    0    0    0    0 -0.00000000000E+00 -0.00000000000E+00 -0.74505805969E-08  0.93827000000E+00  0.93827000000E+00 0. -1.
     999902    2    1    2    0    0 -0.12014080011E-01 -0.63905480767E-02  0.32692357163E-02  0.10299348178E+01  0.10298397272E+01 0.  0.
     999903    2    3    3    0    0 -0.94956017968E-02 -0.60723887824E-01 -0.11750627212E+00  0.14002180078E+00  0.44953572713E-01 0.  0.
         14    1    1    2    0    0  0.12014080011E-01  0.63905480767E-02 -0.32692357163E-02  0.13995182221E-01  0.00000000000E+00 0.  1.
     999901    1    3    3    0    0 -0.25184782142E-02  0.54333339747E-01  0.12077550783E+00  0.88991301700E+00  0.88000000000E+00 0.  1.
        -11    1    4    4    0    0 -0.87958663558E-02 -0.85612335510E-02 -0.64459834333E-01  0.65620068181E-01  0.51100000000E-03 0.  1.
         11    1    4    4    0    0 -0.69973544092E-03 -0.52162654273E-01 -0.53046437783E-01  0.74401732594E-01  0.51100000000E-03 0. -1.
</event>
<event>
 8    1  0.2837913E+004  0.1043930E+01  0.7957747E-01            NaN
         13   -1    0    0    0    0  0.00000000000E+00  0.00000000000E+00  0.74505805969E-08  0.10566000000E+00  0.10566000000E+00 0.  1.
     999900   -1    0    0    0    0 -0.00000000000E+00 -0.00000000000E+00 -0.74505805969E-08  0.93827000000E+00  0.93827000000E+00 0.  1.
     999902    2    1    2    0    0  0.71838006364E-02 -0.60638137929E-02 -0.10661744799E-01  0.10297155837E+01  0.10296174696E+01 0.  0.
     999903    2    3    3    0    0  0.12962688974E-01 -0.13074374172E+00  0.20330175980E-01  0.14036808178E+00  0.45032488510E-01 0.  0.
         14    1    1    2    0    0 -0.71838006364E-02  0.60638137929E-02  0.10661744799E-01  0.14214416325E-01  0.00000000000E+00 0. -1.
     999901    1    3    3    0    0 -0.57788883371E-02  0.12467992793E+00 -0.30991920779E-01  0.88934750190E+00  0.88000000000E+00 0. -1.
        -11    1    4    4    0    0  0.11125697679E-01 -0.61720286553E-02 -0.41638928768E-02  0.13396798553E-01  0.51100000000E-03 0.  1.
         11    1    4    4    0    0  0.18369912941E-02 -0.12457171307E+00  0.24494068857E-01  0.12697128322E+00  0.51100000000E-03 0. -1.
</event>
<event>
 8    1  0.2837913E+004  0.1043930E+01  0.7957747E-01            NaN
         13   -1    0    0    0    0  0.00000000000E+00  0.00000000000E+00  0.74505805969E-08  0.10566000000E+00  0.10566000000E+00 0. -1.
     999900   -1    0    0    0    0 -0.00000000000E+00 -0.00000000000E+00 -0.74505805969E-08  0.93827000000E+00  0.93827000000E+00 0. -1.
     999902    2    1    2    0    0  0.17432075642E-02 -0.66677816444E-02 -0.11638016380E-01  0.10304044128E+01  0.10303156372E+01 0.  0.
     999903    2    3    3    0    0  0.12675357627E+00  0.37320547445E-01 -0.15518555615E-01  0.14047316601E+00  0.45084281530E-01 0.  0.
         14    1    1    2    0    0 -0.17432075642E-02  0.66677816444E-02  0.11638016380E-01  0.13525587230E-01  0.00000000000E+00 0. -1.
     999901    1    3    3    0    0 -0.12501036870E+00 -0.43988329089E-01  0.38805392357E-02  0.88993124676E+00  0.88000000000E+00 0. -1.
        -11    1    4    4    0    0  0.91907589104E-01  0.10158678801E-01  0.31128486457E-02  0.92521103742E-01  0.51100000000E-03 0.  1.
         11    1    4    4    0    0  0.34845987165E-01  0.27161868644E-01 -0.18631404261E-01  0.47952062265E-01  0.51100000000E-03 0. -1.
</event>
<event>
 8    1  0.2837913E+004  0.1043930E+01  0.7957747E-01            NaN
         13   -1    0    0    0    0  0.00000000000E+00  0.00000000000E+00  0.74505805969E-08  0.10566000000E+00  0.10566000000E+00 0.  1.
     999900   -1    0    0    0    0 -0.00000000000E+00 -0.00000000000E+00 -0.74505805969E-08  0.93827000000E+00  0.93827000000E+00 0. -1.
     999902    2    1    2    0    0  0.93335999803E-02 -0.99305022667E-02 -0.25280501192E-02  0.10300691919E+01  0.10299759308E+01 0.  0.
     999903    2    3    3    0    0 -0.43692888666E-01  0.42972545285E-01  0.11616187558E+00  0.13894751704E+00  0.45355517685E-01 0.  0.
         14    1    1    2    0    0 -0.93335999803E-02  0.99305022667E-02  0.25280501192E-02  0.13860808103E-01  0.00000000000E+00 0.  1.
     999901    1    3    3    0    0  0.53026488646E-01 -0.52903047551E-01 -0.11868992570E+00  0.89112167486E+00  0.88000000000E+00 0.  1.
        -11    1    4    4    0    0 -0.31343764020E-01  0.38352520881E-01  0.46143218108E-01  0.67696418659E-01  0.51100000000E-03 0.  1.
         11    1    4    4    0    0 -0.12349124646E-01  0.46200244038E-02  0.70018657474E-01  0.71251098380E-01  0.51100000000E-03 0. -1.
</event>
<event>
 8    1  0.2837913E+004  0.1043930E+01  0.7957747E-01            NaN
         13   -1    0    0    0    0  0.00000000000E+00  0.00000000000E+00  0.74505805969E-08  0.10566000000E+00  0.10566000000E+00 0.  1.
     999900   -1    0    0    0    0 -0.00000000000E+00 -0.00000000000E+00 -0.74505805969E-08  0.93827000000E+00  0.93827000000E+00 0. -1.
     999902    2    1    2    0    0 -0.56152000797E-02 -0.11861891844E-01  0.33972749701E-02  0.10303735835E+01  0.10302844002E+01 0.  0.
     999903    2    3    3    0    0 -0.10791706513E+00  0.74478265217E-01  0.19658153251E-01  0.14010131593E+00  0.45264012190E-01 0.  0.
         14    1    1    2    0    0  0.56152000797E-02  0.11861891844E-01 -0.33972749701E-02  0.13556416461E-01  0.00000000000E+00 0. -1.
     999901    1    3    3    0    0  0.10230186505E+00 -0.86340157061E-01 -0.16260878281E-01  0.89027226761E+00  0.88000000000E+00 0.  1.
        -11    1    4    4    0    0 -0.66214156276E-01  0.69254839043E-01  0.64086800927E-02  0.96030617638E-01  0.51100000000E-03 0.  1.
         11    1    4    4    0    0 -0.41702908854E-01  0.52234261734E-02  0.13249473158E-01  0.44070698290E-01  0.51100000000E-03 0. -1.
</event>
<event>
 8    1  0.2837913E+004  0.1043930E+01  0.7957747E-01            NaN
         13   -1    0    0    0    0  0.00000000000E+00  0.00000000000E+00  0.74505805969E-08  0.10566000000E+00  0.10566000000E+00 0.  1.
     999900   -1    0    0    0    0 -0.00000000000E+00 -0.00000000000E+00 -0.74505805969E-08  0.93827000000E+00  0.93827000000E+00 0. -1.
     999902    2    1    2    0    0  0.19543821260E-02  0.12644448633E-01 -0.22504374180E-02  0.10309389970E+01  0.10308571430E+01 0.  0.
     999903    2    3    3    0    0  0.46837656950E-02  0.69252291997E-01 -0.11543743913E+00  0.14188152144E+00  0.44572930877E-01 0.  0.
         14    1    1    2    0    0 -0.19543821260E-02 -0.12644448633E-01  0.22504374180E-02  0.12991003014E-01  0.00000000000E+00 0.  1.
     999901    1    3    3    0    0 -0.27293835690E-02 -0.56607843364E-01  0.11318700171E+00  0.88905747554E+00  0.88000000000E+00 0. -1.
        -11    1    4    4    0    0 -0.16190696467E-01  0.13539704564E-01 -0.44804344777E-01  0.49529311359E-01  0.51100000000E-03 0. -1.
         11    1    4    4    0    0  0.20874462162E-01  0.55712587433E-01 -0.70633094349E-01  0.92352210083E-01  0.51100000000E-03 0.  1.
</event>
<event>
 8    1  0.2837913E+004  0.1043930E+01  0.7957747E-01            NaN
         13   -1    0    0    0    0  0.00000000000E+00  0.00000000000E+00  0.74505805969E-08  0.10566000000E+00  0.10566000000E+00 0. -1.
     999900   -1    0    0    0    0 -0.00000000000E+00 -0.00000000000E+00 -0.74505805969E-08  0.93827000000E+00  0.93827000000E+00 0. -1.
     999902    2    1    2    0    0 -0.13932851233E-01  0.30806338614E-02 -0.25167244162E-02  0.10294403985E+01  0.10293384213E+01 0.  0.
     999903    2    3    3    0    0  0.11159273372E+00 -0.65540690039E-01 -0.14733229750E-01  0.13780437327E+00  0.44993965850E-01 0.  0.
         14    1    1    2    0    0  0.13932851233E-01 -0.30806338614E-02  0.25167244162E-02  0.14489601453E-01  0.00000000000E+00 0. -1.
     999901    1    3    3    0    0 -0.12552558495E+00  0.68621323900E-01  0.12216505334E-01  0.89163602528E+00  0.88000000000E+00 0.  1.
        -11    1    4    4    0    0  0.61434012381E-01 -0.44909449431E-01 -0.29457735748E-01  0.81602793101E-01  0.51100000000E-03 0. -1.
         11    1    4    4    0    0  0.50158721340E-01 -0.20631240608E-01  0.14724505998E-01  0.56201580168E-01  0.51100000000E-03 0.  1.
</event>
<event>
 8    1  0.2837913E+004  0.1043930E+01  0.7957747E-01            NaN
         13   -1    0    0    0    0  0.00000000000E+00  0.00000000000E+00  0.74505805969E-08  0.10566000000E+00  0.10566000000E+00 0.  1.
     999900   -1    0    0    0    0 -0.00000000000E+00 -0.00000000000E+00 -0.74505805969E-08  0.93827000000E+00  0.93827000000E+00 0. -1.
     999902    2    1    2    0    0 -0.14803632131E-01  0.99815087736E-03 -0.79397404277E-02  0.10271019488E+01  0.10269640840E+01 0.  0.
     999903    2    3    3    0    0 -0.25679968308E-01  0.10242373289E+00 -0.77635629542E-01  0.13847212691E+00  0.44689563946E-01 0.  0.
         14    1    1    2    0    0  0.14803632131E-01 -0.99815087736E-03  0.79397404277E-02  0.16828051209E-01  0.00000000000E+00 0.  1.
     999901    1    3    3    0    0  0.10876336177E-01 -0.10142558201E+00  0.69695889114E-01  0.88862982188E+00  0.88000000000E+00 0.  1.
        -11    1    4    4    0    0  0.99913791039E-02  0.43243575226E-01 -0.20885009784E-01  0.49053839905E-01  0.51100000000E-03 0.  1.
         11    1    4    4    0    0 -0.35671347412E-01  0.59180157662E-01 -0.56750619758E-01  0.89418287006E-01  0.51100000000E-03 0. -1.
</event>
<event>
 7    1  0.2837913E+004  0.1043930E+01  0.7957747E-01            NaN
         13   -1    0    0    0    0  0.00000000000E+00  0.00000000000E+00  0.74505805969E-08  0.10566000000E+00  0.10566000000E+00 0.  1.
     999900   -1    0    0    0    0 -0.00000000000E+00 -0.00000000000E+00 -0.74505805969E-08  0.93827000000E+00  0.93827000000E+00 0. -1.
     999902    2    1    2    0    0  0.64190930116E-02  0.10878872804E-01 -0.58096412515E-02  0.10300265271E+01  0.10299326871E+01 0.  0.
         14    1    1    2    0    0 -0.64190930116E-02 -0.10878872804E-01  0.58096412515E-02  0.13903472949E-01  0.00000000000E+00 0.  1.
     999901    1    3    3    0    0  0.10503528012E+00 -0.69758283010E-01 -0.77793644410E-02  0.88902145454E+00  0.88000000000E+00 0.  1.
        -11    1    3    3    0    0 -0.99370305921E-01  0.66462611260E-01 -0.13137961642E-01  0.12026888023E+00  0.51100000000E-03 0.  1.
         11    1    3    3    0    0  0.75411880840E-03  0.14174544553E-01  0.15107684831E-01  0.20736192284E-01  0.51100000000E-03 0. -1.
</event>
<event>
 8    1  0.2837913E+004  0.1043930E+01  0.7957747E-01            NaN
         13   -1    0    0    0    0  0.00000000000E+00  0.00000000000E+00  0.74505805969E-08  0.10566000000E+00  0.10566000000E+00 0.  1.
     999900   -1    0    0    0    0 -0.00000000000E+00 -0.00000000000E+00 -0.74505805969E-08  0.93827000000E+00  0.93827000000E+00 0. -1.
     999902    2    1    2    0    0 -0.12105766919E-02 -0.22912441170E-02 -0.12405824990E-01  0.10312564137E+01  0.10311785350E+01 0.  0.
     999903    2    3    3    0    0  0.10876636894E+00 -0.60293323177E-02  0.75859576950E-01  0.14002149348E+00  0.44551850266E-01 0.  0.
         14    1    1    2    0    0  0.12105766919E-02  0.22912441170E-02  0.12405824990E-01  0.12673586280E-01  0.00000000000E+00 0.  1.
     999901    1    3    3    0    0 -0.10997694563E+00  0.37380882007E-02 -0.88265401940E-01  0.89123492024E+00  0.88000000000E+00 0. -1.
        -11    1    4    4    0    0  0.31266140300E-01 -0.10526682568E-01  0.46513737025E-01  0.57027812759E-01  0.51100000000E-03 0.  1.
         11    1    4    4    0    0  0.77500228636E-01  0.44973502502E-02  0.29345839925E-01  0.82993680722E-01  0.51100000000E-03 0. -1.
</event>
<event>
 8    1  0.2837913E+004  0.1043930E+01  0.7957747E-01            NaN
         13   -1    0    0    0    0  0.00000000000E+00  0.00000000000E+00  0.74505805969E-08  0.10566000000E+00  0.10566000000E+00 0.  1.
     999900   -1    0    0    0    0 -0.00000000000E+00 -0.00000000000E+00 -0.74505805969E-08  0.93827000000E+00  0.93827000000E+00 0. -1.
     999902    2    1    2    0    0 -0.25404235609E-02 -0.10625066494E-01  0.90144525927E-02  0.10297664501E+01  0.10296690418E+01 0.  0.
     999903    2    3    3    0    0 -0.85698086820E-02 -0.12991606148E+00 -0.29449540490E-01  0.14086478303E+00  0.44988743178E-01 0.  0.
         14    1    1    2    0    0  0.25404235609E-02  0.10625066494E-01 -0.90144525927E-02  0.14163549888E-01  0.00000000000E+00 0.  1.
     999901    1    3    3    0    0  0.60293851212E-02  0.11929099499E+00  0.38463993083E-01  0.88890166708E+00  0.88000000000E+00 0.  1.
        -11    1    4    4    0    0  0.15772151982E-01 -0.82970310014E-01 -0.12800674156E-01  0.85422195604E-01  0.51100000000E-03 0. -1.
         11    1    4    4    0    0 -0.24341960664E-01 -0.46945751467E-01 -0.16648866334E-01  0.55442587431E-01  0.51100000000E-03 0.  1.
</event>
<event>
 8    1  0.2837913E+004  0.1043930E+01  0.7957747E-01            NaN
         13   -1    0    0    0    0  0.00000000000E+00  0.00000000000E+00  0.74505805969E-08  0.10566000000E+00  0.10566000000E+00 0. -1.
     999900   -1    0    0    0    0 -0.00000000000E+00 -0.00000000000E+00 -0.74505805969E-08  0.93827000000E+00  0.93827000000E+00 0.  1.
     999902    2    1    2    0    0 -0.10438474981E-01  0.10501957103E-01  0.43417614913E-03  0.10291164463E+01  0.10290098244E+01 0.  0.
     999903    2    3    3    0    0 -0.70389957525E-01  0.86742002007E-01  0.72644564378E-01  0.14084786935E+00  0.45628593393E-01 0.  0.
         14    1    1    2    0    0  0.10438474981E-01 -0.10501957103E-01 -0.43417614913E-03  0.14813553653E-01  0.00000000000E+00 0. -1.
     999901    1    3    3    0    0  0.59951482544E-01 -0.76240044904E-01 -0.72210388229E-01  0.88826857699E+00  0.88000000000E+00 0.  1.
        -11    1    4    4    0    0 -0.36069351998E-01  0.52169697704E-01  0.66242220333E-01  0.91711331839E-01  0.51100000000E-03 0.  1.
         11    1    4    4    0    0 -0.34320605527E-01  0.34572304303E-01  0.64023440452E-02  0.49136537514E-01  0.51100000000E-03 0. -1.
</event>
<event>
 8    1  0.2837913E+004  0.1043930E+01  0.7957747E-01            NaN
         13   -1    0    0    0    0  0.00000000000E+00  0.00000000000E+00  0.74505805969E-08  0.10566000000E+00  0.10566000000E+00 0. -1.
     999900   -1    0    0    0    0 -0.00000000000E+00 -0.00000000000E+00 -0.74505805969E-08  0.93827000000E+00  0.93827000000E+00 0.  1.
     999902    2    1    2    0    0  0.91065877570E-02 -0.94968611871E-02 -0.32283647461E-02  0.10303822086E+01  0.10302931394E+01 0.  0.
     999903    2    3    3    0    0 -0.67132587693E-01  0.56001555986E-01  0.98216028463E-01  0.13887033574E+00  0.44672399747E-01 0.  0.
         14    1    1    2    0    0 -0.91065877570E-02  0.94968611871E-02  0.32283647461E-02  0.13547791404E-01  0.00000000000E+00 0.  1.
     999901    1    3    3    0    0  0.76239175450E-01 -0.65498417173E-01 -0.10144439321E+00  0.89151187285E+00  0.88000000000E+00 0.  1.
        -11    1    4    4    0    0 -0.45162877519E-02  0.15247114859E-01  0.57017847037E-03  0.15920351475E-01  0.51100000000E-03 0. -1.
         11    1    4    4    0    0 -0.62616299941E-01  0.40754441127E-01  0.97645849992E-01  0.12294998427E+00  0.51100000000E-03 0.  1.
</event>
<event>
 8    1  0.2837913E+004  0.1043930E+01  0.7957747E-01            NaN
         13   -1    0    0    0    0  0.00000000000E+00  0.00000000000E+00  0.74505805969E-08  0.10566000000E+00  0.10566000000E+00 0.  1.
     999900   -1    0    0    0    0 -0.00000000000E+00 -0.00000000000E+00 -0.74505805969E-08  0.93827000000E+00  0.93827000000E+00 0. -1.
     999902    2    1    2    0    0 -0.72293633360E-02  0.43418062480E-02  0.59045292235E-02  0.10336354169E+01  0.10335841507E+01 0.  0.
     999903    2    3    3    0    0 -0.32073687465E-01 -0.60511592966E-01 -0.11643651470E+00  0.14246173301E+00  0.45249410023E-01 0.  0.
         14    1    1    2    0    0  0.72293633360E-02 -0.43418062480E-02 -0.59045292235E-02  0.10294583095E-01  0.00000000000E+00 0. -1.
     999901    1    3    3    0    0  0.24844324129E-01  0.64853399214E-01  0.12234104392E+00  0.89117368389E+00  0.88000000000E+00 0.  1.
        -11    1    4    4    0    0  0.10272723802E-01 -0.99479844838E-02 -0.10807128050E-01  0.17931714566E-01  0.51100000000E-03 0. -1.
         11    1    4    4    0    0 -0.42346411267E-01 -0.50563608482E-01 -0.10562938665E+00  0.12453001845E+00  0.51100000000E-03 0.  1.
</event>
<event>
 8    1  0.2837913E+004  0.1043930E+01  0.7957747E-01            NaN
         13   -1    0    0    0    0  0.00000000000E+00  0.00000000000E+00  0.74505805969E-08  0.10566000000E+00  0.10566000000E+00 0.  1.
     999900   -1    0    0    0    0 -0.00000000000E+00 -0.00000000000E+00 -0.74505805969E-08  0.93827000000E+00  0.93827000000E+00 0.  1.
     999902    2    1    2    0    0  0.60086874751E-02 -0.12556697031E-01  0.21820214773E-02  0.10298397132E+01  0.10297433169E+01 0.  0.
     999903    2    3    3    0    0 -0.10237401632E+00 -0.52738243969E-01 -0.66886784819E-01  0.13959712420E+00  0.41853954495E-01 0.  0.
         14    1    1    2    0    0 -0.60086874751E-02  0.12556697031E-01 -0.21820214773E-02  0.14090286840E-01  0.00000000000E+00 0.  1.
     999901    1    3    3    0    0  0.10838270380E+00  0.40181546938E-01  0.69068806296E-01  0.89024258896E+00  0.88000000000E+00 0. -1.
        -11    1    4    4    0    0 -0.52796931777E-01 -0.50047650145E-01 -0.36619626328E-01  0.81446555750E-01  0.51100000000E-03 0.  1.
         11    1    4    4    0    0 -0.49577084543E-01 -0.26905938242E-02 -0.30267158491E-01  0.58150568450E-01  0.51100000000E-03 0. -1.
</event>
<event>
 8    1  0.2837913E+004  0.1043930E+01  0.7957747E-01            NaN
         13   -1    0    0    0    0  0.00000000000E+00  0.00000000000E+00  0.74505805969E-08  0.10566000000E+00  0.10566000000E+00 0.  1.
     999900   -1    0    0    0    0 -0.00000000000E+00 -0.00000000000E+00 -0.74505805969E-08  0.93827000000E+00  0.93827000000E+00 0. -1.
     999902    2    1    2    0    0  0.23056580730E-02  0.11213918426E-01 -0.78376547186E-02  0.10300556763E+01  0.10299622321E+01 0.  0.
     999903    2    3    3    0    0 -0.10874609773E-01  0.95040813450E-01  0.92364866775E-01  0.14031345912E+00  0.44783756386E-01 0.  0.
         14    1    1    2    0    0 -0.23056580730E-02 -0.11213918426E-01  0.78376547186E-02  0.13874323663E-01  0.00000000000E+00 0.  1.
     999901    1    3    3    0    0  0.13180267846E-01 -0.83826895023E-01 -0.10020252149E+00  0.88974221722E+00  0.88000000000E+00 0. -1.
        -11    1    4    4    0    0 -0.82554328693E-02  0.87688852267E-01  0.58925321578E-01  0.10597141892E+00  0.51100000000E-03 0.  1.
         11    1    4    4    0    0 -0.26191769035E-02  0.73519611821E-02  0.33439545197E-01  0.34342040197E-01  0.51100000000E-03 0. -1.
</event>
<event>
 8    1  0.2837913E+004  0.1043930E+01  0.7957747E-01            NaN
         13   -1    0    0    0    0  0.00000000000E+00  0.00000000000E+00  0.74505805969E-08  0.10566000000E+00  0.10566000000E+00 0.  1.
     999900   -1    0    0    0    0 -0.00000000000E+00 -0.00000000000E+00 -0.74505805969E-08  0.93827000000E+00  0.93827000000E+00 0.  1.
     999902    2    1    2    0    0  0.10015979648E-02  0.12944419304E-01 -0.22165132972E-02  0.10307590425E+01  0.10306748904E+01 0.  0.
     999903    2    3    3    0    0  0.35805289252E-01  0.12962733908E+00  0.10624980254E-01  0.14228219722E+00  0.45233479449E-01 0.  0.
         14    1    1    2    0    0 -0.10015979648E-02 -0.12944419304E-01  0.22165132972E-02  0.13170957474E-01  0.00000000000E+00 0. -1.
     999901    1    3    3    0    0 -0.34803691287E-01 -0.11668291978E+00 -0.12841493551E-01  0.88847684531E+00  0.88000000000E+00 0. -1.
        -11    1    4    4    0    0  0.20386099636E-03  0.83210483479E-01  0.96915109867E-02  0.83774773210E-01  0.51100000000E-03 0.  1.
         11    1    4    4    0    0  0.35601428256E-01  0.46416855604E-01  0.93346926744E-03  0.58507424006E-01  0.51100000000E-03 0. -1.
</event>
<event>
 8    1  0.2837913E+004  0.1043930E+01  0.7957747E-01            NaN
         13   -1    0    0    0    0  0.00000000000E+00  0.00000000000E+00  0.74505805969E-08  0.10566000000E+00  0.10566000000E+00 0.  1.
     999900   -1    0    0    0    0 -0.00000000000E+00 -0.00000000000E+00 -0.74505805969E-08  0.93827000000E+00  0.93827000000E+00 0. -1.
     999902    2    1    2    0    0 -0.93554250353E-03 -0.99154980202E-02  0.97149437951E-02  0.10300169675E+01  0.10299229975E+01 0.  0.
     999903    2    3    3    0    0  0.14172896582E-01 -0.52049350415E-01 -0.12023194851E+00  0.13934883554E+00  0.45303097539E-01 0.  0.
         14    1    1    2    0    0  0.93554250353E-03  0.99154980202E-02 -0.97149437951E-02  0.13913032513E-01  0.00000000000E+00 0. -1.
     999901    1    3    3    0    0 -0.15108439086E-01  0.42133852395E-01  0.12994689231E+00  0.89066813195E+00  0.88000000000E+00 0.  1.
        -11    1    4    4    0    0  0.24524182928E-02 -0.36096199056E-01 -0.11235467394E+00  0.11803721370E+00  0.51100000000E-03 0. -1.
         11    1    4    4    0    0  0.11720478290E-01 -0.15953151359E-01 -0.78772745757E-02  0.21311621838E-01  0.51100000000E-03 0.  1.
</event>
<event>
 8    1  0.2837913E+004  0.1043930E+01  0.7957747E-01            NaN
         13   -1    0    0    0    0  0.00000000000E+00  0.00000000000E+00  0.74505805969E-08  0.10566000000E+00  0.10566000000E+00 0. -1.
     999900   -1    0    0    0    0 -0.00000000000E+00 -0.00000000000E+00 -0.74505805969E-08  0.93827000000E+00  0.93827000000E+00 0. -1.
     999902    2    1    2    0    0  0.13336767419E-01  0.26026115659E-02  0.33726232333E-02  0.10299293736E+01  0.10298342085E+01 0.  0.
     999903    2    3    3    0    0 -0.12454688465E+00  0.37234638081E-01 -0.16761297941E-01  0.13829230979E+00  0.44107562735E-01 0.  0.
         14    1    1    2    0    0 -0.13336767419E-01 -0.26026115659E-02 -0.33726232333E-02  0.14000626401E-01  0.00000000000E+00 0. -1.
     999901    1    3    3    0    0  0.13788365207E+00 -0.34632026515E-01  0.20133921174E-01  0.89163706380E+00  0.88000000000E+00 0.  1.
        -11    1    4    4    0    0 -0.46906966806E-01  0.79288557532E-02  0.14306049805E-01  0.49679517616E-01  0.51100000000E-03 0. -1.
         11    1    4    4    0    0 -0.77639917844E-01  0.29305782328E-01 -0.31067347746E-01  0.88612792178E-01  0.51100000000E-03 0.  1.
</event>
<event>
 8    1  0.2837913E+004  0.1043930E+01  0.7957747E-01            NaN
         13   -1    0    0    0    0  0.00000000000E+00  0.00000000000E+00  0.74505805969E-08  0.10566000000E+00  0.10566000000E+00 0. -1.
     999900   -1    0    0    0    0 -0.00000000000E+00 -0.00000000000E+00 -0.74505805969E-08  0.93827000000E+00  0.93827000000E+00 0. -1.
     999902    2    1    2    0    0  0.14884207081E-01 -0.44156426356E-03 -0.54570305318E-03  0.10290292486E+01  0.10289213586E+01 0.  0.
     999903    2    3    3    0    0 -0.96365072110E-01 -0.83931705911E-01 -0.25698671107E-01  0.13774945100E+00  0.44539097139E-01 0.  0.
         14    1    1    2    0    0 -0.14884207081E-01  0.44156426356E-03  0.54570305318E-03  0.14900751365E-01  0.00000000000E+00 0.  1.
     999901    1    3    3    0    0  0.11124927919E+00  0.83490141647E-01  0.25152968054E-01  0.89127979764E+00  0.88000000000E+00 0.  1.
        -11    1    4    4    0    0 -0.79115971368E-01 -0.84307327787E-01 -0.13052044290E-01  0.11635153383E+00  0.51100000000E-03 0. -1.
         11    1    4    4    0    0 -0.17249100742E-01  0.37562187628E-03 -0.12646626817E-01  0.21397917166E-01  0.51100000000E-03 0.  1.
</event>
<event>
 8    1  0.2837913E+004  0.1043930E+01  0.7957747E-01            NaN
         13   -1    0    0    0    0  0.00000000000E+00  0.00000000000E+00  0.74505805969E-08  0.10566000000E+00  0.10566000000E+00 0.  1.
     999900   -1    0    0    0    0 -0.00000000000E+00 -0.00000000000E+00 -0.74505805969E-08  0.93827000000E+00  0.93827000000E+00 0. -1.
     999902    2    1    2    0    0  0.60923609537E-02 -0.80136087579E-02  0.95615923253E-02  0.10300462384E+01  0.10299526661E+01 0.  0.
     999903    2    3    3    0    0  0.10454648057E-01 -0.36714164467E-01 -0.12626833868E+00  0.13915201262E+00  0.44298529577E-01 0.  0.
         14    1    1    2    0    0 -0.60923609537E-02  0.80136087579E-02 -0.95615923253E-02  0.13883761562E-01  0.00000000000E+00 0. -1.
     999901    1    3    3    0    0 -0.43622871034E-02  0.28700555709E-01  0.13582993101E+00  0.89089422582E+00  0.88000000000E+00 0.  1.
        -11    1    4    4    0    0  0.22926977238E-01 -0.39492997916E-01 -0.10014293517E+00  0.11006457993E+00  0.51100000000E-03 0.  1.
         11    1    4    4    0    0 -0.12472329181E-01  0.27788334492E-02 -0.26125403511E-01  0.29087432684E-01  0.51100000000E-03 0. -1.
</event>
<event>
 8    1  0.2837913E+004  0.1043930E+01  0.7957747E-01            NaN
         13   -1    0    0    0    0  0.00000000000E+00  0.00000000000E+00  0.74505805969E-08  0.10566000000E+00  0.10566000000E+00 0.  1.
     999900   -1    0    0    0    0 -0.00000000000E+00 -0.00000000000E+00 -0.74505805969E-08  0.93827000000E+00  0.93827000000E+00 0.  1.
     999902    2    1    2    0    0 -0.53535557878E-02 -0.11122941597E-01  0.45260236850E-02  0.10307821759E+01  0.10306983209E+01 0.  0.
     999903    2    3    3    0    0  0.13012086876E+00  0.13963346024E-01  0.20934391483E-01  0.13991076198E+00  0.44837005363E-01 0.  0.
         14    1    1    2    0    0  0.53535557878E-02  0.11122941597E-01 -0.45260236850E-02  0.13147824144E-01  0.00000000000E+00 0. -1.
     999901    1    3    3    0    0 -0.13547442455E+00 -0.25086287621E-01 -0.16408367798E-01  0.89087141388E+00  0.88000000000E+00 0. -1.
        -11    1    4    4    0    0  0.11658728783E+00  0.13104394094E-01  0.32867978066E-01  0.12183959098E+00  0.51100000000E-03 0.  1.
         11    1    4    4    0    0  0.13533580938E-01  0.85895192992E-03 -0.11933586583E-01  0.18071170996E-01  0.51100000000E-03 0. -1.
</event>
<event>
 8    1  0.2837913E+004  0.1043930E+01  0.7957747E-01            NaN
         13   -1    0    0    0    0  0.00000000000E+00  0.00000000000E+00  0.74505805969E-08  0.10566000000E+00  0.10566000000E+00 0.  1.
     999900   -1    0    0    0    0 -0.00000000000E+00 -0.00000000000E+00 -0.74505805969E-08  0.93827000000E+00  0.93827000000E+00 0. -1.
     999902    2    1    2    0    0  0.37080469725E-02 -0.10203703168E-01  0.77943596555E-02  0.10305652249E+01  0.10304785614E+01 0.  0.
     999903    2    3    3    0    0  0.13460493014E-01 -0.13651504281E+00 -0.24797582630E-02  0.14143350114E+00  0.34347405372E-01 0.  0.
         14    1    1    2    0    0 -0.37080469725E-02  0.10203703168E-01 -0.77943596555E-02  0.13364775087E-01  0.00000000000E+00 0. -1.
     999901    1    3    3    0    0 -0.97524460417E-02  0.12631133965E+00  0.10274117919E-01  0.88913172378E+00  0.88000000000E+00 0.  1.
        -11    1    4    4    0    0  0.72299045658E-03 -0.79721464691E-01  0.13983459619E-01  0.80943393254E-01  0.51100000000E-03 0.  1.
         11    1    4    4    0    0  0.12737502558E-01 -0.56793578124E-01 -0.16463217882E-01  0.60490107882E-01  0.51100000000E-03 0. -1.
</event>
<event>
 8    1  0.2837913E+004  0.1043930E+01  0.7957747E-01            NaN
         13   -1    0    0    0    0  0.00000000000E+00  0.00000000000E+00  0.74505805969E-08  0.10566000000E+00  0.10566000000E+00 0.  1.
     999900   -1    0    0    0    0 -0.00000000000E+00 -0.00000000000E+00 -0.74505805969E-08  0.93827000000E+00  0.93827000000E+00 0.  1.
     999902    2    1    2    0    0 -0.89720750941E-02 -0.97616058643E-02  0.67363026088E-02  0.10290583877E+01  0.10289509222E+01 0.  0.
     999903    2    3    3    0    0  0.12698182202E+00 -0.10268749691E-01 -0.27601941331E-01  0.13795635404E+00  0.45169216400E-01 0.  0.
         14    1    1    2    0    0  0.89720750941E-02  0.97616058643E-02 -0.67363026088E-02  0.14871612333E-01  0.00000000000E+00 0.  1.
     999901    1    3    3    0    0 -0.13595389712E+00  0.50714382682E-03  0.34338243939E-01  0.89110203363E+00  0.88000000000E+00 0. -1.
        -11    1    4    4    0    0  0.57914302641E-01  0.14555607409E-01 -0.50707634456E-03  0.59719765613E-01  0.51100000000E-03 0.  1.
         11    1    4    4    0    0  0.69067519383E-01 -0.24824357100E-01 -0.27094864986E-01  0.78236588428E-01  0.51100000000E-03 0. -1.
</event>
<event>
 8    1  0.2837913E+004  0.1043930E+01  0.7957747E-01            NaN
         13   -1    0    0    0    0  0.00000000000E+00  0.00000000000E+00  0.74505805969E-08  0.10566000000E+00  0.10566000000E+00 0.  1.
     999900   -1    0    0    0    0 -0.00000000000E+00 -0.00000000000E+00 -0.74505805969E-08  0.93827000000E+00  0.93827000000E+00 0.  1.
     999902    2    1    2    0    0  0.11250251665E-01 -0.85247874227E-02 -0.14265819556E-02  0.10297428474E+01  0.10296451119E+01 0.  0.
     999903    2    3    3    0    0  0.26405561076E-01  0.12814417938E+00 -0.24506130451E-02  0.13906381512E+00  0.47059056584E-01 0.  0.
         14    1    1    2    0    0 -0.11250251665E-01  0.85247874227E-02  0.14265819556E-02  0.14187152611E-01  0.00000000000E+00 0. -1.
     999901    1    3    3    0    0 -0.15155309410E-01 -0.13666896680E+00  0.10240310894E-02  0.89067903227E+00  0.88000000000E+00 0.  1.
        -11    1    4    4    0    0  0.18363162320E-01  0.34334297594E-01  0.17703984182E-01  0.42775482447E-01  0.51100000000E-03 0. -1.
         11    1    4    4    0    0  0.80423987553E-02  0.93809881783E-01 -0.20154597227E-01  0.96288332670E-01  0.51100000000E-03 0.  1.
</event>
<event>
 8    1  0.2837913E+004  0.1043930E+01  0.7957747E-01            NaN
         13   -1    0    0    0    0  0.00000000000E+00  0.00000000000E+00  0.74505805969E-08  0.10566000000E+00  0.10566000000E+00 0. -1.
     999900   -1    0    0    0    0 -0.00000000000E+00 -0.00000000000E+00 -0.74505805969E-08  0.93827000000E+00  0.93827000000E+00 0. -1.
     999902    2    1    2    0    0 -0.10050215547E-01 -0.84787516886E-02 -0.40884132109E-02  0.10301600623E+01  0.10300680282E+01 0.  0.
     999903    2    3    3    0    0 -0.12789396983E+00  0.93772185625E-02  0.37249990302E-01  0.14116352138E+00  0.45768747449E-01 0.  0.
         14    1    1    2    0    0  0.10050215547E-01  0.84787516886E-02  0.40884132109E-02  0.13769937739E-01  0.00000000000E+00 0.  1.
     999901    1    3    3    0    0  0.11784375428E+00 -0.17855970251E-01 -0.41338403513E-01  0.88899654088E+00  0.88000000000E+00 0. -1.
        -11    1    4    4    0    0 -0.10535599072E+00  0.23777436408E-01  0.37733701582E-01  0.11440867370E+00  0.51100000000E-03 0. -1.
         11    1    4    4    0    0 -0.22537979111E-01 -0.14400217845E-01 -0.48371127977E-03  0.26754847673E-01  0.51100000000E-03 0.  1.
</event>
<event>
 8    1  0.2837913E+004  0.1043930E+01  0.7957747E-01            NaN
         13   -1    0    0    0    0  0.00000000000E+00  0.00000000000E+00  0.74505805969E-08  0.10566000000E+00  0.10566000000E+00 0. -1.
     999900   -1    0    0    0    0 -0.00000000000E+00 -0.00000000000E+00 -0.74505805969E-08  0.93827000000E+00  0.93827000000E+00 0.  1.
     999902    2    1    2    0    0 -0.79636190724E-02 -0.96431878472E-02  0.68381701589E-02  0.10296761980E+01  0.10295775356E+01 0.  0.
     999903    2    3    3    0    0  0.12597161378E+00 -0.27776443979E-01  0.27021060311E-01  0.13912871996E+00  0.44567754010E-01 0.  0.
         14    1    1    2    0    0  0.79636190724E-02  0.96431878472E-02 -0.68381701589E-02  0.14253802009E-01  0.00000000000E+00 0.  1.
     999901    1    3    3    0    0 -0.13393523285E+00  0.18133256132E-01 -0.20182890152E-01  0.89054747803E+00  0.88000000000E+00 0.  1.
        -11    1    4    4    0    0  0.27410488473E-01 -0.16294170177E-02  0.24998078340E-01  0.37136975104E-01  0.51100000000E-03 0. -1.
         11    1    4    4    0    0  0.98561125309E-01 -0.26147026961E-01  0.20229819710E-02  0.10199174485E+00  0.51100000000E-03 0.  1.
</event>
<event>
 8    1  0.2837913E+004  0.1043930E+01  0.7957747E-01            NaN
         13   -1    0    0    0    0  0.00000000000E+00  0.00000000000E+00  0.74505805969E-08  0.10566000000E+00  0.10566000000E+00 0.  1.
     999900   -1    0    0    0    0 -0.00000000000E+00 -0.00000000000E+00 -0.74505805969E-08  0.93827000000E+00  0.93827000000E+00 0.  1.
     999902    2    1    2    0    0  0.52751924287E-02 -0.13676661709E-01 -0.73992650084E-02  0.10275096512E+01  0.10273784383E+01 0.  0.
     999903    2    3    3    0    0  0.44810346286E-01  0.10461649361E+00  0.59568275479E-01  0.13619548078E+00  0.45257614529E-01 0.  0.
         14    1    1    2    0    0 -0.52751924287E-02  0.13676661709E-01  0.73992650084E-02  0.16420348758E-01  0.00000000000E+00 0.  1.
     999901    1    3    3    0    0 -0.39535153857E-01 -0.11829315532E+00 -0.66967540487E-01  0.89131417046E+00  0.88000000000E+00 0.  1.
        -11    1    4    4    0    0  0.49091927603E-01  0.72965105614E-01  0.55503018940E-01  0.10399408745E+00  0.51100000000E-03 0. -1.
         11    1    4    4    0    0 -0.42815813173E-02  0.31651387993E-01  0.40652565389E-02  0.32201393327E-01  0.51100000000E-03 0.  1.
</event>
<event>
 8    1  0.2837913E+004  0.1043930E+01  0.7957747E-01            NaN
         13   -1    0    0    0    0  0.00000000000E+00  0.00000000000E+00  0.74505805969E-08  0.10566000000E+00  0.10566000000E+00 0.  1.
     999900   -1    0    0    0    0 -0.00000000000E+00 -0.00000000000E+00 -0.74505805969E-08  0.93827000000E+00  0.93827000000E+00 0. -1.
     999902    2    1    2    0    0  0.26467908040E-02 -0.75620426185E-02  0.99156597854E-02  0.10311820473E+01  0.10311032462E+01 0.  0.
     999903    2    3    3    0    0 -0.56754672425E-01  0.52393215667E-01 -0.10699291608E+00  0.13944734347E+00  0.45076996562E-01 0.  0.
         14    1    1    2    0    0 -0.26467908040E-02  0.75620426185E-02 -0.99156597854E-02  0.12747952742E-01  0.00000000000E+00 0. -1.
     999901    1    3    3    0    0  0.59401463230E-01 -0.59955258285E-01  0.11690857587E+00  0.89173470379E+00  0.88000000000E+00 0.  1.
        -11    1    4    4    0    0 -0.53986261053E-02  0.34583192444E-01 -0.44566838278E-01  0.56671038093E-01  0.51100000000E-03 0.  1.
         11    1    4    4    0    0 -0.51356046320E-01  0.17810023223E-01 -0.62426077804E-01  0.82776305377E-01  0.51100000000E-03 0. -1.
</event>
<event>
 8    1  0.2837913E+004  0.1043930E+01  0.7957747E-01            NaN
         13   -1    0    0    0    0  0.00000000000E+00  0.00000000000E+00  0.74505805969E-08  0.10566000000E+00  0.10566000000E+00 0.  1.
     999900   -1    0    0    0    0 -0.00000000000E+00 -0.00000000000E+00 -0.74505805969E-08  0.93827000000E+00  0.93827000000E+00 0.  1.
     999902    2    1    2    0    0 -0.41353821084E-02  0.11319441380E-01  0.89050911357E-03  0.10318459549E+01  0.10317751938E+01 0.  0.
     999903    2    3    3    0    0  0.72751892832E-01  0.10985515319E-02  0.11262252454E+00  0.14139653869E+00  0.44889903046E-01 0.  0.
         14    1    1    2    0    0  0.41353821084E-02 -0.11319441380E-01 -0.89050911357E-03  0.12084045052E-01  0.00000000000E+00 0. -1.
     999901    1    3    3    0    0 -0.76887274940E-01  0.10220889848E-01 -0.11173201542E+00  0.89044941625E+00  0.88000000000E+00 0.  1.
        -11    1    4    4    0    0  0.28597188928E-01  0.19989064718E-01  0.64921867817E-01  0.73705304861E-01  0.51100000000E-03 0. -1.
         11    1    4    4    0    0  0.44154703904E-01 -0.18890513186E-01  0.47700656720E-01  0.67691233833E-01  0.51100000000E-03 0.  1.
</event>
<event>
 8    1  0.2837913E+004  0.1043930E+01  0.7957747E-01            NaN
         13   -1    0    0    0    0  0.00000000000E+00  0.00000000000E+00  0.74505805969E-08  0.10566000000E+00  0.10566000000E+00 0.  1.
     999900   -1    0    0    0    0 -0.00000000000E+00 -0.00000000000E+00 -0.74505805969E-08  0.93827000000E+00  0.93827000000E+00 0. -1.
     999902    2    1    2    0    0 -0.13715556631E-01  0.10292903366E-03 -0.16616308505E-02  0.10301137738E+01  0.10300211158E+01 0.  0.
     999903    2    3    3    0    0 -0.50031087431E-01 -0.30447325892E-01  0.11822414740E+00  0.14071806007E+00  0.48933363248E-01 0.  0.
         14    1    1    2    0    0  0.13715556631E-01 -0.10292903366E-03  0.16616308505E-02  0.13816226155E-01  0.00000000000E+00 0.  1.
     999901    1    3    3    0    0  0.36315530800E-01  0.30550254926E-01 -0.11988577825E+00  0.88939571377E+00  0.88000000000E+00 0. -1.
        -11    1    4    4    0    0 -0.53184669911E-01 -0.37673654288E-01  0.88186818188E-01  0.10965896846E+00  0.51100000000E-03 0.  1.
         11    1    4    4    0    0  0.31535824804E-02  0.72263283959E-02  0.30037329210E-01  0.31059091609E-01  0.51100000000E-03 0. -1.
</event>
<event>
 8    1  0.2837913E+004  0.1043930E+01  0.7957747E-01            NaN
         13   -1    0    0    0    0  0.00000000000E+00  0.00000000000E+00  0.74505805969E-08  0.10566000000E+00  0.10566000000E+00 0.  1.
     999900   -1    0    0    0    0 -0.00000000000E+00 -0.00000000000E+00 -0.74505805969E-08  0.93827000000E+00  0.93827000000E+00 0.  1.
     999902    2    1    2    0    0 -0.57408616965E-02 -0.27942560194E-03 -0.12213325794E-01  0.10304318187E+01  0.10303434049E+01 0.  0.
     999903    2    3    3    0    0 -0.52413986923E-01  0.12177925503E+00  0.91915994775E-02  0.14052459153E+00  0.45664672806E-01 0.  0.
         14    1    1    2    0    0  0.57408616965E-02  0.27942560194E-03  0.12213325794E-01  0.13498181308E-01  0.00000000000E+00 0.  1.
     999901    1    3    3    0    0  0.46673125227E-01 -0.12205868063E+00 -0.21404925272E-01  0.88990722717E+00  0.88000000000E+00 0.  1.
        -11    1    4    4    0    0 -0.25034567721E-01  0.90632244650E-01 -0.10503433704E-01  0.94612454739E-01  0.51100000000E-03 0. -1.
         11    1    4    4    0    0 -0.27379419202E-01  0.31147010378E-01  0.19695033182E-01  0.45912136787E-01  0.51100000000E-03 0.  1.
</event>
<event>
 8    1  0.2837913E+004  0.1043930E+01  0.7957747E-01            NaN
         13   -1    0    0    0    0  0.00000000000E+00  0.00000000000E+00  0.74505805969E-08  0.10566000000E+00  0.10566000000E+00 0.  1.
     999900   -1    0    0    0    0 -0.00000000000E+00 -0.00000000000E+00 -0.74505805969E-08  0.93827000000E+00  0.93827000000E+00 0.  1.
     999902    2    1    2    0    0 -0.14749493629E-02 -0.18249272394E-01 -0.46045896851E-02  0.10250510788E+01  0.10248772124E+01 0.  0.
     999903    2    3    3    0    0  0.30775466949E-01  0.11861058005E+00  0.26792851413E-01  0.13333559288E+00  0.45220840061E-01 0.  0.
         14    1    1    2    0    0  0.14749493629E-02  0.18249272394E-01  0.46045896851E-02  0.18878921174E-01  0.00000000000E+00 0.  1.
     999901    1    3    3    0    0 -0.32250416312E-01 -0.13685985245E+00 -0.31397441098E-01  0.89171548594E+00  0.88000000000E+00 0.  1.
        -11    1    4    4    0    0  0.71461897951E-02  0.95528087204E-01  0.29373471407E-01  0.10019853001E+00  0.51100000000E-03 0.  1.
         11    1    4    4    0    0  0.23629277154E-01  0.23082492849E-01 -0.25806199942E-02  0.33137062868E-01  0.51100000000E-03 0. -1.
</event>
<event>
 8    1  0.2837913E+004  0.1043930E+01  0.7957747E-01            NaN
         13   -1    0    0    0    0  0.00000000000E+00  0.00000000000E+00  0.74505805969E-08  0.10566000000E+00  0.10566000000E+00 0.  1.
     999900   -1    0    0    0    0 -0.00000000000E+00 -0.00000000000E+00 -0.74505805969E-08  0.93827000000E+00  0.93827000000E+00 0.  1.
     999902    2    1    2    0    0  0.31567458775E-02  0.13773155381E-01  0.24101328449E-02  0.10295956499E+01  0.10294958614E+01 0.  0.
     999903    2    3    3    0    0  0.60593896536E-01  0.10924126990E+00 -0.43809035815E-01  0.14136741415E+00  0.49600794525E-01 0.  0.
         14    1    1    2    0    0 -0.31567458775E-02 -0.13773155381E-01 -0.24101328449E-02  0.14334350142E-01  0.00000000000E+00 0.  1.
     999901    1    3    3    0    0 -0.57437150658E-01 -0.95468114514E-01  0.46219168660E-01  0.88822823571E+00  0.88000000000E+00 0. -1.
        -11    1    4    4    0    0  0.21827789789E-01  0.69111064044E-01 -0.35567852662E-02  0.72565166731E-01  0.51100000000E-03 0.  1.
         11    1    4    4    0    0  0.38766106747E-01  0.40130205851E-01 -0.40252250549E-01  0.68802247414E-01  0.51100000000E-03 0. -1.
</event>
<event>
 8    1  0.2837913E+004  0.1043930E+01  0.7957747E-01            NaN
         13   -1    0    0    0    0  0.00000000000E+00  0.00000000000E+00  0.74505805969E-08  0.10566000000E+00  0.10566000000E+00 0.  1.
     999900   -1    0    0    0    0 -0.00000000000E+00 -0.00000000000E+00 -0.74505805969E-08  0.93827000000E+00  0.93827000000E+00 0.  1.
     999902    2    1    2    0    0  0.10154172850E-01  0.56247782299E-02  0.47144724516E-02  0.10314011690E+01  0.10313250699E+01 0.  0.
     999903    2    3    3    0    0 -0.82459073022E-01 -0.84516516976E-01 -0.61779149985E-01  0.13947960951E+00  0.41174721982E-01 0.  0.
         14    1    1    2    0    0 -0.10154172850E-01 -0.56247782299E-02 -0.47144724516E-02  0.12528831027E-01  0.00000000000E+00 0. -1.
     999901    1    3    3    0    0  0.92613245873E-01  0.90141295206E-01  0.66493622437E-01  0.89192155946E+00  0.88000000000E+00 0. -1.
        -11    1    4    4    0    0 -0.62307009711E-01 -0.36732083876E-01 -0.27861506541E-01  0.77510864482E-01  0.51100000000E-03 0. -1.
         11    1    4    4    0    0 -0.20152063312E-01 -0.47784433100E-01 -0.33917643444E-01  0.61968745027E-01  0.51100000000E-03 0.  1.
</event>
<event>
 8    1  0.2837913E+004  0.1043930E+01  0.7957747E-01            NaN
         13   -1    0    0    0    0  0.00000000000E+00  0.00000000000E+00  0.74505805969E-08  0.10566000000E+00  0.10566000000E+00 0. -1.
     999900   -1    0    0    0    0 -0.00000000000E+00 -0.00000000000E+00 -0.74505805969E-08  0.93827000000E+00  0.93827000000E+00 0.  1.
     999902    2    1    2    0    0 -0.32899410245E-02  0.94123525850E-02  0.10919393112E-01  0.10291432073E+01  0.10290369730E+01 0.  0.
     999903    2    3    3    0    0 -0.29076058989E-01  0.11318271654E+00 -0.61279094749E-01  0.13973563256E+00  0.45991031996E-01 0.  0.
         14    1    1    2    0    0  0.32899410245E-02 -0.94123525850E-02 -0.10919393112E-01  0.14786792724E-01  0.00000000000E+00 0.  1.
     999901    1    3    3    0    0  0.25786117964E-01 -0.10377036395E+00  0.72198487860E-01  0.88940757472E+00  0.88000000000E+00 0. -1.
        -11    1    4    4    0    0 -0.13869160173E-01  0.27637749276E-01 -0.39487594524E-01  0.50157053654E-01  0.51100000000E-03 0.  1.
         11    1    4    4    0    0 -0.15206898816E-01  0.85544967263E-01 -0.21791500224E-01  0.89578578905E-01  0.51100000000E-03 0. -1.
</event>
<event>
 8    1  0.2837913E+004  0.1043930E+01  0.7957747E-01            NaN
         13   -1    0    0    0    0  0.00000000000E+00  0.00000000000E+00  0.74505805969E-08  0.10566000000E+00  0.10566000000E+00 0.  1.
     999900   -1    0    0    0    0 -0.00000000000E+00 -0.00000000000E+00 -0.74505805969E-08  0.93827000000E+00  0.93827000000E+00 0.  1.
     999902    2    1    2    0    0 -0.21795570746E-02 -0.11703240492E-01 -0.57065789693E-02  0.10307284338E+01  0.10306438875E+01 0.  0.
     999903    2    3    3    0    0 -0.12430743395E+00 -0.42013717666E-01  0.27277123426E-01  0.14116569403E+00  0.44342091757E-01 0.  0.
         14    1    1    2    0    0  0.21795570746E-02  0.11703240492E-01  0.57065789693E-02  0.13201566218E-01  0.00000000000E+00 0.  1.
     999901    1    3    3    0    0  0.12212787687E+00  0.30310477173E-01 -0.32983702395E-01  0.88956273975E+00  0.88000000000E+00 0. -1.
        -11    1    4    4    0    0 -0.28051026568E-01  0.63698536159E-02 -0.38483390380E-02  0.29025953230E-01  0.51100000000E-03 0.  1.
         11    1    4    4    0    0 -0.96256407379E-01 -0.48383571282E-01  0.31125462464E-01  0.11213974080E+00  0.51100000000E-03 0. -1.
</event>
<event>
 8    1  0.2837913E+004  0.1043930E+01  0.7957747E-01            NaN
         13   -1    0    0    0    0  0.00000000000E+00  0.00000000000E+00  0.74505805969E-08  0.10566000000E+00  0.10566000000E+00 0.  1.
     999900   -1    0    0    0    0 -0.00000000000E+00 -0.00000000000E+00 -0.74505805969E-08  0.93827000000E+00  0.93827000000E+00 0. -1.
     999902    2    1    2    0    0 -0.88673961547E-02 -0.75508586880E-02 -0.86682753250E-04  0.10322829534E+01  0.10322172456E+01 0.  0.
     999903    2    3    3    0    0  0.15622081259E-01 -0.62721907587E-01 -0.11879189232E+00  0.14226356823E+00  0.44151127388E-01 0.  0.
         14    1    1    2    0    0  0.88673961547E-02  0.75508586880E-02  0.86682753250E-04  0.11647046638E-01  0.00000000000E+00 0.  1.
     999901    1    3    3    0    0 -0.24489477413E-01  0.55171048899E-01  0.11870520956E+00  0.89001938514E+00  0.88000000000E+00 0.  1.
        -11    1    4    4    0    0 -0.10944729434E-01 -0.16686394085E-01 -0.58877620782E-01  0.62169592245E-01  0.51100000000E-03 0.  1.
         11    1    4    4    0    0  0.26566810693E-01 -0.46035513502E-01 -0.59914271536E-01  0.80093975981E-01  0.51100000000E-03 0. -1.
</event>
<event>
 8    1  0.2837913E+004  0.1043930E+01  0.7957747E-01            NaN
         13   -1    0    0    0    0  0.00000000000E+00  0.00000000000E+00  0.74505805969E-08  0.10566000000E+00  0.10566000000E+00 0. -1.
     999900   -1    0    0    0    0 -0.00000000000E+00 -0.00000000000E+00 -0.74505805969E-08  0.93827000000E+00  0.93827000000E+00 0.  1.
     999902    2    1    2    0    0  0.12888509319E-01  0.23977337105E-02 -0.77568812117E-02  0.10286974032E+01  0.10285846175E+01 0.  0.
     999903    2    3    3    0    0 -0.12000706113E+00 -0.47675990412E-01 -0.21289349123E-01  0.13720890737E+00  0.41211079745E-01 0.  0.
         14    1    1    2    0    0 -0.12888509319E-01 -0.23977337105E-02  0.77568812117E-02  0.15232596809E-01  0.00000000000E+00 0. -1.
     999901    1    3    3    0    0  0.13289557045E+00  0.50073724122E-01  0.13532467911E-01  0.89148849582E+00  0.88000000000E+00 0.  1.
        -11    1    4    4    0    0 -0.13670408185E-01  0.13486100204E-04 -0.15284454817E-01  0.20512335847E-01  0.51100000000E-03 0.  1.
         11    1    4    4    0    0 -0.10633665294E+00 -0.47689476512E-01 -0.60048943057E-02  0.11669657152E+00  0.51100000000E-03 0. -1.
</event>
<event>
 8    1  0.2837913E+004  0.1043930E+01  0.7957747E-01            NaN
         13   -1    0    0    0    0  0.00000000000E+00  0.00000000000E+00  0.74505805969E-08  0.10566000000E+00  0.10566000000E+00 0. -1.
     999900   -1    0    0    0    0 -0.00000000000E+00 -0.00000000000E+00 -0.74505805969E-08  0.93827000000E+00  0.93827000000E+00 0. -1.
     999902    2    1    2    0    0  0.11098629961E-01  0.53492897248E-02 -0.56098945972E-02  0.10303924446E+01  0.10303035109E+01 0.  0.
     999903    2    3    3    0    0  0.10694962863E+00  0.27250691667E-01 -0.77349991297E-01  0.14201542624E+00  0.44772054649E-01 0.  0.
         14    1    1    2    0    0 -0.11098629961E-01 -0.53492897248E-02  0.56098945972E-02  0.13537555354E-01  0.00000000000E+00 0.  1.
     999901    1    3    3    0    0 -0.95850998666E-01 -0.21901401943E-01  0.71740096699E-01  0.88837701840E+00  0.88000000000E+00 0.  1.
        -11    1    4    4    0    0  0.40176888739E-01  0.12677813749E-02 -0.52614378715E-01  0.66214225261E-01  0.51100000000E-03 0.  1.
         11    1    4    4    0    0  0.66772739889E-01  0.25982910292E-01 -0.24735612581E-01  0.75801200982E-01  0.51100000000E-03 0. -1.
</event>
<event>
 8    1  0.2837913E+004  0.1043930E+01  0.7957747E-01            NaN
         13   -1    0    0    0    0  0.00000000000E+00  0.00000000000E+00  0.74505805969E-08  0.10566000000E+00  0.10566000000E+00 0. -1.
     999900   -1    0    0    0    0 -0.00000000000E+00 -0.00000000000E+00 -0.74505805969E-08  0.93827000000E+00  0.93827000000E+00 0. -1.
     999902    2    1    2    0    0  0.17511949918E-02  0.39661630129E-02 -0.14649021648E-01  0.10286528613E+01  0.10285394100E+01 0.  0.
     999903    2    3    3    0    0 -0.12427707580E+00 -0.40367680159E-01  0.52169988485E-02  0.13834770376E+00  0.45150070744E-01 0.  0.
         14    1    1    2    0    0 -0.17511949918E-02 -0.39661630129E-02  0.14649021648E-01  0.15277138744E-01  0.00000000000E+00 0. -1.
     999901    1    3    3    0    0  0.12602827079E+00  0.44333843172E-01 -0.19866020497E-01  0.89030515749E+00  0.88000000000E+00 0. -1.
        -11    1    4    4    0    0 -0.20591017249E-01 -0.26603896615E-01  0.18659911228E-02  0.33697186088E-01  0.51100000000E-03 0. -1.
         11    1    4    4    0    0 -0.10368605855E+00 -0.13763783545E-01  0.33510077257E-02  0.10465051767E+00  0.51100000000E-03 0.  1.
</event>
<event>
 8    1  0.2837913E+004  0.1043930E+01  0.7957747E-01            NaN
         13   -1    0    0    0    0  0.00000000000E+00  0.00000000000E+00  0.74505805969E-08  0.10566000000E+00  0.10566000000E+00 0.  1.
     999900   -1    0    0    0    0 -0.00000000000E+00 -0.00000000000E+00 -0.74505805969E-08  0.93827000000E+00  0.93827000000E+00 0.  1.
     999902    2    1    2    0    0  0.34242557401E-04 -0.16720930448E-01  0.61690030636E-02  0.10261073378E+01  0.10259525435E+01 0.  0.
     999903    2    3    3    0    0 -0.71371361127E-01  0.42655364208E-01 -0.97895941015E-01  0.13512259207E+00  0.41966037897E-01 0.  0.
         14    1    1    2    0    0 -0.34242557401E-04  0.16720930448E-01 -0.61690030636E-02  0.17822662158E-01  0.00000000000E+00 0.  1.
     999901    1    3    3    0    0  0.71405603684E-01 -0.59376294656E-01  0.10406494408E+00  0.89098474577E+00  0.88000000000E+00 0.  1.
        -11    1    4    4    0    0 -0.45271087214E-01  0.41633868377E-01 -0.45276578186E-01  0.76374603022E-01  0.51100000000E-03 0.  1.
         11    1    4    4    0    0 -0.26100273912E-01  0.10214958306E-02 -0.52619362830E-01  0.58747989052E-01  0.51100000000E-03 0. -1.
</event>
<event>
 8    1  0.2837913E+004  0.1043930E+01  0.7957747E-01            NaN
         13   -1    0    0    0    0  0.00000000000E+00  0.00000000000E+00  0.74505805969E-08  0.10566000000E+00  0.10566000000E+00 0. -1.
     999900   -1    0    0    0    0 -0.00000000000E+00 -0.00000000000E+00 -0.74505805969E-08  0.93827000000E+00  0.93827000000E+00 0. -1.
     999902    2    1    2    0    0  0.28301453078E-02 -0.10008978973E-01 -0.89913138295E-02  0.10301810689E+01  0.10300893173E+01 0.  0.
     999903    2    3    3    0    0 -0.83224850112E-01  0.60861487614E-01  0.80864455796E-01  0.13860822014E+00  0.45196041079E-01 0.  0.
         14    1    1    2    0    0 -0.28301453078E-02  0.10008978973E-01  0.89913138295E-02  0.13748931120E-01  0.00000000000E+00 0. -1.
     999901    1    3    3    0    0  0.86054995419E-01 -0.70870466588E-01 -0.89855769626E-01  0.89157284874E+00  0.88000000000E+00 0. -1.
        -11    1    4    4    0    0 -0.60974053076E-01  0.53899608780E-01  0.81640149268E-01  0.11527522747E+00  0.51100000000E-03 0.  1.
         11    1    4    4    0    0 -0.22250797035E-01  0.69618788341E-02 -0.77569347205E-03  0.23332992670E-01  0.51100000000E-03 0. -1.
</event>
<event>
 8    1  0.2837913E+004  0.1043930E+01  0.7957747E-01            NaN
         13   -1    0    0    0    0  0.00000000000E+00  0.00000000000E+00  0.74505805969E-08  0.10566000000E+00  0.10566000000E+00 0.  1.
     999900   -1    0    0    0    0 -0.00000000000E+00 -0.00000000000E+00 -0.74505805969E-08  0.93827000000E+00  0.93827000000E+00 0.  1.
     999902    2    1    2    0    0 -0.70020742125E-03  0.27461382109E-02 -0.13317582552E-01  0.10303142161E+01  0.10302242447E+01 0.  0.
     999903    2    3    3    0    0  0.25834909509E-01 -0.10946797538E+00 -0.72140867547E-01  0.14084454347E+00  0.44521910006E-01 0.  0.
         14    1    1    2    0    0  0.70020742125E-03 -0.27461382109E-02  0.13317582552E-01  0.13615783876E-01  0.00000000000E+00 0.  1.
     999901    1    3    3    0    0 -0.26535116930E-01  0.11221411359E+00  0.58823284995E-01  0.88946967266E+00  0.88000000000E+00 0.  1.
        -11    1    4    4    0    0  0.21108439440E-01 -0.31894727440E-01 -0.43723385554E-01  0.58093333692E-01  0.51100000000E-03 0.  1.
         11    1    4    4    0    0  0.47264700685E-02 -0.77573247941E-01 -0.28417481992E-01  0.82751209775E-01  0.51100000000E-03 0. -1.
</event>
<event>
 8    1  0.2837913E+004  0.1043930E+01  0.7957747E-01            NaN
         13   -1    0    0    0    0  0.00000000000E+00  0.00000000000E+00  0.74505805969E-08  0.10566000000E+00  0.10566000000E+00 0. -1.
     999900   -1    0    0    0    0 -0.00000000000E+00 -0.00000000000E+00 -0.74505805969E-08  0.93827000000E+00  0.93827000000E+00 0. -1.
     999902    2    1    2    0    0  0.64485718400E-02  0.89893655650E-02 -0.82173225616E-02  0.10301489564E+01  0.10300567728E+01 0.  0.
     999903    2    3    3    0    0 -0.11077791739E-01  0.59194697288E-01 -0.11970398496E+00  0.14152247434E+00  0.45528420481E-01 0.  0.
         14    1    1    2    0    0 -0.64485718400E-02 -0.89893655650E-02  0.82173225616E-02  0.13781043579E-01  0.00000000000E+00 0. -1.
     999901    1    3    3    0    0  0.17526363579E-01 -0.50205331723E-01  0.11148666240E+00  0.88862648208E+00  0.88000000000E+00 0.  1.
        -11    1    4    4    0    0 -0.21641046777E-01  0.16251429292E-01 -0.24340882305E-01  0.36403070365E-01  0.51100000000E-03 0. -1.
         11    1    4    4    0    0  0.10563255038E-01  0.42943267996E-01 -0.95363102659E-01  0.10511940398E+00  0.51100000000E-03 0.  1.
</event>
<event>
 8    1  0.2837913E+004  0.1043930E+01  0.7957747E-01            NaN
         13   -1    0    0    0    0  0.00000000000E+00  0.00000000000E+00  0.74505805969E-08  0.10566000000E+00  0.10566000000E+00 0. -1.
     999900   -1    0    0    0    0 -0.00000000000E+00 -0.00000000000E+00 -0.74505805969E-08  0.93827000000E+00  0.93827000000E+00 0. -1.
     999902    2    1    2    0    0  0.12401452752E-01 -0.86072790328E-03  0.67412487064E-02  0.10297885249E+01  0.10296914221E+01 0.  0.
     999903    2    3    3    0    0  0.85285343265E-01 -0.47190520683E-01  0.92290221647E-01  0.14143209986E+00  0.44553550275E-01 0.  0.
         14    1    1    2    0    0 -0.12401452752E-01  0.86072790328E-03 -0.67412487064E-02  0.14141475065E-01  0.00000000000E+00 0.  1.
     999901    1    3    3    0    0 -0.72883890513E-01  0.46329792779E-01 -0.85548972941E-01  0.88835642507E+00  0.88000000000E+00 0. -1.
        -11    1    4    4    0    0  0.22538163260E-01 -0.10173606528E-01  0.53395488151E-01  0.58845648512E-01  0.51100000000E-03 0.  1.
         11    1    4    4    0    0  0.62747180005E-01 -0.37016914155E-01  0.38894733496E-01  0.82586451352E-01  0.51100000000E-03 0. -1.
</event>
<event>
 8    1  0.2837913E+004  0.1043930E+01  0.7957747E-01            NaN
         13   -1    0    0    0    0  0.00000000000E+00  0.00000000000E+00  0.74505805969E-08  0.10566000000E+00  0.10566000000E+00 0.  1.
     999900   -1    0    0    0    0 -0.00000000000E+00 -0.00000000000E+00 -0.74505805969E-08  0.93827000000E+00  0.93827000000E+00 0.  1.
     999902    2    1    2    0    0 -0.13490633761E-01 -0.20022469797E-02  0.29270417760E-03  0.10302884507E+01  0.10301981362E+01 0.  0.
     999903    2    3    3    0    0 -0.84876161156E-01  0.10184773237E+00 -0.17727996936E-01  0.14112847778E+00  0.45011576774E-01 0.  0.
         14    1    1    2    0    0  0.13490633761E-01  0.20022469797E-02 -0.29270417760E-03  0.13641549324E-01  0.00000000000E+00 0. -1.
     999901    1    3    3    0    0  0.71385527395E-01 -0.10384997935E+00  0.18020701114E-01  0.88915997290E+00  0.88000000000E+00 0.  1.
        -11    1    4    4    0    0 -0.22800642731E-01  0.59372123840E-01 -0.17285444199E-01  0.65908771043E-01  0.51100000000E-03 0.  1.
         11    1    4    4    0    0 -0.62075518425E-01  0.42475608529E-01 -0.44255273719E-03  0.75219706737E-01  0.51100000000E-03 0. -1.
</event>
<event>
 8    1  0.2837913E+004  0.1043930E+01  0.7957747E-01            NaN
         13   -1    0    0    0    0  0.00000000000E+00  0.00000000000E+00  0.74505805969E-08  0.10566000000E+00  0.10566000000E+00 0. -1.
     999900   -1    0    0    0    0 -0.00000000000E+00 -0.00000000000E+00 -0.74505805969E-08  0.93827000000E+00  0.93827000000E+00 0.  1.
     999902    2    1    2    0    0 -0.60651206597E-02  0.10369907877E-01  0.71033481475E-02  0.10299737028E+01  0.10298791435E+01 0.  0.
     999903    2    3    3    0    0  0.10895437953E+00 -0.52821766747E-01  0.51729092219E-01  0.13912347393E+00  0.44924894593E-01 0.  0.
         14    1    1    2    0    0  0.60651206597E-02 -0.10369907877E-01 -0.71033481475E-02  0.13956297249E-01  0.00000000000E+00 0. -1.
     999901    1    3    3    0    0 -0.11501950019E+00  0.63191674624E-01 -0.44625744071E-01  0.89085022883E+00  0.88000000000E+00 0.  1.
        -11    1    4    4    0    0  0.53962664753E-01 -0.27833122844E-02  0.14377163534E-01  0.55916723498E-01  0.51100000000E-03 0.  1.
         11    1    4    4    0    0  0.54991714778E-01 -0.50038454463E-01  0.37351928684E-01  0.83206750427E-01  0.51100000000E-03 0. -1.
</event>
<event>
 8    1  0.2837913E+004  0.1043930E+01  0.7957747E-01            NaN
         13   -1    0    0    0    0  0.00000000000E+00  0.00000000000E+00  0.74505805969E-08  0.10566000000E+00  0.10566000000E+00 0.  1.
     999900   -1    0    0    0    0 -0.00000000000E+00 -0.00000000000E+00 -0.74505805969E-08  0.93827000000E+00  0.93827000000E+00 0.  1.
     999902    2    1    2    0    0  0.21796398796E-02 -0.55897314978E-02  0.11479781166E-01  0.10309769577E+01  0.10308955845E+01 0.  0.
     999903    2    3    3    0    0  0.18261608158E-01  0.26729325082E-01 -0.12783578994E+00  0.13928643997E+00  0.44841721841E-01 0.  0.
         14    1    1    2    0    0 -0.21796398796E-02  0.55897314978E-02 -0.11479781166E-01  0.12953042262E-01  0.00000000000E+00 0. -1.
     999901    1    3    3    0    0 -0.16081968278E-01 -0.32319056580E-01  0.13931557111E+00  0.89169051777E+00  0.88000000000E+00 0. -1.
        -11    1    4    4    0    0 -0.13203457963E-01 -0.10948939409E-02 -0.33013764505E-01  0.35576675824E-01  0.51100000000E-03 0.  1.
         11    1    4    4    0    0  0.31465066121E-01  0.27824219023E-01 -0.94822025439E-01  0.10370976415E+00  0.51100000000E-03 0. -1.
</event>
<event>
 8    1  0.2837913E+004  0.1043930E+01  0.7957747E-01            NaN
         13   -1    0    0    0    0  0.00000000000E+00  0.00000000000E+00  0.74505805969E-08  0.10566000000E+00  0.10566000000E+00 0. -1.
     999900   -1    0    0    0    0 -0.00000000000E+00 -0.00000000000E+00 -0.74505805969E-08  0.93827000000E+00  0.93827000000E+00 0.  1.
     999902    2    1    2    0    0  0.14923642847E-02  0.96060765859E-02  0.11116592135E-01  0.10291623841E+01  0.10290564272E+01 0.  0.
     999903    2    3    3    0    0  0.52412561862E-01 -0.10595326248E+00 -0.54856002120E-01  0.13770334940E+00  0.44495628963E-01 0.  0.
         14    1    1    2    0    0 -0.14923642847E-02 -0.96060765859E-02 -0.11116592135E-01  0.14767615895E-01  0.00000000000E+00 0.  1.
     999901    1    3    3    0    0 -0.50920197577E-01  0.11555933906E+00  0.65972594255E-01  0.89145903471E+00  0.88000000000E+00 0.  1.
        -11    1    4    4    0    0  0.45038708498E-01 -0.47665562794E-01 -0.16789688853E-01  0.67695242908E-01  0.51100000000E-03 0. -1.
         11    1    4    4    0    0  0.73738533640E-02 -0.58287699682E-01 -0.38066313266E-01  0.70008106491E-01  0.51100000000E-03 0.  1.
</event>
<event>
 8    1  0.2837913E+004  0.1043930E+01  0.7957747E-01            NaN
         13   -1    0    0    0    0  0.00000000000E+00  0.00000000000E+00  0.74505805969E-08  0.10566000000E+00  0.10566000000E+00 0.  1.
     999900   -1    0    0    0    0 -0.00000000000E+00 -0.00000000000E+00 -0.74505805969E-08  0.93827000000E+00  0.93827000000E+00 0. -1.
     999902    2    1    2    0    0  0.10078945561E-01  0.81402665413E-02  0.64609953845E-02  0.10294526541E+01  0.10293508505E+01 0.  0.
     999903    2    3    3    0    0 -0.58269148199E-02  0.50064633530E-02  0.13268068801E+00  0.14029899588E+00  0.44951369964E-01 0.  0.
         14    1    1    2    0    0 -0.10078945561E-01 -0.81402665413E-02 -0.64609953845E-02  0.14477345901E-01  0.00000000000E+00 0. -1.
     999901    1    3    3    0    0  0.15905860381E-01  0.31338031882E-02 -0.12621969263E+00  0.88915365822E+00  0.88000000000E+00 0. -1.
        -11    1    4    4    0    0 -0.20893360388E-01 -0.37533324176E-03  0.31144733160E-01  0.37509051014E-01  0.51100000000E-03 0. -1.
         11    1    4    4    0    0  0.15066445568E-01  0.53817965948E-02  0.10153595485E+00  0.10278994487E+00  0.51100000000E-03 0.  1.
</event>
<event>
 8    1  0.2837913E+004  0.1043930E+01  0.7957747E-01            NaN
         13   -1    0    0    0    0  0.00000000000E+00  0.00000000000E+00  0.74505805969E-08  0.10566000000E+00  0.10566000000E+00 0. -1.
     999900   -1    0    0    0    0 -0.00000000000E+00 -0.00000000000E+00 -0.74505805969E-08  0.93827000000E+00  0.93827000000E+00 0.  1.
     999902    2    1    2    0    0 -0.75040548435E-02 -0.11343594464E-01  0.78596984530E-04  0.10303287445E+01  0.10302389662E+01 0.  0.
     999903    2    3    3    0    0 -0.32665748496E-01 -0.10731229213E+00 -0.73847546331E-01  0.14167348149E+00  0.45110265928E-01 0.  0.
         14    1    1    2    0    0  0.75040548435E-02  0.11343594464E-01 -0.78596984530E-04  0.13601255528E-01  0.00000000000E+00 0.  1.
     999901    1    3    3    0    0  0.25161693652E-01  0.95968697664E-01  0.73926143315E-01  0.88865526298E+00  0.88000000000E+00 0. -1.
        -11    1    4    4    0    0  0.30304849420E-02 -0.31426581611E-01 -0.40661538017E-01  0.51482382090E-01  0.51100000000E-03 0. -1.
         11    1    4    4    0    0 -0.35696233438E-01 -0.75885710517E-01 -0.33186008313E-01  0.90191099400E-01  0.51100000000E-03 0.  1.
</event>
<event>
 8    1  0.2837913E+004  0.1043930E+01  0.7957747E-01            NaN
         13   -1    0    0    0    0  0.00000000000E+00  0.00000000000E+00  0.74505805969E-08  0.10566000000E+00  0.10566000000E+00 0.  1.
     999900   -1    0    0    0    0 -0.00000000000E+00 -0.00000000000E+00 -0.74505805969E-08  0.93827000000E+00  0.93827000000E+00 0.  1.
     999902    2    1    2    0    0  0.97770785330E-02  0.40065980901E-02 -0.10404219081E-01  0.10291012486E+01  0.10289944062E+01 0.  0.
     999903    2    3    3    0    0 -0.84469748463E-01 -0.70402594493E-01  0.69383136867E-01  0.13736966652E+00  0.44325408983E-01 0.  0.
         14    1    1    2    0    0 -0.97770785330E-02 -0.40065980901E-02  0.10404219081E-01  0.14828751383E-01  0.00000000000E+00 0.  1.
     999901    1    3    3    0    0  0.94246826996E-01  0.74409192584E-01 -0.79787355948E-01  0.89173158210E+00  0.88000000000E+00 0.  1.
        -11    1    4    4    0    0 -0.46663198071E-01 -0.54884373038E-01  0.23169237439E-01  0.75675776458E-01  0.51100000000E-03 0.  1.
         11    1    4    4    0    0 -0.37806550392E-01 -0.15518221455E-01  0.46213899428E-01  0.61693890062E-01  0.51100000000E-03 0. -1.
</event>
<event>
 8    1  0.2837913E+004  0.1043930E+01  0.7957747E-01            NaN
         13   -1    0    0    0    0  0.00000000000E+00  0.00000000000E+00  0.74505805969E-08  0.10566000000E+00  0.10566000000E+00 0.  1.
     999900   -1    0    0    0    0 -0.00000000000E+00 -0.00000000000E+00 -0.74505805969E-08  0.93827000000E+00  0.93827000000E+00 0.  1.
     999902    2    1    2    0    0  0.67060199678E-02 -0.13184456761E-01 -0.69423330360E-03  0.10291218075E+01  0.10290152633E+01 0.  0.
     999903    2    3    3    0    0 -0.34452836548E-01 -0.51400748722E-01  0.11665613048E+00  0.13955694520E+00  0.45149233206E-01 0.  0.
         14    1    1    2    0    0 -0.67060199678E-02  0.13184456761E-01  0.69423330360E-03  0.14808192454E-01  0.00000000000E+00 0.  1.
     999901    1    3    3    0    0  0.41158856516E-01  0.38216291961E-01 -0.11735036378E+00  0.88956486235E+00  0.88000000000E+00 0.  1.
        -11    1    4    4    0    0 -0.18449695126E-01 -0.32706060674E-01  0.10650450495E+00  0.11293160917E+00  0.51100000000E-03 0. -1.
         11    1    4    4    0    0 -0.16003141422E-01 -0.18694688048E-01  0.10151625533E-01  0.26625336027E-01  0.51100000000E-03 0.  1.
</event>
<event>
 8    1  0.2837913E+004  0.1043930E+01  0.7957747E-01            NaN
         13   -1    0    0    0    0  0.00000000000E+00  0.00000000000E+00  0.74505805969E-08  0.10566000000E+00  0.10566000000E+00 0.  1.
     999900   -1    0    0    0    0 -0.00000000000E+00 -0.00000000000E+00 -0.74505805969E-08  0.93827000000E+00  0.93827000000E+00 0.  1.
     999902    2    1    2    0    0  0.20085168517E-02  0.12503827739E-01  0.13214067943E-02  0.10311971306E+01  0.10311185170E+01 0.  0.
     999903    2    3    3    0    0 -0.26206184056E-01 -0.11377410686E-02  0.13118311064E+00  0.14111498612E+00  0.44904033813E-01 0.  0.
         14    1    1    2    0    0 -0.20085168517E-02 -0.12503827739E-01 -0.13214067943E-02  0.12732869433E-01  0.00000000000E+00 0.  1.
     999901    1    3    3    0    0  0.28214700908E-01  0.13641568808E-01 -0.12986170384E+00  0.89008214445E+00  0.88000000000E+00 0.  1.
        -11    1    4    4    0    0  0.10026382045E-01  0.97058650831E-02  0.41334780728E-01  0.43629776217E-01  0.51100000000E-03 0. -1.
         11    1    4    4    0    0 -0.36232566102E-01 -0.10843606152E-01  0.89848329909E-01  0.97485209899E-01  0.51100000000E-03 0.  1.
</event>
<event>
 8    1  0.2837913E+004  0.1043930E+01  0.7957747E-01            NaN
         13   -1    0    0    0    0  0.00000000000E+00  0.00000000000E+00  0.74505805969E-08  0.10566000000E+00  0.10566000000E+00 0.  1.
     999900   -1    0    0    0    0 -0.00000000000E+00 -0.00000000000E+00 -0.74505805969E-08  0.93827000000E+00  0.93827000000E+00 0.  1.
     999902    2    1    2    0    0  0.22362375254E-02 -0.26597973085E-02  0.10118396579E-01  0.10332315314E+01  0.10331761420E+01 0.  0.
     999903    2    3    3    0    0 -0.31455330161E-01 -0.84512675656E-01  0.10119463115E+00  0.14411404994E+00  0.48955856373E-01 0.  0.
         14    1    1    2    0    0 -0.22362375254E-02  0.26597973085E-02 -0.10118396579E-01  0.10698468550E-01  0.00000000000E+00 0. -1.
     999901    1    3    3    0    0  0.33691567686E-01  0.81852878347E-01 -0.91076234574E-01  0.88911748151E+00  0.88000000000E+00 0.  1.
        -11    1    4    4    0    0  0.12601453464E-03 -0.55633028891E-01  0.76855251965E-01  0.94879084412E-01  0.51100000000E-03 0. -1.
         11    1    4    4    0    0 -0.31581344696E-01 -0.28879646765E-01  0.24339379188E-01  0.49234965525E-01  0.51100000000E-03 0.  1.
</event>
<event>
 8    1  0.2837913E+004  0.1043930E+01  0.7957747E-01            NaN
         13   -1    0    0    0    0  0.00000000000E+00  0.00000000000E+00  0.74505805969E-08  0.10566000000E+00  0.10566000000E+00 0. -1.
     999900   -1    0    0    0    0 -0.00000000000E+00 -0.00000000000E+00 -0.74505805969E-08  0.93827000000E+00  0.93827000000E+00 0.  1.
     999902    2    1    2    0    0 -0.29047111326E-02 -0.13205920831E-01 -0.16701523495E-03  0.10304073676E+01  0.10303186312E+01 0.  0.
     999903    2    3    3    0    0 -0.30392628092E-01  0.12504603613E+00 -0.27836773809E-01  0.13876012533E+00  0.43809398665E-01 0.  0.
         14    1    1    2    0    0  0.29047111326E-02  0.13205920831E-01  0.16701523495E-03  0.13522632357E-01  0.00000000000E+00 0. -1.
     999901    1    3    3    0    0  0.27487916959E-01 -0.13825195696E+00  0.27669758574E-01  0.89164724231E+00  0.88000000000E+00 0.  1.
        -11    1    4    4    0    0 -0.24767863007E-01  0.99166136808E-01 -0.39807657121E-01  0.10969175180E+00  0.51100000000E-03 0.  1.
         11    1    4    4    0    0 -0.56247650845E-02  0.25879899324E-01  0.11970883312E-01  0.29068373527E-01  0.51100000000E-03 0. -1.
</event>
<event>
 8    1  0.2837913E+004  0.1043930E+01  0.7957747E-01            NaN
         13   -1    0    0    0    0  0.00000000000E+00  0.00000000000E+00  0.74505805969E-08  0.10566000000E+00  0.10566000000E+00 0. -1.
     999900   -1    0    0    0    0 -0.00000000000E+00 -0.00000000000E+00 -0.74505805969E-08  0.93827000000E+00  0.93827000000E+00 0.  1.
     999902    2    1    2    0    0  0.81345448542E-02  0.94485724300E-02  0.20150134509E-02  0.10313004070E+01  0.10312230713E+01 0.  0.
     999903    2    3    3    0    0  0.12715731409E-01 -0.11340636286E-02 -0.13321165580E+00  0.14089643599E+00  0.44084969173E-01 0.  0.
         14    1    1    2    0    0 -0.81345448542E-02 -0.94485724300E-02 -0.20150134509E-02  0.12629593032E-01  0.00000000000E+00 0.  1.
     999901    1    3    3    0    0 -0.45811865547E-02  0.10582636059E-01  0.13522666925E+00  0.89040397098E+00  0.88000000000E+00 0. -1.
        -11    1    4    4    0    0  0.16043190800E-01  0.15726823149E-01 -0.38019850015E-01  0.44164318783E-01  0.51100000000E-03 0. -1.
         11    1    4    4    0    0 -0.33274593907E-02 -0.16860886778E-01 -0.95191805789E-01  0.96732117207E-01  0.51100000000E-03 0.  1.
</event>
<event>
 8    1  0.2837913E+004  0.1043930E+01  0.7957747E-01            NaN
         13   -1    0    0    0    0  0.00000000000E+00  0.00000000000E+00  0.74505805969E-08  0.10566000000E+00  0.10566000000E+00 0. -1.
     999900   -1    0    0    0    0 -0.00000000000E+00 -0.00000000000E+00 -0.74505805969E-08  0.93827000000E+00  0.93827000000E+00 0. -1.
     999902    2    1    2    0    0 -0.52917887583E-02  0.76636899984E-03  0.13295673570E-01  0.10295994283E+01  0.10294996928E+01 0.  0.
     999903    2    3    3    0    0 -0.48992024707E-01 -0.23196968345E-01 -0.11894223832E+00  0.13832460115E+00  0.45256175281E-01 0.  0.
         14    1    1    2    0    0  0.52917887583E-02 -0.76636899984E-03 -0.13295673570E-01  0.14330571705E-01  0.00000000000E+00 0.  1.
     999901    1    3    3    0    0  0.43700235948E-01  0.23963337345E-01  0.13223791189E+00  0.89127482714E+00  0.88000000000E+00 0.  1.
        -11    1    4    4    0    0 -0.92103727848E-03 -0.19234599552E-01 -0.54671611826E-01  0.57966062401E-01  0.51100000000E-03 0.  1.
         11    1    4    4    0    0 -0.48070987428E-01 -0.39623687929E-02 -0.64270626497E-01  0.80358538750E-01  0.51100000000E-03 0. -1.
</event>
<event>
 8    1  0.2837913E+004  0.1043930E+01  0.7957747E-01            NaN
         13   -1    0    0    0    0  0.00000000000E+00  0.00000000000E+00  0.74505805969E-08  0.10566000000E+00  0.10566000000E+00 0.  1.
     999900   -1    0    0    0    0 -0.00000000000E+00 -0.00000000000E+00 -0.74505805969E-08  0.93827000000E+00  0.93827000000E+00 0. -1.
     999902    2    1    2    0    0  0.15925459370E-02 -0.32174493312E-02  0.13327365695E-01  0.10301275778E+01  0.10300351060E+01 0.  0.
     999903    2    3    3    0    0  0.46976263311E-01  0.82359093773E-01 -0.89241935540E-01  0.13889052285E+00  0.48339059110E-01 0.  0.
         14    1    1    2    0    0 -0.15925459370E-02  0.32174493312E-02 -0.13327365695E-01  0.13802422219E-01  0.00000000000E+00 0. -1.
     999901    1    3    3    0    0 -0.45383717374E-01 -0.85576543104E-01  0.10256930124E+00  0.89123705493E+00  0.88000000000E+00 0.  1.
        -11    1    4    4    0    0  0.24633053801E-01  0.80261620502E-01 -0.69296767527E-01  0.10886238182E+00  0.51100000000E-03 0. -1.
         11    1    4    4    0    0  0.22343209510E-01  0.20974732714E-02 -0.19945168014E-01  0.30028141025E-01  0.51100000000E-03 0.  1.
</event>
<event>
 8    1  0.2837913E+004  0.1043930E+01  0.7957747E-01            NaN
         13   -1    0    0    0    0  0.00000000000E+00  0.00000000000E+00  0.74505805969E-08  0.10566000000E+00  0.10566000000E+00 0. -1.
     999900   -1    0    0    0    0 -0.00000000000E+00 -0.00000000000E+00 -0.74505805969E-08  0.93827000000E+00  0.93827000000E+00 0.  1.
     999902    2    1    2    0    0 -0.83492587590E-02 -0.97607643563E-02 -0.48956680346E-04  0.10310853498E+01  0.10310053412E+01 0.  0.
     999903    2    3    3    0    0  0.10143890295E+00  0.51185383202E-01  0.67468516624E-01  0.13961101893E+00  0.45049321709E-01 0.  0.
         14    1    1    2    0    0  0.83492587590E-02  0.97607643563E-02  0.48956680346E-04  0.12844650225E-01  0.00000000000E+00 0. -1.
     999901    1    3    3    0    0 -0.10978816171E+00 -0.60946147558E-01 -0.67517473304E-01  0.89147433084E+00  0.88000000000E+00 0.  1.
        -11    1    4    4    0    0  0.77828124801E-01  0.54538505375E-01  0.66012734893E-01  0.11571347315E+00  0.51100000000E-03 0. -1.
         11    1    4    4    0    0  0.23610778148E-01 -0.33531221732E-02  0.14557817311E-02  0.23897545784E-01  0.51100000000E-03 0.  1.
</event>
<event>
 8    1  0.2837913E+004  0.1043930E+01  0.7957747E-01            NaN
         13   -1    0    0    0    0  0.00000000000E+00  0.00000000000E+00  0.74505805969E-08  0.10566000000E+00  0.10566000000E+00 0.  1.
     999900   -1    0    0    0    0 -0.00000000000E+00 -0.00000000000E+00 -0.74505805969E-08  0.93827000000E+00  0.93827000000E+00 0.  1.
     999902    2    1    2    0    0  0.18226950122E-02  0.51090773797E-02  0.12775515947E-01  0.10300505657E+01  0.10299570521E+01 0.  0.
     999903    2    3    3    0    0 -0.47241997487E-01  0.11822177614E+00  0.40557665386E-01  0.14102094049E+00  0.45097524924E-01 0.  0.
         14    1    1    2    0    0 -0.18226950122E-02 -0.51090773797E-02 -0.12775515947E-01  0.13879434301E-01  0.00000000000E+00 0. -1.
     999901    1    3    3    0    0  0.49064692499E-01 -0.11311269876E+00 -0.27782149439E-01  0.88902962521E+00  0.88000000000E+00 0.  1.
        -11    1    4    4    0    0 -0.25357346495E-01  0.67798963863E-01 -0.53507645557E-03  0.72389515470E-01  0.51100000000E-03 0. -1.
         11    1    4    4    0    0 -0.21884650992E-01  0.50422812280E-01  0.41092741842E-01  0.68631425020E-01  0.51100000000E-03 0.  1.
</event>
<event>
 8    1  0.2837913E+004  0.1043930E+01  0.7957747E-01            NaN
         13   -1    0    0    0    0  0.00000000000E+00  0.00000000000E+00  0.74505805969E-08  0.10566000000E+00  0.10566000000E+00 0. -1.
     999900   -1    0    0    0    0 -0.00000000000E+00 -0.00000000000E+00 -0.74505805969E-08  0.93827000000E+00  0.93827000000E+00 0.  1.
     999902    2    1    2    0    0 -0.87638992143E-02 -0.82806332619E-02 -0.57378370287E-02  0.10305771879E+01  0.10304906805E+01 0.  0.
     999903    2    3    3    0    0 -0.11222109565E+00  0.71336310712E-01 -0.14792212156E-01  0.14090071247E+00  0.44178701863E-01 0.  0.
         14    1    1    2    0    0  0.87638992143E-02  0.82806332619E-02  0.57378370287E-02  0.13352812079E-01  0.00000000000E+00 0. -1.
     999901    1    3    3    0    0  0.10345719644E+00 -0.79616943974E-01  0.90543751272E-02  0.88967647545E+00  0.88000000000E+00 0. -1.
        -11    1    4    4    0    0 -0.74610552034E-01  0.46248432939E-01  0.11603076456E-01  0.88546849342E-01  0.51100000000E-03 0. -1.
         11    1    4    4    0    0 -0.37610543620E-01  0.25087877772E-01 -0.26395288612E-01  0.52353863128E-01  0.51100000000E-03 0.  1.
</event>
<event>
 8    1  0.2837913E+004  0.1043930E+01  0.7957747E-01            NaN
         13   -1    0    0    0    0  0.00000000000E+00  0.00000000000E+00  0.74505805969E-08  0.10566000000E+00  0.10566000000E+00 0.  1.
     999900   -1    0    0    0    0 -0.00000000000E+00 -0.00000000000E+00 -0.74505805969E-08  0.93827000000E+00  0.93827000000E+00 0.  1.
     999902    2    1    2    0    0  0.12556313469E-01 -0.56485866864E-02 -0.41342503516E-02  0.10295543412E+01  0.10294539727E+01 0.  0.
     999903    2    3    3    0    0  0.24377707357E-01  0.11649748498E+00 -0.57858432028E-01  0.13941632053E+00  0.43856306844E-01 0.  0.
         14    1    1    2    0    0 -0.12556313469E-01  0.56485866864E-02  0.41342503516E-02  0.14375658783E-01  0.00000000000E+00 0.  1.
     999901    1    3    3    0    0 -0.11821393888E-01 -0.12214607167E+00  0.53724181677E-01  0.89013802069E+00  0.88000000000E+00 0.  1.
        -11    1    4    4    0    0  0.15847525027E-01  0.23845116132E-01 -0.31795096349E-01  0.42789284706E-01  0.51100000000E-03 0.  1.
         11    1    4    4    0    0  0.85301823296E-02  0.92652368850E-01 -0.26063335679E-01  0.96627035822E-01  0.51100000000E-03 0. -1.
</event>
<event>
 8    1  0.2837913E+004  0.1043930E+01  0.7957747E-01            NaN
         13   -1    0    0    0    0  0.00000000000E+00  0.00000000000E+00  0.74505805969E-08  0.10566000000E+00  0.10566000000E+00 0. -1.
     999900   -1    0    0    0    0 -0.00000000000E+00 -0.00000000000E+00 -0.74505805969E-08  0.93827000000E+00  0.93827000000E+00 0.  1.
     999902    2    1    2    0    0 -0.20144918105E-01  0.90897341560E-03  0.43457352357E-02  0.10233016367E+01  0.10230936957E+01 0.  0.
     999903    2    3    3    0    0  0.56883231349E-01  0.17916697216E-01 -0.10906708651E+00  0.13252384924E+00  0.45937252973E-01 0.  0.
         14    1    1    2    0    0  0.20144918105E-01 -0.90897341560E-03 -0.43457352357E-02  0.20628363311E-01  0.00000000000E+00 0.  1.
     999901    1    3    3    0    0 -0.77028149454E-01 -0.17007723801E-01  0.11341282174E+00  0.89077778745E+00  0.88000000000E+00 0. -1.
        -11    1    4    4    0    0  0.28157512262E-01 -0.13253154756E-01 -0.60660807151E-01  0.68179808249E-01  0.51100000000E-03 0. -1.
         11    1    4    4    0    0  0.28725719087E-01  0.31169851972E-01 -0.48406279355E-01  0.64344040991E-01  0.51100000000E-03 0.  1.
</event>
<event>
 8    1  0.2837913E+004  0.1043930E+01  0.7957747E-01            NaN
         13   -1    0    0    0    0  0.00000000000E+00  0.00000000000E+00  0.74505805969E-08  0.10566000000E+00  0.10566000000E+00 0. -1.
     999900   -1    0    0    0    0 -0.00000000000E+00 -0.00000000000E+00 -0.74505805969E-08  0.93827000000E+00  0.93827000000E+00 0. -1.
     999902    2    1    2    0    0 -0.51667217467E-02  0.74375605162E-02  0.13561194232E-01  0.10276229982E+01  0.10274936049E+01 0.  0.
     999903    2    3    3    0    0 -0.11403362153E+00 -0.10285474088E-01 -0.61363259548E-01  0.13757817817E+00  0.45308362018E-01 0.  0.
         14    1    1    2    0    0  0.51667217467E-02 -0.74375605162E-02 -0.13561194232E-01  0.16307001841E-01  0.00000000000E+00 0.  1.
     999901    1    3    3    0    0  0.10886689978E+00  0.17723034604E-01  0.74924453780E-01  0.89004481999E+00  0.88000000000E+00 0. -1.
        -11    1    4    4    0    0 -0.23910015252E-01 -0.14153044891E-01 -0.32727351176E-01  0.42934114001E-01  0.51100000000E-03 0. -1.
         11    1    4    4    0    0 -0.90123606277E-01  0.38675708036E-02 -0.28635908372E-01  0.94644064164E-01  0.51100000000E-03 0.  1.
</event>
<event>
 8    1  0.2837913E+004  0.1043930E+01  0.7957747E-01            NaN
         13   -1    0    0    0    0  0.00000000000E+00  0.00000000000E+00  0.74505805969E-08  0.10566000000E+00  0.10566000000E+00 0.  1.
     999900   -1    0    0    0    0 -0.00000000000E+00 -0.00000000000E+00 -0.74505805969E-08  0.93827000000E+00  0.93827000000E+00 0. -1.
     999902    2    1    2    0    0 -0.11219606740E-01  0.41447743027E-02  0.68854083092E-02  0.10301290009E+01  0.10300365483E+01 0.  0.
     999903    2    3    3    0    0 -0.26190817395E-01 -0.17243071985E-01 -0.12803460985E+00  0.13946352584E+00  0.45540435574E-01 0.  0.
         14    1    1    2    0    0  0.11219606740E-01 -0.41447743027E-02 -0.68854083092E-02  0.13800999130E-01  0.00000000000E+00 0. -1.
     999901    1    3    3    0    0  0.14971210656E-01  0.21387846287E-01  0.13492001816E+00  0.89066547503E+00  0.88000000000E+00 0.  1.
        -11    1    4    4    0    0  0.11689535716E-01 -0.10681978857E-01 -0.50373942965E-01  0.52806677309E-01  0.51100000000E-03 0.  1.
         11    1    4    4    0    0 -0.37880353112E-01 -0.65610931271E-02 -0.77660666883E-01  0.86656848527E-01  0.51100000000E-03 0. -1.
</event>
<event>
 8    1  0.2837913E+004  0.1043930E+01  0.7957747E-01            NaN
         13   -1    0    0    0    0  0.00000000000E+00  0.00000000000E+00  0.74505805969E-08  0.10566000000E+00  0.10566000000E+00 0.  1.
     999900   -1    0    0    0    0 -0.00000000000E+00 -0.00000000000E+00 -0.74505805969E-08  0.93827000000E+00  0.93827000000E+00 0. -1.
     999902    2    1    2    0    0  0.56995142809E-02 -0.12574542017E-01 -0.33906475858E-02  0.10297138099E+01  0.10296156711E+01 0.  0.
     999903    2    3    3    0    0 -0.12558343852E-01 -0.13308664739E+00  0.78845122105E-02  0.14124116195E+00  0.44912499175E-01 0.  0.
         14    1    1    2    0    0 -0.56995142809E-02  0.12574542017E-01  0.33906475858E-02  0.14216190103E-01  0.00000000000E+00 0. -1.
     999901    1    3    3    0    0  0.18257858133E-01  0.12051210537E+00 -0.11275159796E-01  0.88847264795E+00  0.88000000000E+00 0. -1.
        -11    1    4    4    0    0  0.24826962807E-02 -0.76085932852E-01 -0.15725216950E-01  0.77735297825E-01  0.51100000000E-03 0. -1.
         11    1    4    4    0    0 -0.15041040132E-01 -0.57000714537E-01  0.23609729161E-01  0.63505864123E-01  0.51100000000E-03 0.  1.
</event>
<event>
 8    1  0.2837913E+004  0.1043930E+01  0.7957747E-01            NaN
         13   -1    0    0    0    0  0.00000000000E+00  0.00000000000E+00  0.74505805969E-08  0.10566000000E+00  0.10566000000E+00 0.  1.
     999900   -1    0    0    0    0 -0.00000000000E+00 -0.00000000000E+00 -0.74505805969E-08  0.93827000000E+00  0.93827000000E+00 0. -1.
     999902    2    1    2    0    0  0.47832664708E-02  0.12980753040E-01  0.34323221334E-02  0.10296765645E+01  0.10295779073E+01 0.  0.
     999903    2    3    3    0    0 -0.65093075230E-01  0.10932297748E+00 -0.38846804895E-01  0.14065910017E+00  0.45686829206E-01 0.  0.
         14    1    1    2    0    0 -0.47832664708E-02 -0.12980753040E-01 -0.34323221334E-02  0.14253435475E-01  0.00000000000E+00 0. -1.
     999901    1    3    3    0    0  0.69876341701E-01 -0.96342224440E-01  0.42279127029E-01  0.88901746435E+00  0.88000000000E+00 0.  1.
        -11    1    4    4    0    0 -0.87904827697E-02  0.27933335929E-01 -0.28977888297E-01  0.41201006961E-01  0.51100000000E-03 0. -1.
         11    1    4    4    0    0 -0.56302592461E-01  0.81389641551E-01 -0.98689165985E-02  0.99458093212E-01  0.51100000000E-03 0.  1.
</event>
<event>
 8    1  0.2837913E+004  0.1043930E+01  0.7957747E-01            NaN
         13   -1    0    0    0    0  0.00000000000E+00  0.00000000000E+00  0.74505805969E-08  0.10566000000E+00  0.10566000000E+00 0. -1.
     999900   -1    0    0    0    0 -0.00000000000E+00 -0.00000000000E+00 -0.74505805969E-08  0.93827000000E+00  0.93827000000E+00 0.  1.
     999902    2    1    2    0    0 -0.23499858768E-03  0.10436025867E-01 -0.94064279218E-02  0.10298784255E+01  0.10297825618E+01 0.  0.
     999903    2    3    3    0    0 -0.44860357678E-01 -0.10208717276E+00  0.67666621806E-01  0.13825454295E+00  0.45839986998E-01 0.  0.
         14    1    1    2    0    0  0.23499858768E-03 -0.10436025867E-01  0.94064279218E-02  0.14051574519E-01  0.00000000000E+00 0. -1.
     999901    1    3    3    0    0  0.44625359090E-01  0.11252319862E+00 -0.77073049728E-01  0.89162388253E+00  0.88000000000E+00 0.  1.
        -11    1    4    4    0    0 -0.44663984237E-01 -0.45007803250E-01  0.33232527873E-01  0.71590752693E-01  0.51100000000E-03 0. -1.
         11    1    4    4    0    0 -0.19637344066E-03 -0.57079369505E-01  0.34434093932E-01  0.66663790258E-01  0.51100000000E-03 0.  1.
</event>
<event>
 8    1  0.2837913E+004  0.1043930E+01  0.7957747E-01            NaN
         13   -1    0    0    0    0  0.00000000000E+00  0.00000000000E+00  0.74505805969E-08  0.10566000000E+00  0.10566000000E+00 0.  1.
     999900   -1    0    0    0    0 -0.00000000000E+00 -0.00000000000E+00 -0.74505805969E-08  0.93827000000E+00  0.93827000000E+00 0. -1.
     999902    2    1    2    0    0  0.46081332500E-02 -0.12874837074E-02  0.12977624429E-01  0.10300984693E+01  0.10300056044E+01 0.  0.
     999903    2    3    3    0    0  0.13096932985E+00 -0.46351742347E-02  0.22384534993E-01  0.14101644325E+00  0.47011909761E-01 0.  0.
         14    1    1    2    0    0 -0.46081332500E-02  0.12874837074E-02 -0.12977624429E-01  0.13831530724E-01  0.00000000000E+00 0. -1.
     999901    1    3    3    0    0 -0.12636119660E+00  0.33476905273E-02 -0.94069105643E-02  0.88908202603E+00  0.88000000000E+00 0. -1.
        -11    1    4    4    0    0  0.89400751722E-01 -0.21449194634E-01  0.25290413510E-02  0.91974015516E-01  0.51100000000E-03 0. -1.
         11    1    4    4    0    0  0.41568578124E-01  0.16814020400E-01  0.19855493642E-01  0.49042427734E-01  0.51100000000E-03 0.  1.
</event>
<event>
 8    1  0.2837913E+004  0.1043930E+01  0.7957747E-01            NaN
         13   -1    0    0    0    0  0.00000000000E+00  0.00000000000E+00  0.74505805969E-08  0.10566000000E+00  0.10566000000E+00 0.  1.
     999900   -1    0    0    0    0 -0.00000000000E+00 -0.00000000000E+00 -0.74505805969E-08  0.93827000000E+00  0.93827000000E+00 0.  1.
     999902    2    1    2    0    0 -0.11108943204E-01 -0.80807964744E-02 -0.15015175147E-02  0.10301110838E+01  0.10300183894E+01 0.  0.
     999903    2    3    3    0    0 -0.60390810706E-01 -0.43212642206E-01  0.11103663059E+00  0.14088232590E+00  0.44769565038E-01 0.  0.
         14    1    1    2    0    0  0.11108943204E-01  0.80807964744E-02  0.15015175147E-02  0.13818916224E-01  0.00000000000E+00 0. -1.
     999901    1    3    3    0    0  0.49281867502E-01  0.35131845732E-01 -0.11253814811E+00  0.88922875787E+00  0.88000000000E+00 0.  1.
        -11    1    4    4    0    0 -0.33849126296E-01 -0.67631510697E-03  0.62583243408E-01  0.71155774394E-01  0.51100000000E-03 0. -1.
         11    1    4    4    0    0 -0.26541684410E-01 -0.42536327099E-01  0.48453387186E-01  0.69726551508E-01  0.51100000000E-03 0.  1.
</event>
<event>
 8    1  0.2837913E+004  0.1043930E+01  0.7957747E-01            NaN
         13   -1    0    0    0    0  0.00000000000E+00  0.00000000000E+00  0.74505805969E-08  0.10566000000E+00  0.10566000000E+00 0.  1.
     999900   -1    0    0    0    0 -0.00000000000E+00 -0.00000000000E+00 -0.74505805969E-08  0.93827000000E+00  0.93827000000E+00 0. -1.
     999902    2    1    2    0    0  0.40170713750E-02 -0.12862503159E-01 -0.41780640733E-03  0.10304483305E+01  0.10303601343E+01 0.  0.
     999903    2    3    3    0    0 -0.10754406914E+00  0.74205000965E-01  0.14981924067E-01  0.13900916262E+00  0.45021997622E-01 0.  0.
         14    1    1    2    0    0 -0.40170713750E-02  0.12862503159E-01  0.41780640733E-03  0.13481669487E-01  0.00000000000E+00 0. -1.
     999901    1    3    3    0    0  0.11156114051E+00 -0.87067504124E-01 -0.15399730475E-01  0.89143916789E+00  0.88000000000E+00 0. -1.
        -11    1    4    4    0    0 -0.85356243921E-01  0.49027958744E-01  0.29026364951E-01  0.10262660522E+00  0.51100000000E-03 0. -1.
         11    1    4    4    0    0 -0.22187825217E-01  0.25177042220E-01 -0.14044440884E-01  0.36382557408E-01  0.51100000000E-03 0.  1.
</event>
<event>
 8    1  0.2837913E+004  0.1043930E+01  0.7957747E-01            NaN
         13   -1    0    0    0    0  0.00000000000E+00  0.00000000000E+00  0.74505805969E-08  0.10566000000E+00  0.10566000000E+00 0. -1.
     999900   -1    0    0    0    0 -0.00000000000E+00 -0.00000000000E+00 -0.74505805969E-08  0.93827000000E+00  0.93827000000E+00 0.  1.
     999902    2    1    2    0    0  0.12264051463E-01 -0.11332061621E-03 -0.27311836508E-03  0.10316623844E+01  0.10315894440E+01 0.  0.
     999903    2    3    3    0    0 -0.71585651069E-01  0.94561409799E-01  0.60353493091E-01  0.14055651904E+00  0.45246273370E-01 0.  0.
         14    1    1    2    0    0 -0.12264051463E-01  0.11332061621E-03  0.27311836508E-03  0.12267615640E-01  0.00000000000E+00 0. -1.
     999901    1    3    3    0    0  0.83849702532E-01 -0.94674730415E-01 -0.60626611456E-01  0.89110586532E+00  0.88000000000E+00 0.  1.
        -11    1    4    4    0    0 -0.72228379795E-01  0.70502592664E-01  0.38450265108E-01  0.10801036260E+00  0.51100000000E-03 0. -1.
         11    1    4    4    0    0  0.64272872633E-03  0.24058817134E-01  0.21903227983E-01  0.32546156443E-01  0.51100000000E-03 0.  1.
</event>
<event>
 8    1  0.2837913E+004  0.1043930E+01  0.7957747E-01            NaN
         13   -1    0    0    0    0  0.00000000000E+00  0.00000000000E+00  0.74505805969E-08  0.10566000000E+00  0.10566000000E+00 0.  1.
     999900   -1    0    0    0    0 -0.00000000000E+00 -0.00000000000E+00 -0.74505805969E-08  0.93827000000E+00  0.93827000000E+00 0.  1.
     999902    2    1    2    0    0  0.29891581305E-02 -0.92321941224E-02  0.10406405717E-01  0.10297010944E+01  0.10296027788E+01 0.  0.
     999903    2    3    3    0    0  0.10228533760E+00  0.32675647640E-01 -0.75078269165E-01  0.13901392816E+00  0.46455758383E-01 0.  0.
         14    1    1    2    0    0 -0.29891581305E-02  0.92321941224E-02 -0.10406405717E-01  0.14228905600E-01  0.00000000000E+00 0. -1.
     999901    1    3    3    0    0 -0.99296179465E-01 -0.41907841763E-01  0.85484674881E-01  0.89068716624E+00  0.88000000000E+00 0.  1.
        -11    1    4    4    0    0  0.30875175988E-01  0.14414722584E-01 -0.39290382086E-03  0.34080437408E-01  0.51100000000E-03 0.  1.
         11    1    4    4    0    0  0.71410161608E-01  0.18260925056E-01 -0.74685365344E-01  0.10493349076E+00  0.51100000000E-03 0. -1.
</event>
<event>
 8    1  0.2837913E+004  0.1043930E+01  0.7957747E-01            NaN
         13   -1    0    0    0    0  0.00000000000E+00  0.00000000000E+00  0.74505805969E-08  0.10566000000E+00  0.10566000000E+00 0. -1.
     999900   -1    0    0    0    0 -0.00000000000E+00 -0.00000000000E+00 -0.74505805969E-08  0.93827000000E+00  0.93827000000E+00 0.  1.
     999902    2    1    2    0    0 -0.60596428766E-02 -0.92932098779E-02  0.93878129412E-02  0.10293967948E+01  0.10292941985E+01 0.  0.
     999903    2    3    3    0    0  0.58315118887E-01  0.11360732041E+00  0.28188052277E-01  0.13832884043E+00  0.45089083630E-01 0.  0.
         14    1    1    2    0    0  0.60596428766E-02  0.92932098779E-02 -0.93878129412E-02  0.14533205202E-01  0.00000000000E+00 0. -1.
     999901    1    3    3    0    0 -0.64374761763E-01 -0.12290053029E+00 -0.18800239335E-01  0.89106795437E+00  0.88000000000E+00 0.  1.
        -11    1    4    4    0    0  0.40081768783E-01  0.75992322076E-01  0.40166905388E-01  0.94842093043E-01  0.51100000000E-03 0.  1.
         11    1    4    4    0    0  0.18233350103E-01  0.37614998335E-01 -0.11978853111E-01  0.43486747390E-01  0.51100000000E-03 0. -1.
</event>
<event>
 7    1  0.2837913E+004  0.1043930E+01  0.7957747E-01            NaN
         13   -1    0    0    0    0  0.00000000000E+00  0.00000000000E+00  0.74505805969E-08  0.10566000000E+00  0.10566000000E+00 0. -1.
     999900   -1    0    0    0    0 -0.00000000000E+00 -0.00000000000E+00 -0.74505805969E-08  0.93827000000E+00  0.93827000000E+00 0.  1.
     999903    2    1    2    0    0 -0.48201755563E-01 -0.37010498836E-01  0.55601409442E-01  0.95017745036E-01  0.47367381986E-01 0.  0.
         14    1    1    2    0    0  0.51290470306E-01  0.28431633146E-01  0.27843362047E-01  0.64917816642E-01  0.00000000000E+00 0. -1.
     999901    1    1    2    0    0 -0.30887147430E-02  0.85788656904E-02 -0.83444771489E-01  0.88399443832E+00  0.88000000000E+00 0.  1.
        -11    1    3    3    0    0 -0.34907219303E-02 -0.59680711250E-02  0.36772033240E-01  0.37419868548E-01  0.51100000000E-03 0. -1.
         11    1    3    3    0    0 -0.44711033633E-01 -0.31042427711E-01  0.18829376202E-01  0.57597876488E-01  0.51100000000E-03 0.  1.
</event>
<event>
 8    1  0.2837913E+004  0.1043930E+01  0.7957747E-01            NaN
         13   -1    0    0    0    0  0.00000000000E+00  0.00000000000E+00  0.74505805969E-08  0.10566000000E+00  0.10566000000E+00 0. -1.
     999900   -1    0    0    0    0 -0.00000000000E+00 -0.00000000000E+00 -0.74505805969E-08  0.93827000000E+00  0.93827000000E+00 0. -1.
     999902    2    1    2    0    0  0.41419974121E-02 -0.74750888406E-02 -0.72143659875E-02  0.10327460753E+01  0.10326855164E+01 0.  0.
     999903    2    3    3    0    0 -0.47563142058E-01 -0.96658181980E-01  0.81323535650E-01  0.14231583905E+00  0.45113456618E-01 0.  0.
         14    1    1    2    0    0 -0.41419974121E-02  0.74750888406E-02  0.72143659875E-02  0.11183924729E-01  0.00000000000E+00 0. -1.
     999901    1    3    3    0    0  0.51705139470E-01  0.89183093139E-01 -0.88537901637E-01  0.89043023622E+00  0.88000000000E+00 0. -1.
        -11    1    4    4    0    0  0.40985139829E-02 -0.31414232264E-01  0.34433260391E-01  0.46792759566E-01  0.51100000000E-03 0. -1.
         11    1    4    4    0    0 -0.51661656041E-01 -0.65243949716E-01  0.46890275258E-01  0.95523079485E-01  0.51100000000E-03 0.  1.
</event>
<event>
 8    1  0.2837913E+004  0.1043930E+01  0.7957747E-01            NaN
         13   -1    0    0    0    0  0.00000000000E+00  0.00000000000E+00  0.74505805969E-08  0.10566000000E+00  0.10566000000E+00 0.  1.
     999900   -1    0    0    0    0 -0.00000000000E+00 -0.00000000000E+00 -0.74505805969E-08  0.93827000000E+00  0.93827000000E+00 0. -1.
     999902    2    1    2    0    0  0.96228868087E-02 -0.73202150800E-02 -0.17671298877E-01  0.10225183139E+01  0.10222941073E+01 0.  0.
     999903    2    3    3    0    0 -0.11190305595E+00  0.36922385865E-01  0.37100241143E-01  0.13138090353E+00  0.44709701511E-01 0.  0.
         14    1    1    2    0    0 -0.96228868087E-02  0.73202150800E-02  0.17671298877E-01  0.21411686140E-01  0.00000000000E+00 0.  1.
     999901    1    3    3    0    0  0.12152594276E+00 -0.44242600945E-01 -0.54771540020E-01  0.89113741033E+00  0.88000000000E+00 0. -1.
        -11    1    4    4    0    0 -0.16467202552E-03  0.74882531605E-02  0.10328712409E-01  0.12768886925E-01  0.51100000000E-03 0. -1.
         11    1    4    4    0    0 -0.11173838393E+00  0.29434132705E-01  0.26771528734E-01  0.11861201660E+00  0.51100000000E-03 0.  1.
</event>
<event>
 8    1  0.2837913E+004  0.1043930E+01  0.7957747E-01            NaN
         13   -1    0    0    0    0  0.00000000000E+00  0.00000000000E+00  0.74505805969E-08  0.10566000000E+00  0.10566000000E+00 0.  1.
     999900   -1    0    0    0    0 -0.00000000000E+00 -0.00000000000E+00 -0.74505805969E-08  0.93827000000E+00  0.93827000000E+00 0. -1.
     999902    2    1    2    0    0  0.44289982232E-03  0.93001689389E-02  0.93490686640E-02  0.10307355168E+01  0.10306510618E+01 0.  0.
     999903    2    3    3    0    0 -0.11399179082E+00  0.47445349154E-01 -0.51015060490E-01  0.14045793013E+00  0.43367086718E-01 0.  0.
         14    1    1    2    0    0 -0.44289982232E-03 -0.93001689389E-02 -0.93490686640E-02  0.13194483219E-01  0.00000000000E+00 0. -1.
     999901    1    3    3    0    0  0.11443469064E+00 -0.38145180215E-01  0.60364129154E-01  0.89027758665E+00  0.88000000000E+00 0.  1.
        -11    1    4    4    0    0 -0.36331882845E-01  0.36272345175E-01 -0.29004639589E-01  0.58967948703E-01  0.51100000000E-03 0.  1.
         11    1    4    4    0    0 -0.77659907974E-01  0.11173003979E-01 -0.22010420901E-01  0.81489981432E-01  0.51100000000E-03 0. -1.
</event>
<event>
 8    1  0.2837913E+004  0.1043930E+01  0.7957747E-01            NaN
         13   -1    0    0    0    0  0.00000000000E+00  0.00000000000E+00  0.74505805969E-08  0.10566000000E+00  0.10566000000E+00 0.  1.
     999900   -1    0    0    0    0 -0.00000000000E+00 -0.00000000000E+00 -0.74505805969E-08  0.93827000000E+00  0.93827000000E+00 0. -1.
     999902    2    1    2    0    0 -0.68289075231E-02  0.86405483368E-02 -0.84800419292E-02  0.10300302099E+01  0.10299364200E+01 0.  0.
     999903    2    3    3    0    0  0.75786112428E-01 -0.88514237253E-01  0.59315166786E-01  0.13825642457E+00  0.44924880537E-01 0.  0.
         14    1    1    2    0    0  0.68289075231E-02 -0.86405483368E-02  0.84800419292E-02  0.13899790093E-01  0.00000000000E+00 0.  1.
     999901    1    3    3    0    0 -0.82615019951E-01  0.97154785590E-01 -0.67795208715E-01  0.89177378533E+00  0.88000000000E+00 0.  1.
        -11    1    4    4    0    0  0.42545600038E-01 -0.17110780830E-01  0.26182652496E-01  0.52808136835E-01  0.51100000000E-03 0. -1.
         11    1    4    4    0    0  0.33240512390E-01 -0.71403456423E-01  0.33132514290E-01  0.85448287738E-01  0.51100000000E-03 0.  1.
</event>
<event>
 8    1  0.2837913E+004  0.1043930E+01  0.7957747E-01            NaN
         13   -1    0    0    0    0  0.00000000000E+00  0.00000000000E+00  0.74505805969E-08  0.10566000000E+00  0.10566000000E+00 0.  1.
     999900   -1    0    0    0    0 -0.00000000000E+00 -0.00000000000E+00 -0.74505805969E-08  0.93827000000E+00  0.93827000000E+00 0. -1.
     999902    2    1    2    0    0 -0.85770308747E-02  0.97061437448E-02  0.59976788311E-02  0.10296560084E+01  0.10295570644E+01 0.  0.
     999903    2    3    3    0    0 -0.76653319240E-01 -0.99401349926E-01 -0.39568576380E-01  0.13914205015E+00  0.45149509029E-01 0.  0.
         14    1    1    2    0    0  0.85770308747E-02 -0.97061437448E-02 -0.59976788311E-02  0.14273991606E-01  0.00000000000E+00 0. -1.
     999901    1    3    3    0    0  0.68076288365E-01  0.10910749367E+00  0.45566255211E-01  0.89051395824E+00  0.88000000000E+00 0.  1.
        -11    1    4    4    0    0 -0.22341883005E-02 -0.28170299643E-01 -0.19100238062E-01  0.34112132656E-01  0.51100000000E-03 0.  1.
         11    1    4    4    0    0 -0.74419130940E-01 -0.71231050283E-01 -0.20468338318E-01  0.10502991749E+00  0.51100000000E-03 0. -1.
</event>
<event>
 8    1  0.2837913E+004  0.1043930E+01  0.7957747E-01            NaN
         13   -1    0    0    0    0  0.00000000000E+00  0.00000000000E+00  0.74505805969E-08  0.10566000000E+00  0.10566000000E+00 0. -1.
     999900   -1    0    0    0    0 -0.00000000000E+00 -0.00000000000E+00 -0.74505805969E-08  0.93827000000E+00  0.93827000000E+00 0.  1.
     999902    2    1    2    0    0  0.11710483927E-01  0.54349840645E-02  0.13857955459E-02  0.10309455895E+01  0.10308638192E+01 0.  0.
     999903    2    3    3    0    0 -0.39135818200E-01 -0.12159159411E+00 -0.25641471203E-01  0.13996210420E+00  0.51144672665E-01 0.  0.
         14    1    1    2    0    0 -0.11710483927E-01 -0.54349840645E-02 -0.13857955459E-02  0.12984410456E-01  0.00000000000E+00 0.  1.
     999901    1    3    3    0    0  0.50846302127E-01  0.12702657818E+00  0.27027266749E-01  0.89098348534E+00  0.88000000000E+00 0.  1.
        -11    1    4    4    0    0 -0.47357896043E-01 -0.10024253708E+00 -0.81636058645E-02  0.11116763080E+00  0.51100000000E-03 0. -1.
         11    1    4    4    0    0  0.82220778431E-02 -0.21349057039E-01 -0.17477865338E-01  0.28794473398E-01  0.51100000000E-03 0.  1.
</event>
<event>
 8    1  0.2837913E+004  0.1043930E+01  0.7957747E-01            NaN
         13   -1    0    0    0    0  0.00000000000E+00  0.00000000000E+00  0.74505805969E-08  0.10566000000E+00  0.10566000000E+00 0.  1.
     999900   -1    0    0    0    0 -0.00000000000E+00 -0.00000000000E+00 -0.74505805969E-08  0.93827000000E+00  0.93827000000E+00 0. -1.
     999902    2    1    2    0    0  0.30259041981E-02  0.13568060852E-01  0.20326630390E-02  0.10298807975E+01  0.10297849664E+01 0.  0.
     999903    2    3    3    0    0  0.75526189633E-01 -0.71316782609E-01  0.81360019265E-01  0.13928854655E+00  0.44626871520E-01 0.  0.
         14    1    1    2    0    0 -0.30259041981E-02 -0.13568060852E-01 -0.20326630390E-02  0.14049202487E-01  0.00000000000E+00 0. -1.
     999901    1    3    3    0    0 -0.72500285435E-01  0.84884843461E-01 -0.79327356226E-01  0.89059225097E+00  0.88000000000E+00 0.  1.
        -11    1    4    4    0    0  0.65846317615E-01 -0.61874544971E-01  0.86236404794E-01  0.12490466561E+00  0.51100000000E-03 0. -1.
         11    1    4    4    0    0  0.96798720181E-02 -0.94422376383E-02 -0.48763855280E-02  0.14383880934E-01  0.51100000000E-03 0.  1.
</event>
<event>
 8    1  0.2837913E+004  0.1043930E+01  0.7957747E-01            NaN
         13   -1    0    0    0    0  0.00000000000E+00  0.00000000000E+00  0.74505805969E-08  0.10566000000E+00  0.10566000000E+00 0. -1.
     999900   -1    0    0    0    0 -0.00000000000E+00 -0.00000000000E+00 -0.74505805969E-08  0.93827000000E+00  0.93827000000E+00 0.  1.
     999902    2    1    2    0    0  0.12256603552E-01  0.59910394578E-02 -0.58371568533E-02  0.10290912236E+01  0.10289842357E+01 0.  0.
     999903    2    3    3    0    0  0.21981879175E-01 -0.50308652766E-01 -0.12084334079E+00  0.13977088838E+00  0.43802108030E-01 0.  0.
         14    1    1    2    0    0 -0.12256603552E-01 -0.59910394578E-02  0.58371568533E-02  0.14838776383E-01  0.00000000000E+00 0.  1.
     999901    1    3    3    0    0 -0.97252756233E-02  0.56299692224E-01  0.11500618394E+00  0.88932033524E+00  0.88000000000E+00 0. -1.
        -11    1    4    4    0    0 -0.86702801147E-02  0.14577322674E-02 -0.26039540189E-01  0.27488497865E-01  0.51100000000E-03 0. -1.
         11    1    4    4    0    0  0.30652159290E-01 -0.51766385034E-01 -0.94803800604E-01  0.11228239051E+00  0.51100000000E-03 0.  1.
</event>
<event>
 8    1  0.2837913E+004  0.1043930E+01  0.7957747E-01            NaN
         13   -1    0    0    0    0  0.00000000000E+00  0.00000000000E+00  0.74505805969E-08  0.10566000000E+00  0.10566000000E+00 0.  1.
     999900   -1    0    0    0    0 -0.00000000000E+00 -0.00000000000E+00 -0.74505805969E-08  0.93827000000E+00  0.93827000000E+00 0. -1.
     999902    2    1    2    0    0 -0.13030994919E-01 -0.13128585747E-02  0.44011668038E-02  0.10301133182E+01  0.10300206540E+01 0.  0.
     999903    2    3    3    0    0  0.31723361795E-01  0.95790618470E-01  0.87137259429E-01  0.13978905217E+00  0.42022170985E-01 0.  0.
         14    1    1    2    0    0  0.13030994919E-01  0.13128585747E-02 -0.44011668038E-02  0.13816681782E-01  0.00000000000E+00 0. -1.
     999901    1    3    3    0    0 -0.44754356714E-01 -0.97103477044E-01 -0.82736092625E-01  0.89032426605E+00  0.88000000000E+00 0. -1.
        -11    1    4    4    0    0  0.24202573856E-01  0.15704970735E-01  0.23906949702E-01  0.37472844195E-01  0.51100000000E-03 0. -1.
         11    1    4    4    0    0  0.75207879390E-02  0.80085647735E-01  0.63230309727E-01  0.10231620797E+00  0.51100000000E-03 0.  1.
</event>
<event>
 8    1  0.2837913E+004  0.1043930E+01  0.7957747E-01            NaN
         13   -1    0    0    0    0  0.00000000000E+00  0.00000000000E+00  0.74505805969E-08  0.10566000000E+00  0.10566000000E+00 0. -1.
     999900   -1    0    0    0    0 -0.00000000000E+00 -0.00000000000E+00 -0.74505805969E-08  0.93827000000E+00  0.93827000000E+00 0. -1.
     999902    2    1    2    0    0  0.47665689595E-02  0.11906962296E-01 -0.39968980410E-02  0.10304960458E+01  0.10304084769E+01 0.  0.
     999903    2    3    3    0    0 -0.10642943770E+00  0.78595087869E-01 -0.17541194602E-01  0.14089202945E+00  0.45149279138E-01 0.  0.
         14    1    1    2    0    0 -0.47665689595E-02 -0.11906962296E-01  0.39968980410E-02  0.13433954172E-01  0.00000000000E+00 0. -1.
     999901    1    3    3    0    0  0.11119600666E+00 -0.66688125573E-01  0.13544296561E-01  0.88960401638E+00  0.88000000000E+00 0.  1.
        -11    1    4    4    0    0 -0.46589576279E-01  0.60251024995E-01 -0.10763905323E-02  0.76172136431E-01  0.51100000000E-03 0.  1.
         11    1    4    4    0    0 -0.59839861424E-01  0.18344062874E-01 -0.16464804070E-01  0.64719893017E-01  0.51100000000E-03 0. -1.
</event>
<event>
 8    1  0.2837913E+004  0.1043930E+01  0.7957747E-01            NaN
         13   -1    0    0    0    0  0.00000000000E+00  0.00000000000E+00  0.74505805969E-08  0.10566000000E+00  0.10566000000E+00 0. -1.
     999900   -1    0    0    0    0 -0.00000000000E+00 -0.00000000000E+00 -0.74505805969E-08  0.93827000000E+00  0.93827000000E+00 0.  1.
     999902    2    1    2    0    0  0.46585259879E-02  0.80161202464E-02  0.10010100723E-01  0.10302858744E+01  0.10301955255E+01 0.  0.
     999903    2    3    3    0    0  0.10344731151E+00  0.78057071975E-01 -0.33582497354E-01  0.14092358953E+00  0.44016147193E-01 0.  0.
         14    1    1    2    0    0 -0.46585259879E-02 -0.80161202464E-02 -0.10010100723E-01  0.13644125647E-01  0.00000000000E+00 0.  1.
     999901    1    3    3    0    0 -0.98788785518E-01 -0.70040951728E-01  0.43592598076E-01  0.88936228483E+00  0.88000000000E+00 0. -1.
        -11    1    4    4    0    0  0.18390504714E-01  0.28123151605E-01 -0.25065153313E-01  0.41924281168E-01  0.51100000000E-03 0.  1.
         11    1    4    4    0    0  0.85056806792E-01  0.49933920369E-01 -0.85173440401E-02  0.98999308359E-01  0.51100000000E-03 0. -1.
</event>
<event>
 8    1  0.2837913E+004  0.1043930E+01  0.7957747E-01            NaN
         13   -1    0    0    0    0  0.00000000000E+00  0.00000000000E+00  0.74505805969E-08  0.10566000000E+00  0.10566000000E+00 0.  1.
     999900   -1    0    0    0    0 -0.00000000000E+00 -0.00000000000E+00 -0.74505805969E-08  0.93827000000E+00  0.93827000000E+00 0.  1.
     999902    2    1    2    0    0 -0.72828304615E-02 -0.10027115456E-01 -0.65139793225E-02  0.10299294789E+01  0.10298343153E+01 0.  0.
     999903    2    3    3    0    0  0.28631535115E-01  0.35141645009E-01  0.12301590086E+00  0.13857766934E+00  0.44901654309E-01 0.  0.
         14    1    1    2    0    0  0.72828304615E-02  0.10027115456E-01  0.65139793225E-02  0.14000521080E-01  0.00000000000E+00 0.  1.
     999901    1    3    3    0    0 -0.35914365576E-01 -0.45168760465E-01 -0.12952988018E+00  0.89135180958E+00  0.88000000000E+00 0.  1.
        -11    1    4    4    0    0 -0.73438001969E-03 -0.31253196564E-03  0.62658487433E-01  0.62665653739E-01  0.51100000000E-03 0.  1.
         11    1    4    4    0    0  0.29365915134E-01  0.35454176974E-01  0.60357413425E-01  0.75912015603E-01  0.51100000000E-03 0. -1.
</event>
<event>
 8    1  0.2837913E+004  0.1043930E+01  0.7957747E-01            NaN
         13   -1    0    0    0    0  0.00000000000E+00  0.00000000000E+00  0.74505805969E-08  0.10566000000E+00  0.10566000000E+00 0. -1.
     999900   -1    0    0    0    0 -0.00000000000E+00 -0.00000000000E+00 -0.74505805969E-08  0.93827000000E+00  0.93827000000E+00 0.  1.
     999902    2    1    2    0    0  0.70747158163E-02  0.62174963309E-02  0.10829778127E-01  0.10295775452E+01  0.10294775027E+01 0.  0.
     999903    2    3    3    0    0 -0.30565069729E-01  0.12124717273E+00 -0.42886855230E-01  0.13967077671E+00  0.45094823775E-01 0.  0.
         14    1    1    2    0    0 -0.70747158163E-02 -0.62174963309E-02 -0.10829778127E-01  0.14352454800E-01  0.00000000000E+00 0.  1.
     999901    1    3    3    0    0  0.37639785545E-01 -0.11502967640E+00  0.53716633356E-01  0.88990676849E+00  0.88000000000E+00 0. -1.
        -11    1    4    4    0    0  0.25910028434E-04  0.27009940904E-01  0.81522310258E-02  0.28218036265E-01  0.51100000000E-03 0. -1.
         11    1    4    4    0    0 -0.30590979758E-01  0.94237231829E-01 -0.51039086255E-01  0.11145274044E+00  0.51100000000E-03 0.  1.
</event>
<event>
 8    1  0.2837913E+004  0.1043930E+01  0.7957747E-01            NaN
         13   -1    0    0    0    0  0.00000000000E+00  0.00000000000E+00  0.74505805969E-08  0.10566000000E+00  0.10566000000E+00 0. -1.
     999900   -1    0    0    0    0 -0.00000000000E+00 -0.00000000000E+00 -0.74505805969E-08  0.93827000000E+00  0.93827000000E+00 0.  1.
     999902    2    1    2    0    0 -0.12075005275E-01  0.37680694218E-04  0.56171276270E-02  0.10306123690E+01  0.10305263198E+01 0.  0.
     999903    2    3    3    0    0  0.73132688228E-01 -0.78112989188E-01 -0.77167656927E-01  0.13919709049E+00  0.44395422718E-01 0.  0.
         14    1    1    2    0    0  0.12075005275E-01 -0.37680694218E-04 -0.56171276270E-02  0.13317630983E-01  0.00000000000E+00 0. -1.
     999901    1    3    3    0    0 -0.85207693503E-01  0.78150669882E-01  0.82784784554E-01  0.89141527853E+00  0.88000000000E+00 0. -1.
        -11    1    4    4    0    0  0.30203040909E-01 -0.63557175392E-01 -0.43508036722E-01  0.82734204561E-01  0.51100000000E-03 0.  1.
         11    1    4    4    0    0  0.42929647320E-01 -0.14555813796E-01 -0.33659620204E-01  0.56462885930E-01  0.51100000000E-03 0. -1.
</event>
<event>
 8    1  0.2837913E+004  0.1043930E+01  0.7957747E-01            NaN
         13   -1    0    0    0    0  0.00000000000E+00  0.00000000000E+00  0.74505805969E-08  0.10566000000E+00  0.10566000000E+00 0.  1.
     999900   -1    0    0    0    0 -0.00000000000E+00 -0.00000000000E+00 -0.74505805969E-08  0.93827000000E+00  0.93827000000E+00 0.  1.
     999902    2    1    2    0    0  0.37819054755E-02 -0.31651344860E-02  0.13083649360E-01  0.10299477696E+01  0.10298528562E+01 0.  0.
     999903    2    3    3    0    0 -0.12195474980E+00  0.37056323516E-01 -0.32401731733E-01  0.13893913216E+00  0.44811584602E-01 0.  0.
         14    1    1    2    0    0 -0.37819054755E-02  0.31651344860E-02 -0.13083649360E-01  0.13982230363E-01  0.00000000000E+00 0.  1.
     999901    1    3    3    0    0  0.12573665528E+00 -0.40221458002E-01  0.45485381093E-01  0.89100863748E+00  0.88000000000E+00 0. -1.
        -11    1    4    4    0    0 -0.86436748699E-01  0.42397895788E-01 -0.36113667812E-01  0.10282680203E+00  0.51100000000E-03 0.  1.
         11    1    4    4    0    0 -0.35518001103E-01 -0.53415722712E-02  0.37119360791E-02  0.36112330126E-01  0.51100000000E-03 0. -1.
</event>
<event>
 8    1  0.2837913E+004  0.1043930E+01  0.7957747E-01            NaN
         13   -1    0    0    0    0  0.00000000000E+00  0.00000000000E+00  0.74505805969E-08  0.10566000000E+00  0.10566000000E+00 0. -1.
     999900   -1    0    0    0    0 -0.00000000000E+00 -0.00000000000E+00 -0.74505805969E-08  0.93827000000E+00  0.93827000000E+00 0. -1.
     999902    2    1    2    0    0  0.13388205079E-01 -0.36603773292E-02 -0.26554779133E-03  0.10300478923E+01  0.10299543425E+01 0.  0.
     999903    2    3    3    0    0 -0.47645029236E-01 -0.98124415067E-01 -0.73519441835E-01  0.13987114410E+00  0.47543443091E-01 0.  0.
         14    1    1    2    0    0 -0.13388205079E-01  0.36603773292E-02  0.26554779133E-03  0.13882107659E-01  0.00000000000E+00 0.  1.
     999901    1    3    3    0    0  0.61033234315E-01  0.94464037737E-01  0.73253894044E-01  0.89017674824E+00  0.88000000000E+00 0.  1.
        -11    1    4    4    0    0 -0.55240632856E-01 -0.88026700491E-01 -0.73386668428E-01  0.12722457208E+00  0.51100000000E-03 0.  1.
         11    1    4    4    0    0  0.75956036200E-02 -0.10097714576E-01 -0.13277340736E-03  0.12646572017E-01  0.51100000000E-03 0. -1.
</event>
<event>
 8    1  0.2837913E+004  0.1043930E+01  0.7957747E-01            NaN
         13   -1    0    0    0    0  0.00000000000E+00  0.00000000000E+00  0.74505805969E-08  0.10566000000E+00  0.10566000000E+00 0. -1.
     999900   -1    0    0    0    0 -0.00000000000E+00 -0.00000000000E+00 -0.74505805969E-08  0.93827000000E+00  0.93827000000E+00 0. -1.
     999902    2    1    2    0    0 -0.21274736139E-02  0.25268779897E-02  0.12494447080E-01  0.10310062829E+01  0.10309252800E+01 0.  0.
     999903    2    3    3    0    0 -0.56026471581E-01 -0.16552401802E-01 -0.11826778975E+00  0.13950873186E+00  0.45414410143E-01 0.  0.
         14    1    1    2    0    0  0.21274736139E-02 -0.25268779897E-02 -0.12494447080E-01  0.12923717119E-01  0.00000000000E+00 0.  1.
     999901    1    3    3    0    0  0.53898997967E-01  0.19079279791E-01  0.13076223683E+00  0.89149755102E+00  0.88000000000E+00 0.  1.
        -11    1    4    4    0    0 -0.29423782925E-01  0.12709100189E-01 -0.35840446624E-01  0.48084082236E-01  0.51100000000E-03 0.  1.
         11    1    4    4    0    0 -0.26602688656E-01 -0.29261501991E-01 -0.82427343127E-01  0.91424649622E-01  0.51100000000E-03 0. -1.
</event>
<event>
 8    1  0.2837913E+004  0.1043930E+01  0.7957747E-01            NaN
         13   -1    0    0    0    0  0.00000000000E+00  0.00000000000E+00  0.74505805969E-08  0.10566000000E+00  0.10566000000E+00 0.  1.
     999900   -1    0    0    0    0 -0.00000000000E+00 -0.00000000000E+00 -0.74505805969E-08  0.93827000000E+00  0.93827000000E+00 0.  1.
     999902    2    1    2    0    0  0.37607382907E-02  0.12219949129E-01 -0.22836520616E-02  0.10309421066E+01  0.10308602920E+01 0.  0.
     999903    2    3    3    0    0 -0.84181767887E-02  0.15940069487E-01  0.13227736726E+00  0.14062259471E+00  0.44186657897E-01 0.  0.
         14    1    1    2    0    0 -0.37607382907E-02 -0.12219949129E-01  0.22836520616E-02  0.12987893437E-01  0.00000000000E+00 0.  1.
     999901    1    3    3    0    0  0.12178915079E-01 -0.37201203578E-02 -0.13456101933E+00  0.89031951186E+00  0.88000000000E+00 0.  1.
        -11    1    4    4    0    0 -0.29703477563E-02 -0.89881234721E-02  0.48196781666E-02  0.10634836528E-01  0.51100000000E-03 0.  1.
         11    1    4    4    0    0 -0.54478290325E-02  0.24928192959E-01  0.12745768910E+00  0.12998775818E+00  0.51100000000E-03 0. -1.
</event>
<event>
 8    1  0.2837913E+004  0.1043930E+01  0.7957747E-01            NaN
         13   -1    0    0    0    0  0.00000000000E+00  0.00000000000E+00  0.74505805969E-08  0.10566000000E+00  0.10566000000E+00 0.  1.
     999900   -1    0    0    0    0 -0.00000000000E+00 -0.00000000000E+00 -0.74505805969E-08  0.93827000000E+00  0.93827000000E+00 0. -1.
     999902    2    1    2    0    0  0.13223302301E-01 -0.24733247554E-02 -0.28354506347E-02  0.10301818060E+01  0.10300900643E+01 0.  0.
     999903    2    3    3    0    0  0.38945667377E-01 -0.60801120147E-01  0.11179549359E+00  0.14046048714E+00  0.44915196136E-01 0.  0.
         14    1    1    2    0    0 -0.13223302301E-01  0.24733247554E-02  0.28354506347E-02  0.13748194041E-01  0.00000000000E+00 0. -1.
     999901    1    3    3    0    0 -0.25722365076E-01  0.58327795392E-01 -0.11463094422E+00  0.88972131881E+00  0.88000000000E+00 0. -1.
        -11    1    4    4    0    0  0.45197117049E-01 -0.45949851955E-01  0.67539528464E-01  0.93359612844E-01  0.51100000000E-03 0. -1.
         11    1    4    4    0    0 -0.62514496722E-02 -0.14851268192E-01  0.44255965123E-01  0.47100874301E-01  0.51100000000E-03 0.  1.
</event>
<event>
 8    1  0.2837913E+004  0.1043930E+01  0.7957747E-01            NaN
         13   -1    0    0    0    0  0.00000000000E+00  0.00000000000E+00  0.74505805969E-08  0.10566000000E+00  0.10566000000E+00 0. -1.
     999900   -1    0    0    0    0 -0.00000000000E+00 -0.00000000000E+00 -0.74505805969E-08  0.93827000000E+00  0.93827000000E+00 0.  1.
     999902    2    1    2    0    0  0.29667390468E-02 -0.27368003522E-02 -0.12797265222E-01  0.10305112961E+01  0.10304239272E+01 0.  0.
     999903    2    3    3    0    0 -0.74982776826E-01  0.41551899127E-01 -0.10160008463E+00  0.14150985818E+00  0.48512736715E-01 0.  0.
         14    1    1    2    0    0 -0.29667390468E-02  0.27368003522E-02  0.12797265222E-01  0.13418703883E-01  0.00000000000E+00 0. -1.
     999901    1    3    3    0    0  0.77949515873E-01 -0.44288699479E-01  0.88802819404E-01  0.88900143794E+00  0.88000000000E+00 0. -1.
        -11    1    4    4    0    0 -0.38151745542E-01  0.47165047656E-01 -0.55383494265E-01  0.82144324005E-01  0.51100000000E-03 0.  1.
         11    1    4    4    0    0 -0.36831031285E-01 -0.56131485287E-02 -0.46216590360E-01  0.59365534171E-01  0.51100000000E-03 0. -1.
</event>
<event>
 8    1  0.2837913E+004  0.1043930E+01  0.7957747E-01            NaN
         13   -1    0    0    0    0  0.00000000000E+00  0.00000000000E+00  0.74505805969E-08  0.10566000000E+00  0.10566000000E+00 0. -1.
     999900   -1    0    0    0    0 -0.00000000000E+00 -0.00000000000E+00 -0.74505805969E-08  0.93827000000E+00  0.93827000000E+00 0.  1.
     999902    2    1    2    0    0 -0.10322365173E-01  0.84870862407E-02  0.24892615145E-02  0.10303366826E+01  0.10302470098E+01 0.  0.
     999903    2    3    3    0    0 -0.11040544000E+00  0.24712686852E-01  0.72731916968E-01  0.14173445288E+00  0.44706211133E-01 0.  0.
         14    1    1    2    0    0  0.10322365173E-01 -0.84870862407E-02 -0.24892615145E-02  0.13593317421E-01  0.00000000000E+00 0. -1.
     999901    1    3    3    0    0  0.10008307483E+00 -0.16225600611E-01 -0.70242655454E-01  0.88860222970E+00  0.88000000000E+00 0.  1.
        -11    1    4    4    0    0 -0.80877819672E-01  0.28097429528E-01  0.32210589963E-01  0.91479344596E-01  0.51100000000E-03 0. -1.
         11    1    4    4    0    0 -0.29527620329E-01 -0.33847426762E-02  0.40521327006E-01  0.50255108284E-01  0.51100000000E-03 0.  1.
</event>
<event>
 8    1  0.2837913E+004  0.1043930E+01  0.7957747E-01            NaN
         13   -1    0    0    0    0  0.00000000000E+00  0.00000000000E+00  0.74505805969E-08  0.10566000000E+00  0.10566000000E+00 0. -1.
     999900   -1    0    0    0    0 -0.00000000000E+00 -0.00000000000E+00 -0.74505805969E-08  0.93827000000E+00  0.93827000000E+00 0.  1.
     999902    2    1    2    0    0  0.12712990020E-01 -0.56245389297E-02 -0.40928039013E-02  0.10294383956E+01  0.10293363900E+01 0.  0.
     999903    2    3    3    0    0 -0.41189478143E-01 -0.19413798776E-02 -0.12510369730E+00  0.13951554613E+00  0.45970756687E-01 0.  0.
         14    1    1    2    0    0 -0.12712990020E-01  0.56245389297E-02  0.40928039013E-02  0.14491604370E-01  0.00000000000E+00 0. -1.
     999901    1    3    3    0    0  0.53902468163E-01 -0.36831590522E-02  0.12101089340E+00  0.88992284950E+00  0.88000000000E+00 0. -1.
        -11    1    4    4    0    0 -0.16507117799E-01  0.17181013772E-01 -0.24507931768E-01  0.34184382586E-01  0.51100000000E-03 0. -1.
         11    1    4    4    0    0 -0.24682360343E-01 -0.19122393650E-01 -0.10059576553E+00  0.10533116355E+00  0.51100000000E-03 0.  1.
</event>
<event>
 8    1  0.2837913E+004  0.1043930E+01  0.7957747E-01            NaN
         13   -1    0    0    0    0  0.00000000000E+00  0.00000000000E+00  0.74505805969E-08  0.10566000000E+00  0.10566000000E+00 0.  1.
     999900   -1    0    0    0    0 -0.00000000000E+00 -0.00000000000E+00 -0.74505805969E-08  0.93827000000E+00  0.93827000000E+00 0. -1.
     999902    2    1    2    0    0 -0.10443608808E-01 -0.98188158427E-02 -0.29674360081E-02  0.10292915648E+01  0.10291874667E+01 0.  0.
     999903    2    3    3    0    0  0.15361738395E-01  0.70535973178E-01  0.10874197118E+00  0.13822377851E+00  0.45493847161E-01 0.  0.
         14    1    1    2    0    0  0.10443608808E-01  0.98188158427E-02  0.29674360081E-02  0.14638435229E-01  0.00000000000E+00 0.  1.
     999901    1    3    3    0    0 -0.25805347203E-01 -0.80354789021E-01 -0.11170940719E+00  0.89106778626E+00  0.88000000000E+00 0. -1.
        -11    1    4    4    0    0  0.28350741260E-01  0.37674760042E-01  0.44146462940E-01  0.64593524330E-01  0.51100000000E-03 0.  1.
         11    1    4    4    0    0 -0.12989002865E-01  0.32861213136E-01  0.64595508242E-01  0.73630254177E-01  0.51100000000E-03 0. -1.
</event>
<event>
 8    1  0.2837913E+004  0.1043930E+01  0.7957747E-01            NaN
         13   -1    0    0    0    0  0.00000000000E+00  0.00000000000E+00  0.74505805969E-08  0.10566000000E+00  0.10566000000E+00 0.  1.
     999900   -1    0    0    0    0 -0.00000000000E+00 -0.00000000000E+00 -0.74505805969E-08  0.93827000000E+00  0.93827000000E+00 0. -1.
     999902    2    1    2    0    0  0.43793643761E-02 -0.12316030714E-01 -0.52054291748E-02  0.10298601763E+01  0.10297640618E+01 0.  0.
     999903    2    3    3    0    0 -0.98167118548E-01 -0.88687376756E-01 -0.15102207956E-01  0.14056477554E+00  0.45034936190E-01 0.  0.
         14    1    1    2    0    0 -0.43793643761E-02  0.12316030714E-01  0.52054291748E-02  0.14069823659E-01  0.00000000000E+00 0.  1.
     999901    1    3    3    0    0  0.10254648292E+00  0.76371346042E-01  0.98967787814E-02  0.88929540080E+00  0.88000000000E+00 0.  1.
        -11    1    4    4    0    0 -0.25029614435E-01 -0.24716971272E-02  0.52219129545E-02  0.25692807970E-01  0.51100000000E-03 0.  1.
         11    1    4    4    0    0 -0.73137504112E-01 -0.86215679629E-01 -0.20324120911E-01  0.11487196757E+00  0.51100000000E-03 0. -1.
</event>
<event>
 8    1  0.2837913E+004  0.1043930E+01  0.7957747E-01            NaN
         13   -1    0    0    0    0  0.00000000000E+00  0.00000000000E+00  0.74505805969E-08  0.10566000000E+00  0.10566000000E+00 0. -1.
     999900   -1    0    0    0    0 -0.00000000000E+00 -0.00000000000E+00 -0.74505805969E-08  0.93827000000E+00  0.93827000000E+00 0. -1.
     999902    2    1    2    0    0 -0.13589806258E-01  0.63528809111E-02  0.22336132861E-02  0.10287632285E+01  0.10286514226E+01 0.  0.
     999903    2    3    3    0    0 -0.10289871130E+00 -0.79219263798E-01 -0.22433295065E-01  0.13977103007E+00  0.46570930582E-01 0.  0.
         14    1    1    2    0    0  0.13589806258E-01 -0.63528809111E-02 -0.22336132861E-02  0.15166771519E-01  0.00000000000E+00 0. -1.
     999901    1    3    3    0    0  0.89308905043E-01  0.85572144709E-01  0.24666908351E-01  0.88899219841E+00  0.88000000000E+00 0.  1.
        -11    1    4    4    0    0 -0.64342456000E-01 -0.25647826123E-01 -0.25195070551E-01  0.73707634137E-01  0.51100000000E-03 0.  1.
         11    1    4    4    0    0 -0.38556255300E-01 -0.53571437674E-01  0.27617754863E-02  0.66063395932E-01  0.51100000000E-03 0. -1.
</event>
<event>
 8    1  0.2837913E+004  0.1043930E+01  0.7957747E-01            NaN
         13   -1    0    0    0    0  0.00000000000E+00  0.00000000000E+00  0.74505805969E-08  0.10566000000E+00  0.10566000000E+00 0. -1.
     999900   -1    0    0    0    0 -0.00000000000E+00 -0.00000000000E+00 -0.74505805969E-08  0.93827000000E+00  0.93827000000E+00 0.  1.
     999902    2    1    2    0    0  0.65416729142E-02  0.67162672916E-02 -0.10769471327E-01  0.10296512310E+01  0.10295522203E+01 0.  0.
     999903    2    3    3    0    0 -0.23990184164E-01 -0.69605815659E-01 -0.11066744703E+00  0.14019248538E+00  0.44566249754E-01 0.  0.
         14    1    1    2    0    0 -0.65416729142E-02 -0.67162672916E-02  0.10769471327E-01  0.14278768977E-01  0.00000000000E+00 0. -1.
     999901    1    3    3    0    0  0.30531857078E-01  0.76322082950E-01  0.99897975701E-01  0.88945874564E+00  0.88000000000E+00 0. -1.
        -11    1    4    4    0    0 -0.11591049263E-01  0.23660833270E-02 -0.24689680450E-01  0.27382333995E-01  0.51100000000E-03 0.  1.
         11    1    4    4    0    0 -0.12399134902E-01 -0.71971898985E-01 -0.85977766578E-01  0.11281015139E+00  0.51100000000E-03 0. -1.
</event>
<event>
 8    1  0.2837913E+004  0.1043930E+01  0.7957747E-01            NaN
         13   -1    0    0    0    0  0.00000000000E+00  0.00000000000E+00  0.74505805969E-08  0.10566000000E+00  0.10566000000E+00 0.  1.
     999900   -1    0    0    0    0 -0.00000000000E+00 -0.00000000000E+00 -0.74505805969E-08  0.93827000000E+00  0.93827000000E+00 0.  1.
     999902    2    1    2    0    0 -0.63274340863E-02 -0.34630327483E-02 -0.12998462702E-01  0.10290642995E+01  0.10289569201E+01 0.  0.
     999903    2    3    3    0    0 -0.14430422030E-01  0.12163194655E+00  0.45155760913E-01  0.13828019213E+00  0.45604838461E-01 0.  0.
         14    1    1    2    0    0  0.63274340863E-02  0.34630327483E-02  0.12998462702E-01  0.14865700473E-01  0.00000000000E+00 0. -1.
     999901    1    3    3    0    0  0.81029879434E-02 -0.12509497930E+00 -0.58154223615E-01  0.89078410739E+00  0.88000000000E+00 0.  1.
        -11    1    4    4    0    0  0.15665283069E-01  0.61318801419E-01  0.21449099013E-01  0.66826053831E-01  0.51100000000E-03 0. -1.
         11    1    4    4    0    0 -0.30095705099E-01  0.60313145133E-01  0.23706661900E-01  0.71454138303E-01  0.51100000000E-03 0.  1.
</event>
<event>
 8    1  0.2837913E+004  0.1043930E+01  0.7957747E-01            NaN
         13   -1    0    0    0    0  0.00000000000E+00  0.00000000000E+00  0.74505805969E-08  0.10566000000E+00  0.10566000000E+00 0.  1.
     999900   -1    0    0    0    0 -0.00000000000E+00 -0.00000000000E+00 -0.74505805969E-08  0.93827000000E+00  0.93827000000E+00 0.  1.
     999902    2    1    2    0    0 -0.88766920389E-02 -0.10625764529E-01 -0.48130396946E-02  0.10292716275E+01  0.10291672436E+01 0.  0.
     999903    2    3    3    0    0 -0.10093843284E+00  0.26360397052E-02  0.88407038830E-01  0.13947321066E+00  0.37966512181E-01 0.  0.
         14    1    1    2    0    0  0.88766920389E-02  0.10625764529E-01  0.48130396946E-02  0.14658372504E-01  0.00000000000E+00 0.  1.
     999901    1    3    3    0    0  0.92061740798E-01 -0.13261804234E-01 -0.93220078524E-01  0.88979841684E+00  0.88000000000E+00 0.  1.
        -11    1    4    4    0    0 -0.23776803378E-01  0.79510639545E-02  0.47186588953E-02  0.25516321436E-01  0.51100000000E-03 0. -1.
         11    1    4    4    0    0 -0.77161629459E-01 -0.53150242493E-02  0.83688379934E-01  0.11395688922E+00  0.51100000000E-03 0.  1.
</event>
<event>
 8    1  0.2837913E+004  0.1043930E+01  0.7957747E-01            NaN
         13   -1    0    0    0    0  0.00000000000E+00  0.00000000000E+00  0.74505805969E-08  0.10566000000E+00  0.10566000000E+00 0.  1.
     999900   -1    0    0    0    0 -0.00000000000E+00 -0.00000000000E+00 -0.74505805969E-08  0.93827000000E+00  0.93827000000E+00 0.  1.
     999902    2    1    2    0    0  0.39217902617E-02  0.17104861654E-01  0.12154239911E-01  0.10225832841E+01  0.10223604505E+01 0.  0.
     999903    2    3    3    0    0 -0.93966459817E-01  0.73298474946E-01 -0.41751208226E-01  0.13373817443E+00  0.44049675503E-01 0.  0.
         14    1    1    2    0    0 -0.39217902617E-02 -0.17104861654E-01 -0.12154239911E-01  0.21346715881E-01  0.00000000000E+00 0. -1.
     999901    1    3    3    0    0  0.97888250078E-01 -0.56193613291E-01  0.53905448137E-01  0.88884510969E+00  0.88000000000E+00 0.  1.
        -11    1    4    4    0    0 -0.58624321587E-01  0.17880931367E-01 -0.21630826398E-01  0.64997635032E-01  0.51100000000E-03 0. -1.
         11    1    4    4    0    0 -0.35342138229E-01  0.55417543579E-01 -0.20120381828E-01  0.68740539399E-01  0.51100000000E-03 0.  1.
</event>
<event>
 8    1  0.2837913E+004  0.1043930E+01  0.7957747E-01            NaN
         13   -1    0    0    0    0  0.00000000000E+00  0.00000000000E+00  0.74505805969E-08  0.10566000000E+00  0.10566000000E+00 0. -1.
     999900   -1    0    0    0    0 -0.00000000000E+00 -0.00000000000E+00 -0.74505805969E-08  0.93827000000E+00  0.93827000000E+00 0.  1.
     999902    2    1    2    0    0  0.14888202273E-01 -0.24635615057E-02  0.72527338874E-03  0.10288219318E+01  0.10287109962E+01 0.  0.
     999903    2    3    3    0    0 -0.11189786164E+00  0.50839833495E-01 -0.40472205215E-01  0.13718681018E+00  0.45567547485E-01 0.  0.
         14    1    1    2    0    0 -0.14888202273E-01  0.24635615057E-02 -0.72527338874E-03  0.15108068166E-01  0.00000000000E+00 0.  1.
     999901    1    3    3    0    0  0.12678606391E+00 -0.53303395001E-01  0.41197478604E-01  0.89163512165E+00  0.88000000000E+00 0. -1.
        -11    1    4    4    0    0 -0.82525764128E-01  0.19033123983E-01 -0.40524428199E-01  0.93889573198E-01  0.51100000000E-03 0. -1.
         11    1    4    4    0    0 -0.29372097511E-01  0.31806709513E-01  0.52222983951E-04  0.43297236984E-01  0.51100000000E-03 0.  1.
</event>
<event>
 8    1  0.2837913E+004  0.1043930E+01  0.7957747E-01            NaN
         13   -1    0    0    0    0  0.00000000000E+00  0.00000000000E+00  0.74505805969E-08  0.10566000000E+00  0.10566000000E+00 0.  1.
     999900   -1    0    0    0    0 -0.00000000000E+00 -0.00000000000E+00 -0.74505805969E-08  0.93827000000E+00  0.93827000000E+00 0.  1.
     999902    2    1    2    0    0  0.81494006254E-02 -0.10806537116E-01 -0.26972113962E-02  0.10301289521E+01  0.10300364988E+01 0.  0.
     999903    2    3    3    0    0  0.25527212434E-01  0.12904126221E+00 -0.47404663470E-02  0.13891429205E+00  0.44400704806E-01 0.  0.
         14    1    1    2    0    0 -0.81494006254E-02  0.10806537116E-01  0.26972113962E-02  0.13801047942E-01  0.00000000000E+00 0.  1.
     999901    1    3    3    0    0 -0.17377811809E-01 -0.13984779933E+00  0.20432549508E-02  0.89121466001E+00  0.88000000000E+00 0.  1.
        -11    1    4    4    0    0  0.23589710458E-01  0.41104240927E-01  0.13081162549E-01  0.49167173971E-01  0.51100000000E-03 0.  1.
         11    1    4    4    0    0  0.19375019755E-02  0.87937021284E-01 -0.17821628896E-01  0.89747118080E-01  0.51100000000E-03 0. -1.
</event>
<event>
 8    1  0.2837913E+004  0.1043930E+01  0.7957747E-01            NaN
         13   -1    0    0    0    0  0.00000000000E+00  0.00000000000E+00  0.74505805969E-08  0.10566000000E+00  0.10566000000E+00 0.  1.
     999900   -1    0    0    0    0 -0.00000000000E+00 -0.00000000000E+00 -0.74505805969E-08  0.93827000000E+00  0.93827000000E+00 0.  1.
     999902    2    1    2    0    0 -0.11297106138E-03  0.16776639451E-01 -0.16919292429E-02  0.10270678822E+01  0.10269294540E+01 0.  0.
     999903    2    3    3    0    0  0.40376138546E-01 -0.85621625617E-01  0.86107933872E-01  0.13587004292E+00  0.45659576771E-01 0.  0.
         14    1    1    2    0    0  0.11297106138E-03 -0.16776639451E-01  0.16919292429E-02  0.16862117848E-01  0.00000000000E+00 0. -1.
     999901    1    3    3    0    0 -0.40489109608E-01  0.10239826507E+00 -0.87799863114E-01  0.89119783923E+00  0.88000000000E+00 0.  1.
        -11    1    4    4    0    0  0.26768002388E-01 -0.36492229470E-01  0.13649582990E-01  0.47273470365E-01  0.51100000000E-03 0. -1.
         11    1    4    4    0    0  0.13608136158E-01 -0.49129396146E-01  0.72458350881E-01  0.88596572557E-01  0.51100000000E-03 0.  1.
</event>
<event>
 8    1  0.2837913E+004  0.1043930E+01  0.7957747E-01            NaN
         13   -1    0    0    0    0  0.00000000000E+00  0.00000000000E+00  0.74505805969E-08  0.10566000000E+00  0.10566000000E+00 0.  1.
     999900   -1    0    0    0    0 -0.00000000000E+00 -0.00000000000E+00 -0.74505805969E-08  0.93827000000E+00  0.93827000000E+00 0.  1.
     999902    2    1    2    0    0  0.84840104524E-03 -0.81632759788E-02 -0.92539081833E-02  0.10315609388E+01  0.10314867797E+01 0.  0.
     999903    2    3    3    0    0 -0.90258701344E-01 -0.84133645080E-02 -0.99863383062E-01  0.14222936754E+00  0.45156171710E-01 0.  0.
         14    1    1    2    0    0 -0.84840104524E-03  0.81632759788E-02  0.92539081833E-02  0.12369061230E-01  0.00000000000E+00 0.  1.
     999901    1    3    3    0    0  0.91107102390E-01  0.25008852915E-03  0.90609474878E-01  0.88933157123E+00  0.88000000000E+00 0. -1.
        -11    1    4    4    0    0 -0.59792005420E-01 -0.35115435491E-02 -0.92989054626E-01  0.11061030807E+00  0.51100000000E-03 0.  1.
         11    1    4    4    0    0 -0.30466695924E-01 -0.49018209589E-02 -0.68743284355E-02  0.31619059469E-01  0.51100000000E-03 0. -1.
</event>
<event>
 8    1  0.2837913E+004  0.1043930E+01  0.7957747E-01            NaN
         13   -1    0    0    0    0  0.00000000000E+00  0.00000000000E+00  0.74505805969E-08  0.10566000000E+00  0.10566000000E+00 0.  1.
     999900   -1    0    0    0    0 -0.00000000000E+00 -0.00000000000E+00 -0.74505805969E-08  0.93827000000E+00  0.93827000000E+00 0. -1.
     999902    2    1    2    0    0  0.49485114583E-02  0.92376403678E-02 -0.96707286602E-02  0.10296700996E+01  0.10295713522E+01 0.  0.
     999903    2    3    3    0    0  0.75276995832E-01 -0.88126144123E-01 -0.63868377789E-01  0.13985934032E+00  0.45261705824E-01 0.  0.
         14    1    1    2    0    0 -0.49485114583E-02 -0.92376403678E-02  0.96707286602E-02  0.14259900352E-01  0.00000000000E+00 0. -1.
     999901    1    3    3    0    0 -0.70328484374E-01  0.97363784490E-01  0.54197649129E-01  0.88981075933E+00  0.88000000000E+00 0.  1.
        -11    1    4    4    0    0  0.30781806001E-01 -0.47053647038E-01 -0.55001782418E-01  0.78657628177E-01  0.51100000000E-03 0. -1.
         11    1    4    4    0    0  0.44495189831E-01 -0.41072497085E-01 -0.88665953710E-02  0.61201712144E-01  0.51100000000E-03 0.  1.
</event>
<event>
 8    1  0.2837913E+004  0.1043930E+01  0.7957747E-01            NaN
         13   -1    0    0    0    0  0.00000000000E+00  0.00000000000E+00  0.74505805969E-08  0.10566000000E+00  0.10566000000E+00 0. -1.
     999900   -1    0    0    0    0 -0.00000000000E+00 -0.00000000000E+00 -0.74505805969E-08  0.93827000000E+00  0.93827000000E+00 0. -1.
     999902    2    1    2    0    0  0.10433646826E-01  0.39677708128E-03 -0.54417492862E-02  0.10321558311E+01  0.10320886728E+01 0.  0.
     999903    2    3    3    0    0 -0.11715478349E+00  0.57780425815E-01 -0.27989254787E-01  0.14081971004E+00  0.44530567600E-01 0.  0.
         14    1    1    2    0    0 -0.10433646826E-01 -0.39677708128E-03  0.54417492862E-02  0.11774168907E-01  0.00000000000E+00 0.  1.
     999901    1    3    3    0    0  0.12758843031E+00 -0.57383648734E-01  0.22547505501E-01  0.89133612105E+00  0.88000000000E+00 0. -1.
        -11    1    4    4    0    0 -0.28917910508E-02  0.16106994329E-01 -0.27404395144E-02  0.16600266610E-01  0.51100000000E-03 0. -1.
         11    1    4    4    0    0 -0.11426299244E+00  0.41673431487E-01 -0.25248815273E-01  0.12421944343E+00  0.51100000000E-03 0.  1.
</event>
<event>
 8    1  0.2837913E+004  0.1043930E+01  0.7957747E-01            NaN
         13   -1    0    0    0    0  0.00000000000E+00  0.00000000000E+00  0.74505805969E-08  0.10566000000E+00  0.10566000000E+00 0.  1.
     999900   -1    0    0    0    0 -0.00000000000E+00 -0.00000000000E+00 -0.74505805969E-08  0.93827000000E+00  0.93827000000E+00 0. -1.
     999902    2    1    2    0    0 -0.13610789883E-01  0.58906524969E-03  0.11927621751E-02  0.10302543545E+01  0.10301635849E+01 0.  0.
     999903    2    3    3    0    0 -0.13210751429E-01 -0.20802130047E-01  0.13085684506E+00  0.14049566940E+00  0.44813688217E-01 0.  0.
         14    1    1    2    0    0  0.13610789883E-01 -0.58906524969E-03 -0.11927621751E-02  0.13675645532E-01  0.00000000000E+00 0. -1.
     999901    1    3    3    0    0 -0.40003845401E-03  0.21391195297E-01 -0.12966408289E+00  0.88975868507E+00  0.88000000000E+00 0. -1.
        -11    1    4    4    0    0 -0.10362545529E-02 -0.31219618539E-01  0.57821497302E-01  0.65721572383E-01  0.51100000000E-03 0. -1.
         11    1    4    4    0    0 -0.12174496876E-01  0.10417488492E-01  0.73035347762E-01  0.74774097015E-01  0.51100000000E-03 0.  1.
</event>
<event>
 8    1  0.2837913E+004  0.1043930E+01  0.7957747E-01            NaN
         13   -1    0    0    0    0  0.00000000000E+00  0.00000000000E+00  0.74505805969E-08  0.10566000000E+00  0.10566000000E+00 0. -1.
     999900   -1    0    0    0    0 -0.00000000000E+00 -0.00000000000E+00 -0.74505805969E-08  0.93827000000E+00  0.93827000000E+00 0.  1.
     999902    2    1    2    0    0  0.88780327914E-02 -0.10224997449E-01 -0.69731312032E-02  0.10286986311E+01  0.10285858637E+01 0.  0.
     999903    2    3    3    0    0  0.73351599252E-01 -0.55152097379E-01  0.94590815018E-01  0.13937837371E+00  0.45350830348E-01 0.  0.
         14    1    1    2    0    0 -0.88780327914E-02  0.10224997449E-01  0.69731312032E-02  0.15231368876E-01  0.00000000000E+00 0. -1.
     999901    1    3    3    0    0 -0.64473566461E-01  0.44927099930E-01 -0.10156394622E+00  0.88932025742E+00  0.88000000000E+00 0.  1.
        -11    1    4    4    0    0  0.82807140550E-02 -0.97951230890E-02  0.42711222799E-01  0.44598479073E-01  0.51100000000E-03 0.  1.
         11    1    4    4    0    0  0.65070885197E-01 -0.45356974290E-01  0.51879592219E-01  0.94779894634E-01  0.51100000000E-03 0. -1.
</event>
<event>
 8    1  0.2837913E+004  0.1043930E+01  0.7957747E-01            NaN
         13   -1    0    0    0    0  0.00000000000E+00  0.00000000000E+00  0.74505805969E-08  0.10566000000E+00  0.10566000000E+00 0.  1.
     999900   -1    0    0    0    0 -0.00000000000E+00 -0.00000000000E+00 -0.74505805969E-08  0.93827000000E+00  0.93827000000E+00 0. -1.
     999902    2    1    2    0    0 -0.91260476954E-02 -0.34986151476E-02 -0.10284602639E-01  0.10297420436E+01  0.10296442970E+01 0.  0.
     999903    2    3    3    0    0  0.41430960872E-01 -0.12895034252E-01  0.12326944139E+00  0.13818106059E+00  0.44898150280E-01 0.  0.
         14    1    1    2    0    0  0.91260476954E-02  0.34986151476E-02  0.10284602639E-01  0.14187956369E-01  0.00000000000E+00 0.  1.
     999901    1    3    3    0    0 -0.50557008568E-01  0.93964191040E-02 -0.13355404403E+00  0.89156098304E+00  0.88000000000E+00 0. -1.
        -11    1    4    4    0    0 -0.96941446822E-02 -0.42001414569E-02  0.20760941836E-01  0.23300117087E-01  0.51100000000E-03 0.  1.
         11    1    4    4    0    0  0.51125105554E-01 -0.86948927948E-02  0.10250849955E+00  0.11488094350E+00  0.51100000000E-03 0. -1.
</event>
<event>
 8    1  0.2837913E+004  0.1043930E+01  0.7957747E-01            NaN
         13   -1    0    0    0    0  0.00000000000E+00  0.00000000000E+00  0.74505805969E-08  0.10566000000E+00  0.10566000000E+00 0.  1.
     999900   -1    0    0    0    0 -0.00000000000E+00 -0.00000000000E+00 -0.74505805969E-08  0.93827000000E+00  0.93827000000E+00 0. -1.
     999902    2    1    2    0    0  0.19886847962E-02 -0.11229402697E-01 -0.84887888378E-02  0.10297133236E+01  0.10296151781E+01 0.  0.
     999903    2    3    3    0    0  0.98635180003E-01 -0.67698911745E-01 -0.59856619926E-01  0.14113693151E+00  0.44997523293E-01 0.  0.
         14    1    1    2    0    0 -0.19886847962E-02  0.11229402697E-01  0.84887888378E-02  0.14216676408E-01  0.00000000000E+00 0.  1.
     999901    1    3    3    0    0 -0.96646495207E-01  0.56469509047E-01  0.51367831088E-01  0.88857639208E+00  0.88000000000E+00 0.  1.
        -11    1    4    4    0    0  0.29906465075E-01 -0.45566691056E-01 -0.16659285001E-01  0.56995726900E-01  0.51100000000E-03 0. -1.
         11    1    4    4    0    0  0.68728714928E-01 -0.22132220689E-01 -0.43197334924E-01  0.84141204614E-01  0.51100000000E-03 0.  1.
</event>
<event>
 8    1  0.2837913E+004  0.1043930E+01  0.7957747E-01            NaN
         13   -1    0    0    0    0  0.00000000000E+00  0.00000000000E+00  0.74505805969E-08  0.10566000000E+00  0.10566000000E+00 0. -1.
     999900   -1    0    0    0    0 -0.00000000000E+00 -0.00000000000E+00 -0.74505805969E-08  0.93827000000E+00  0.93827000000E+00 0. -1.
     999902    2    1    2    0    0  0.18459734848E-02 -0.12880533326E-01 -0.35679851190E-02  0.10304375475E+01  0.10303492093E+01 0.  0.
     999903    2    3    3    0    0 -0.11594424311E+00  0.32298846079E-01  0.53114318669E-01  0.13963532757E+00  0.46803962340E-01 0.  0.
         14    1    1    2    0    0 -0.18459734848E-02  0.12880533326E-01  0.35679851190E-02  0.13492452508E-01  0.00000000000E+00 0. -1.
     999901    1    3    3    0    0  0.11779021659E+00 -0.45179379406E-01 -0.56682303788E-01  0.89080221992E+00  0.88000000000E+00 0.  1.
        -11    1    4    4    0    0 -0.52151562289E-01  0.15506748257E-01 -0.83412501508E-03  0.54416923620E-01  0.51100000000E-03 0. -1.
         11    1    4    4    0    0 -0.63792680820E-01  0.16792097823E-01  0.53948443684E-01  0.85218403954E-01  0.51100000000E-03 0.  1.
</event>
<event>
 8    1  0.2837913E+004  0.1043930E+01  0.7957747E-01            NaN
         13   -1    0    0    0    0  0.00000000000E+00  0.00000000000E+00  0.74505805969E-08  0.10566000000E+00  0.10566000000E+00 0. -1.
     999900   -1    0    0    0    0 -0.00000000000E+00 -0.00000000000E+00 -0.74505805969E-08  0.93827000000E+00  0.93827000000E+00 0. -1.
     999902    2    1    2    0    0  0.55463773582E-02 -0.60111083104E-02  0.10756419973E-01  0.10304171803E+01  0.10303285734E+01 0.  0.
     999903    2    3    3    0    0  0.20825795571E-01  0.13059021570E+00  0.82864720725E-03  0.13969166536E+00  0.45006183104E-01 0.  0.
         14    1    1    2    0    0 -0.55463773582E-02  0.60111083104E-02 -0.10756419973E-01  0.13512819674E-01  0.00000000000E+00 0.  1.
     999901    1    3    3    0    0 -0.15279418213E-01 -0.13660132401E+00  0.99277727653E-02  0.89072551497E+00  0.88000000000E+00 0. -1.
        -11    1    4    4    0    0 -0.69354441504E-02  0.49515188244E-01  0.16336092352E-01  0.52602122455E-01  0.51100000000E-03 0.  1.
         11    1    4    4    0    0  0.27761239721E-01  0.81075027453E-01 -0.15507445144E-01  0.87089542904E-01  0.51100000000E-03 0. -1.
</event>
<event>
 8    1  0.2837913E+004  0.1043930E+01  0.7957747E-01            NaN
         13   -1    0    0    0    0  0.00000000000E+00  0.00000000000E+00  0.74505805969E-08  0.10566000000E+00  0.10566000000E+00 0. -1.
     999900   -1    0    0    0    0 -0.00000000000E+00 -0.00000000000E+00 -0.74505805969E-08  0.93827000000E+00  0.93827000000E+00 0.  1.
     999902    2    1    2    0    0  0.72111146573E-02  0.12510268233E-02  0.11935457926E-01  0.10299292715E+01  0.10298341050E+01 0.  0.
     999903    2    3    3    0    0 -0.23078432622E-01 -0.66640117189E-01 -0.11019214250E+00  0.13839025671E+00  0.45122451305E-01 0.  0.
         14    1    1    2    0    0 -0.72111146573E-02 -0.12510268233E-02 -0.11935457926E-01  0.14000728503E-01  0.00000000000E+00 0.  1.
     999901    1    3    3    0    0  0.30289547279E-01  0.67891144012E-01  0.12212760042E+00  0.89153901479E+00  0.88000000000E+00 0. -1.
        -11    1    4    4    0    0 -0.31293423695E-01 -0.56273373398E-01 -0.65791276360E-01  0.92058264628E-01  0.51100000000E-03 0. -1.
         11    1    4    4    0    0  0.82149910734E-02 -0.10366743790E-01 -0.44400866138E-01  0.46331992078E-01  0.51100000000E-03 0.  1.
</event>
<event>
 8    1  0.2837913E+004  0.1043930E+01  0.7957747E-01            NaN
         13   -1    0    0    0    0  0.00000000000E+00  0.00000000000E+00  0.74505805969E-08  0.10566000000E+00  0.10566000000E+00 0.  1.
     999900   -1    0    0    0    0 -0.00000000000E+00 -0.00000000000E+00 -0.74505805969E-08  0.93827000000E+00  0.93827000000E+00 0.  1.
     999902    2    1    2    0    0  0.85050121064E-02 -0.78490672060E-02 -0.79944173185E-02  0.10298639488E+01  0.10297678861E+01 0.  0.
     999903    2    3    3    0    0 -0.29196817579E-01  0.12507475549E+00  0.28968491630E-01  0.13831673908E+00  0.42381578362E-01 0.  0.
         14    1    1    2    0    0 -0.85050121064E-02  0.78490672060E-02  0.79944173185E-02  0.14066051159E-01  0.00000000000E+00 0.  1.
     999901    1    3    3    0    0  0.37701829685E-01 -0.13292382269E+00 -0.36962908949E-01  0.89154720976E+00  0.88000000000E+00 0.  1.
        -11    1    4    4    0    0  0.12653558919E-02  0.58705754241E-01  0.28535223035E-01  0.65287723051E-01  0.51100000000E-03 0. -1.
         11    1    4    4    0    0 -0.30462173471E-01  0.66369001247E-01  0.43326859565E-03  0.73029016026E-01  0.51100000000E-03 0.  1.
</event>
<event>
 8    1  0.2837913E+004  0.1043930E+01  0.7957747E-01            NaN
         13   -1    0    0    0    0  0.00000000000E+00  0.00000000000E+00  0.74505805969E-08  0.10566000000E+00  0.10566000000E+00 0. -1.
     999900   -1    0    0    0    0 -0.00000000000E+00 -0.00000000000E+00 -0.74505805969E-08  0.93827000000E+00  0.93827000000E+00 0. -1.
     999902    2    1    2    0    0  0.27853396439E-04 -0.12986308548E-01 -0.39627013465E-02  0.10303525191E+01  0.10302630565E+01 0.  0.
     999903    2    3    3    0    0 -0.11316939361E+00 -0.51895425808E-02  0.69360622954E-01  0.14004318175E+00  0.44350352155E-01 0.  0.
         14    1    1    2    0    0 -0.27853396439E-04  0.12986308548E-01  0.39627013465E-02  0.13577480896E-01  0.00000000000E+00 0.  1.
     999901    1    3    3    0    0  0.11319724701E+00 -0.77967659674E-02 -0.73323324300E-01  0.89030933735E+00  0.88000000000E+00 0.  1.
        -11    1    4    4    0    0 -0.99121196757E-03 -0.77451149926E-02 -0.53934406060E-03  0.78435527938E-02  0.51100000000E-03 0. -1.
         11    1    4    4    0    0 -0.11217818164E+00  0.25555724119E-02  0.69899967015E-01  0.13219962896E+00  0.51100000000E-03 0.  1.
</event>
<event>
 8    1  0.2837913E+004  0.1043930E+01  0.7957747E-01            NaN
         13   -1    0    0    0    0  0.00000000000E+00  0.00000000000E+00  0.74505805969E-08  0.10566000000E+00  0.10566000000E+00 0.  1.
     999900   -1    0    0    0    0 -0.00000000000E+00 -0.00000000000E+00 -0.74505805969E-08  0.93827000000E+00  0.93827000000E+00 0. -1.
     999902    2    1    2    0    0 -0.66603249673E-02  0.52458413738E-02 -0.11514671084E-01  0.10296308241E+01  0.10295315282E+01 0.  0.
     999903    2    3    3    0    0 -0.65209698457E-01 -0.11196070410E+00 -0.26284557145E-01  0.13980862112E+00  0.45476021816E-01 0.  0.
         14    1    1    2    0    0  0.66603249673E-02 -0.52458413738E-02  0.11514671084E-01  0.14299175870E-01  0.00000000000E+00 0.  1.
     999901    1    3    3    0    0  0.58549373490E-01  0.11720654547E+00  0.14769886061E-01  0.88982220301E+00  0.88000000000E+00 0. -1.
        -11    1    4    4    0    0 -0.30870349794E-02 -0.44352042164E-01 -0.59921527158E-03  0.44466319941E-01  0.51100000000E-03 0.  1.
         11    1    4    4    0    0 -0.62122663478E-01 -0.67608661933E-01 -0.25685341873E-01  0.95342301178E-01  0.51100000000E-03 0. -1.
</event>
<event>
 8    1  0.2837913E+004  0.1043930E+01  0.7957747E-01            NaN
         13   -1    0    0    0    0  0.00000000000E+00  0.00000000000E+00  0.74505805969E-08  0.10566000000E+00  0.10566000000E+00 0.  1.
     999900   -1    0    0    0    0 -0.00000000000E+00 -0.00000000000E+00 -0.74505805969E-08  0.93827000000E+00  0.93827000000E+00 0. -1.
     999902    2    1    2    0    0  0.86298088767E-02  0.65962297186E-02 -0.81757073136E-02  0.10303349260E+01  0.10302452299E+01 0.  0.
     999903    2    3    3    0    0  0.23632366557E-01  0.11979800377E-01 -0.13148044397E+00  0.14159530288E+00  0.45388525913E-01 0.  0.
         14    1    1    2    0    0 -0.86298088767E-02 -0.65962297186E-02  0.81757073136E-02  0.13595074028E-01  0.00000000000E+00 0.  1.
     999901    1    3    3    0    0 -0.15002557680E-01 -0.53835706588E-02  0.12330473666E+00  0.88873962309E+00  0.88000000000E+00 0.  1.
        -11    1    4    4    0    0  0.14971869501E-02  0.24982406176E-01 -0.83563827367E-01  0.87232657603E-01  0.51100000000E-03 0.  1.
         11    1    4    4    0    0  0.22135179607E-01 -0.13002605799E-01 -0.47916616605E-01  0.54362645278E-01  0.51100000000E-03 0. -1.
</event>
<event>
 8    1  0.2837913E+004  0.1043930E+01  0.7957747E-01            NaN
         13   -1    0    0    0    0  0.00000000000E+00  0.00000000000E+00  0.74505805969E-08  0.10566000000E+00  0.10566000000E+00 0. -1.
     999900   -1    0    0    0    0 -0.00000000000E+00 -0.00000000000E+00 -0.74505805969E-08  0.93827000000E+00  0.93827000000E+00 0. -1.
     999902    2    1    2    0    0  0.46815950328E-03 -0.29506230057E-02  0.12506282909E-01  0.10310718329E+01  0.10309916547E+01 0.  0.
     999903    2    3    3    0    0 -0.66289400228E-01  0.32606571030E-01  0.11273224394E+00  0.14215894115E+00  0.45201025053E-01 0.  0.
         14    1    1    2    0    0 -0.46815950328E-03  0.29506230057E-02 -0.12506282909E-01  0.12858167119E-01  0.00000000000E+00 0.  1.
     999901    1    3    3    0    0  0.66757559731E-01 -0.35557194036E-01 -0.10022596103E+00  0.88891289174E+00  0.88000000000E+00 0. -1.
        -11    1    4    4    0    0 -0.29533674831E-01 -0.44813024293E-02  0.64458377505E-01  0.71045503532E-01  0.51100000000E-03 0.  1.
         11    1    4    4    0    0 -0.36755725397E-01  0.37087873460E-01  0.48273866439E-01  0.71113437613E-01  0.51100000000E-03 0. -1.
</event>
<event>
 8    1  0.2837913E+004  0.1043930E+01  0.7957747E-01            NaN
         13   -1    0    0    0    0  0.00000000000E+00  0.00000000000E+00  0.74505805969E-08  0.10566000000E+00  0.10566000000E+00 0.  1.
     999900   -1    0    0    0    0 -0.00000000000E+00 -0.00000000000E+00 -0.74505805969E-08  0.93827000000E+00  0.93827000000E+00 0.  1.
     999902    2    1    2    0    0 -0.12012657580E-01  0.36964164113E-02 -0.41701481945E-02  0.10306877354E+01  0.10306026636E+01 0.  0.
     999903    2    3    3    0    0 -0.12969311775E+00  0.18655045044E-01  0.30677033088E-01  0.14204451264E+00  0.45466995882E-01 0.  0.
         14    1    1    2    0    0  0.12012657580E-01 -0.36964164113E-02  0.41701481945E-02  0.13242264624E-01  0.00000000000E+00 0.  1.
     999901    1    3    3    0    0  0.11768046017E+00 -0.14958628633E-01 -0.34847181282E-01  0.88864322274E+00  0.88000000000E+00 0.  1.
        -11    1    4    4    0    0 -0.37482754070E-01 -0.12630941907E-01 -0.12283117399E-02  0.39576096534E-01  0.51100000000E-03 0.  1.
         11    1    4    4    0    0 -0.92210363678E-01  0.31285986951E-01  0.31905344827E-01  0.10246841610E+00  0.51100000000E-03 0. -1.
</event>
<event>
 8    1  0.2837913E+004  0.1043930E+01  0.7957747E-01            NaN
         13   -1    0    0    0    0  0.00000000000E+00  0.00000000000E+00  0.74505805969E-08  0.10566000000E+00  0.10566000000E+00 0. -1.
     999900   -1    0    0    0    0 -0.00000000000E+00 -0.00000000000E+00 -0.74505805969E-08  0.93827000000E+00  0.93827000000E+00 0. -1.
     999902    2    1    2    0    0  0.31340916041E-02  0.65148336769E-02 -0.10792389421E-01  0.10309399554E+01  0.10308581137E+01 0.  0.
     999903    2    3    3    0    0 -0.53493714062E-01 -0.79778857860E-01  0.90028764470E-01  0.13918987014E+00  0.45192896702E-01 0.  0.
         14    1    1    2    0    0 -0.31340916041E-02 -0.65148336769E-02  0.10792389421E-01  0.12990044551E-01  0.00000000000E+00 0. -1.
     999901    1    3    3    0    0  0.56627805666E-01  0.86293691537E-01 -0.10082115389E+00  0.89175008531E+00  0.88000000000E+00 0. -1.
        -11    1    4    4    0    0 -0.10913008230E-01 -0.55383278164E-01  0.40590287041E-01  0.69528654323E-01  0.51100000000E-03 0.  1.
         11    1    4    4    0    0 -0.42580705832E-01 -0.24395579696E-01  0.49438477429E-01  0.69661215819E-01  0.51100000000E-03 0. -1.
</event>
<event>
 8    1  0.2837913E+004  0.1043930E+01  0.7957747E-01            NaN
         13   -1    0    0    0    0  0.00000000000E+00  0.00000000000E+00  0.74505805969E-08  0.10566000000E+00  0.10566000000E+00 0.  1.
     999900   -1    0    0    0    0 -0.00000000000E+00 -0.00000000000E+00 -0.74505805969E-08  0.93827000000E+00  0.93827000000E+00 0. -1.
     999902    2    1    2    0    0  0.19572474788E-02  0.66384556064E-02  0.12647149730E-01  0.10295129855E+01  0.10294120346E+01 0.  0.
     999903    2    3    3    0    0  0.11792989152E+00 -0.37527617675E-01 -0.44154814704E-01  0.13899248639E+00  0.45315363935E-01 0.  0.
         14    1    1    2    0    0 -0.19572474788E-02 -0.66384556064E-02 -0.12647149730E-01  0.14417014491E-01  0.00000000000E+00 0. -1.
     999901    1    3    3    0    0 -0.11597264404E+00  0.44166073282E-01  0.56801964434E-01  0.89052049912E+00  0.88000000000E+00 0. -1.
        -11    1    4    4    0    0  0.70037099672E-01 -0.24312224408E-01 -0.49311622488E-01  0.89040310083E-01  0.51100000000E-03 0. -1.
         11    1    4    4    0    0  0.47892791846E-01 -0.13215393267E-01  0.51568077842E-02  0.49952176304E-01  0.51100000000E-03 0.  1.
</event>
<event>
 8    1  0.2837913E+004  0.1043930E+01  0.7957747E-01            NaN
         13   -1    0    0    0    0  0.00000000000E+00  0.00000000000E+00  0.74505805969E-08  0.10566000000E+00  0.10566000000E+00 0.  1.
     999900   -1    0    0    0    0 -0.00000000000E+00 -0.00000000000E+00 -0.74505805969E-08  0.93827000000E+00  0.93827000000E+00 0. -1.
     999902    2    1    2    0    0  0.13789652061E-01 -0.87543814084E-03 -0.31052949050E-02  0.10297679467E+01  0.10296705592E+01 0.  0.
     999903    2    3    3    0    0  0.60335325585E-01 -0.56491870525E-02 -0.11910505102E+00  0.14092306049E+00  0.44732884671E-01 0.  0.
         14    1    1    2    0    0 -0.13789652061E-01  0.87543814084E-03  0.31052949050E-02  0.14162053253E-01  0.00000000000E+00 0. -1.
     999901    1    3    3    0    0 -0.46545673524E-01  0.47737489116E-02  0.11599975612E+00  0.88884488626E+00  0.88000000000E+00 0.  1.
        -11    1    4    4    0    0  0.18806772862E-01  0.12065775872E-03 -0.84463775564E-01  0.86533807078E-01  0.51100000000E-03 0.  1.
         11    1    4    4    0    0  0.41528552723E-01 -0.57698448112E-02 -0.34641275460E-01  0.54389253414E-01  0.51100000000E-03 0. -1.
</event>
<event>
 8    1  0.2837913E+004  0.1043930E+01  0.7957747E-01            NaN
         13   -1    0    0    0    0  0.00000000000E+00  0.00000000000E+00  0.74505805969E-08  0.10566000000E+00  0.10566000000E+00 0.  1.
     999900   -1    0    0    0    0 -0.00000000000E+00 -0.00000000000E+00 -0.74505805969E-08  0.93827000000E+00  0.93827000000E+00 0.  1.
     999902    2    1    2    0    0  0.61901931394E-02  0.12522457553E-01  0.78308107451E-02  0.10279158803E+01  0.10277911290E+01 0.  0.
     999903    2    3    3    0    0 -0.12694172082E+00  0.17857897083E-01  0.25524689609E-01  0.13771048442E+00  0.43353924456E-01 0.  0.
         14    1    1    2    0    0 -0.61901931394E-02 -0.12522457553E-01 -0.78308107451E-02  0.16014119745E-01  0.00000000000E+00 0. -1.
     999901    1    3    3    0    0  0.13313191396E+00 -0.53354395300E-02 -0.17693878864E-01  0.89020539584E+00  0.88000000000E+00 0.  1.
        -11    1    4    4    0    0 -0.78205977871E-01  0.24373836054E-01  0.32335970100E-01  0.88068921545E-01  0.51100000000E-03 0.  1.
         11    1    4    4    0    0 -0.48735742949E-01 -0.65159389709E-02 -0.68112804906E-02  0.49641562872E-01  0.51100000000E-03 0. -1.
</event>
<event>
 8    1  0.2837913E+004  0.1043930E+01  0.7957747E-01            NaN
         13   -1    0    0    0    0  0.00000000000E+00  0.00000000000E+00  0.74505805969E-08  0.10566000000E+00  0.10566000000E+00 0.  1.
     999900   -1    0    0    0    0 -0.00000000000E+00 -0.00000000000E+00 -0.74505805969E-08  0.93827000000E+00  0.93827000000E+00 0. -1.
     999902    2    1    2    0    0 -0.11567321510E-01  0.12832512339E-02  0.59441546522E-02  0.10308616170E+01  0.10307787787E+01 0.  0.
     999903    2    3    3    0    0  0.11313704434E+00 -0.60049928711E-01 -0.20304689015E-01  0.13956933066E+00  0.51588108388E-01 0.  0.
         14    1    1    2    0    0  0.11567321510E-01 -0.12832512339E-02 -0.59441546522E-02  0.13068383036E-01  0.00000000000E+00 0.  1.
     999901    1    3    3    0    0 -0.12470436585E+00  0.61333179945E-01  0.26248843667E-01  0.89129228630E+00  0.88000000000E+00 0.  1.
        -11    1    4    4    0    0  0.50586115245E-01 -0.96394467721E-02  0.12168730290E-01  0.52917039860E-01  0.51100000000E-03 0. -1.
         11    1    4    4    0    0  0.62550929090E-01 -0.50410481939E-01 -0.32473419305E-01  0.86652290805E-01  0.51100000000E-03 0.  1.
</event>
<event>
 8    1  0.2837913E+004  0.1043930E+01  0.7957747E-01            NaN
         13   -1    0    0    0    0  0.00000000000E+00  0.00000000000E+00  0.74505805969E-08  0.10566000000E+00  0.10566000000E+00 0. -1.
     999900   -1    0    0    0    0 -0.00000000000E+00 -0.00000000000E+00 -0.74505805969E-08  0.93827000000E+00  0.93827000000E+00 0. -1.
     999902    2    1    2    0    0  0.34559840992E-02 -0.13645008050E-01  0.87214735911E-03  0.10298271382E+01  0.10297305685E+01 0.  0.
     999903    2    3    3    0    0 -0.63987127646E-01 -0.78703619278E-02 -0.11528030639E+00  0.13961743682E+00  0.45245823272E-01 0.  0.
         14    1    1    2    0    0 -0.34559840992E-02  0.13645008050E-01 -0.87214735911E-03  0.14102861830E-01  0.00000000000E+00 0.  1.
     999901    1    3    3    0    0  0.67443111745E-01 -0.57746461224E-02  0.11615245374E+00  0.89020970135E+00  0.88000000000E+00 0.  1.
        -11    1    4    4    0    0 -0.37547170918E-01 -0.16488660413E-01 -0.32617140718E-01  0.52400428966E-01  0.51100000000E-03 0.  1.
         11    1    4    4    0    0 -0.26439956728E-01  0.86182984851E-02 -0.82663165667E-01  0.87217007858E-01  0.51100000000E-03 0. -1.
</event>
<event>
 8    1  0.2837913E+004  0.1043930E+01  0.7957747E-01            NaN
         13   -1    0    0    0    0  0.00000000000E+00  0.00000000000E+00  0.74505805969E-08  0.10566000000E+00  0.10566000000E+00 0. -1.
     999900   -1    0    0    0    0 -0.00000000000E+00 -0.00000000000E+00 -0.74505805969E-08  0.93827000000E+00  0.93827000000E+00 0. -1.
     999902    2    1    2    0    0  0.67102655128E-03 -0.13424643055E-01 -0.23964025413E-02  0.10302766465E+01  0.10301861745E+01 0.  0.
     999903    2    3    3    0    0 -0.46764778034E-01  0.53093078987E-01 -0.11176545937E+00  0.13975076054E+00  0.45088109978E-01 0.  0.
         14    1    1    2    0    0 -0.67102655128E-03  0.13424643055E-01  0.23964025413E-02  0.13653353541E-01  0.00000000000E+00 0.  1.
     999901    1    3    3    0    0  0.47435804585E-01 -0.66517722042E-01  0.10936905683E+00  0.89052588592E+00  0.88000000000E+00 0. -1.
        -11    1    4    4    0    0 -0.54312011440E-01  0.39749968744E-01 -0.80535688573E-01  0.10495767174E+00  0.51100000000E-03 0. -1.
         11    1    4    4    0    0  0.75472334063E-02  0.13343110244E-01 -0.31229770799E-01  0.34793088800E-01  0.51100000000E-03 0.  1.
</event>
<event>
 8    1  0.2837913E+004  0.1043930E+01  0.7957747E-01            NaN
         13   -1    0    0    0    0  0.00000000000E+00  0.00000000000E+00  0.74505805969E-08  0.10566000000E+00  0.10566000000E+00 0. -1.
     999900   -1    0    0    0    0 -0.00000000000E+00 -0.00000000000E+00 -0.74505805969E-08  0.93827000000E+00  0.93827000000E+00 0.  1.
     999902    2    1    2    0    0  0.84817589839E-02 -0.96490321509E-02  0.56201188396E-02  0.10299075254E+01  0.10298120611E+01 0.  0.
     999903    2    3    3    0    0  0.39972966175E-03 -0.12492663793E+00 -0.48711079151E-01  0.14069094628E+00  0.42595169720E-01 0.  0.
         14    1    1    2    0    0 -0.84817589839E-02  0.96490321509E-02 -0.56201188396E-02  0.14022474556E-01  0.00000000000E+00 0.  1.
     999901    1    3    3    0    0  0.80820293221E-02  0.11527760578E+00  0.54331197990E-01  0.88921657917E+00  0.88000000000E+00 0. -1.
        -11    1    4    4    0    0  0.14192357010E-01 -0.13136354688E-01 -0.67205844471E-02  0.20479604203E-01  0.51100000000E-03 0. -1.
         11    1    4    4    0    0 -0.13792627348E-01 -0.11179028324E+00 -0.41990494704E-01  0.12021134207E+00  0.51100000000E-03 0.  1.
</event>
<event>
 8    1  0.2837913E+004  0.1043930E+01  0.7957747E-01            NaN
         13   -1    0    0    0    0  0.00000000000E+00  0.00000000000E+00  0.74505805969E-08  0.10566000000E+00  0.10566000000E+00 0. -1.
     999900   -1    0    0    0    0 -0.00000000000E+00 -0.00000000000E+00 -0.74505805969E-08  0.93827000000E+00  0.93827000000E+00 0. -1.
     999902    2    1    2    0    0 -0.85259477687E-02 -0.95511936013E-02  0.50473534919E-02  0.10301679921E+01  0.10300760647E+01 0.  0.
     999903    2    3    3    0    0 -0.26476324735E-01  0.12887524744E+00 -0.26141790764E-02  0.13913331560E+00  0.45182080561E-01 0.  0.
         14    1    1    2    0    0  0.85259477687E-02  0.95511936013E-02 -0.50473534919E-02  0.13762007914E-01  0.00000000000E+00 0. -1.
     999901    1    3    3    0    0  0.17950376967E-01 -0.13842644104E+00  0.76615325683E-02  0.89103467648E+00  0.88000000000E+00 0.  1.
        -11    1    4    4    0    0  0.43747932697E-03  0.15426532345E-01  0.14624267607E-01  0.21267336749E-01  0.51100000000E-03 0. -1.
         11    1    4    4    0    0 -0.26913804062E-01  0.11344871510E+00 -0.17238446683E-01  0.11786597885E+00  0.51100000000E-03 0.  1.
</event>
<event>
 8    1  0.2837913E+004  0.1043930E+01  0.7957747E-01            NaN
         13   -1    0    0    0    0  0.00000000000E+00  0.00000000000E+00  0.74505805969E-08  0.10566000000E+00  0.10566000000E+00 0. -1.
     999900   -1    0    0    0    0 -0.00000000000E+00 -0.00000000000E+00 -0.74505805969E-08  0.93827000000E+00  0.93827000000E+00 0. -1.
     999902    2    1    2    0    0 -0.12424448881E-01 -0.63998714093E-02  0.47362087177E-02  0.10291734097E+01  0.10290676121E+01 0.  0.
     999903    2    3    3    0    0 -0.64345968366E-01 -0.34096590670E-01 -0.11027743221E+00  0.13974039366E+00  0.45423390711E-01 0.  0.
         14    1    1    2    0    0  0.12424448881E-01  0.63998714093E-02 -0.47362087177E-02  0.14756590292E-01  0.00000000000E+00 0. -1.
     999901    1    3    3    0    0  0.51921519486E-01  0.27696719261E-01  0.11501364093E+00  0.88943301605E+00  0.88000000000E+00 0.  1.
        -11    1    4    4    0    0 -0.38510963350E-01  0.21970846291E-02 -0.34083617936E-01  0.51476942524E-01  0.51100000000E-03 0. -1.
         11    1    4    4    0    0 -0.25835005017E-01 -0.36293675299E-01 -0.76193814275E-01  0.88263451132E-01  0.51100000000E-03 0.  1.
</event>
<event>
 8    1  0.2837913E+004  0.1043930E+01  0.7957747E-01            NaN
         13   -1    0    0    0    0  0.00000000000E+00  0.00000000000E+00  0.74505805969E-08  0.10566000000E+00  0.10566000000E+00 0. -1.
     999900   -1    0    0    0    0 -0.00000000000E+00 -0.00000000000E+00 -0.74505805969E-08  0.93827000000E+00  0.93827000000E+00 0. -1.
     999902    2    1    2    0    0  0.91989571216E-02  0.38338052290E-02  0.83350124374E-02  0.10309380291E+01  0.10308561629E+01 0.  0.
     999903    2    3    3    0    0 -0.97218207637E-01 -0.88499742600E-01  0.15853748407E-01  0.13969921243E+00  0.44507800198E-01 0.  0.
         14    1    1    2    0    0 -0.91989571216E-02 -0.38338052290E-02 -0.83350124374E-02  0.12991970866E-01  0.00000000000E+00 0.  1.
     999901    1    3    3    0    0  0.10641716476E+00  0.92333547829E-01 -0.75187359695E-02  0.89123881670E+00  0.88000000000E+00 0. -1.
        -11    1    4    4    0    0 -0.37133624283E-01 -0.48950546761E-01  0.26622410051E-01  0.66963243040E-01  0.51100000000E-03 0.  1.
         11    1    4    4    0    0 -0.60084583354E-01 -0.39549195839E-01 -0.10768661644E-01  0.72735969389E-01  0.51100000000E-03 0. -1.
</event>
<event>
 8    1  0.2837913E+004  0.1043930E+01  0.7957747E-01            NaN
         13   -1    0    0    0    0  0.00000000000E+00  0.00000000000E+00  0.74505805969E-08  0.10566000000E+00  0.10566000000E+00 0.  1.
     999900   -1    0    0    0    0 -0.00000000000E+00 -0.00000000000E+00 -0.74505805969E-08  0.93827000000E+00  0.93827000000E+00 0.  1.
     999902    2    1    2    0    0 -0.49979237418E-02 -0.15876143913E-01 -0.31314952715E-03  0.10272828005E+01  0.10271479071E+01 0.  0.
     999903    2    3    3    0    0 -0.43811750740E-01 -0.21792750111E-01  0.12087577344E+00  0.13810999706E+00  0.45486538924E-01 0.  0.
         14    1    1    2    0    0  0.49979237418E-02  0.15876143913E-01  0.31314952715E-03  0.16647199461E-01  0.00000000000E+00 0. -1.
     999901    1    3    3    0    0  0.38813826998E-01  0.59166061973E-02 -0.12118892297E+00  0.88917280348E+00  0.88000000000E+00 0.  1.
        -11    1    4    4    0    0 -0.34695587383E-02  0.82030555348E-02  0.21472480248E-02  0.91760423400E-02  0.51100000000E-03 0. -1.
         11    1    4    4    0    0 -0.40342192001E-01 -0.29995805645E-01  0.11872852541E+00  0.12893395472E+00  0.51100000000E-03 0.  1.
</event>
<event>
 8    1  0.2837913E+004  0.1043930E+01  0.7957747E-01            NaN
         13   -1    0    0    0    0  0.00000000000E+00  0.00000000000E+00  0.74505805969E-08  0.10566000000E+00  0.10566000000E+00 0. -1.
     999900   -1    0    0    0    0 -0.00000000000E+00 -0.00000000000E+00 -0.74505805969E-08  0.93827000000E+00  0.93827000000E+00 0. -1.
     999902    2    1    2    0    0  0.14001503685E-01  0.22307894133E-02  0.16962531828E-02  0.10296507913E+01  0.10295517744E+01 0.  0.
     999903    2    3    3    0    0 -0.94741496453E-01 -0.26015837476E-01 -0.85169078356E-01  0.13826507352E+00  0.47017908253E-01 0.  0.
         14    1    1    2    0    0 -0.14001503685E-01 -0.22307894133E-02 -0.16962531828E-02  0.14279208721E-01  0.00000000000E+00 0.  1.
     999901    1    3    3    0    0  0.10874300014E+00  0.28246626889E-01  0.86865331539E-01  0.89138571776E+00  0.88000000000E+00 0.  1.
        -11    1    4    4    0    0 -0.52990145229E-01 -0.11092685681E-01 -0.16637884582E-01  0.56639946075E-01  0.51100000000E-03 0. -1.
         11    1    4    4    0    0 -0.41751351223E-01 -0.14923151794E-01 -0.68531193774E-01  0.81625127440E-01  0.51100000000E-03 0.  1.
</event>
<event>
 8    1  0.2837913E+004  0.1043930E+01  0.7957747E-01            NaN
         13   -1    0    0    0    0  0.00000000000E+00  0.00000000000E+00  0.74505805969E-08  0.10566000000E+00  0.10566000000E+00 0.  1.
     999900   -1    0    0    0    0 -0.00000000000E+00 -0.00000000000E+00 -0.74505805969E-08  0.93827000000E+00  0.93827000000E+00 0. -1.
     999902    2    1    2    0    0 -0.14778291980E-02  0.12202507970E-01  0.68163498334E-02  0.10298748300E+01  0.10297789168E+01 0.  0.
     999903    2    3    3    0    0 -0.38664131761E-01 -0.83383180860E-01 -0.92658078108E-01  0.13835107434E+00  0.45911114107E-01 0.  0.
         14    1    1    2    0    0  0.14778291980E-02 -0.12202507970E-01 -0.68163498334E-02  0.14055170043E-01  0.00000000000E+00 0. -1.
     999901    1    3    3    0    0  0.37186302563E-01  0.95585688829E-01  0.99474427941E-01  0.89152375561E+00  0.88000000000E+00 0.  1.
        -11    1    4    4    0    0 -0.19577603964E-01 -0.73205636227E-01 -0.50800501339E-01  0.91232120493E-01  0.51100000000E-03 0. -1.
         11    1    4    4    0    0 -0.19086527797E-01 -0.10177544633E-01 -0.41857576769E-01  0.47118953852E-01  0.51100000000E-03 0.  1.
</event>
<event>
 8    1  0.2837913E+004  0.1043930E+01  0.7957747E-01            NaN
         13   -1    0    0    0    0  0.00000000000E+00  0.00000000000E+00  0.74505805969E-08  0.10566000000E+00  0.10566000000E+00 0.  1.
     999900   -1    0    0    0    0 -0.00000000000E+00 -0.00000000000E+00 -0.74505805969E-08  0.93827000000E+00  0.93827000000E+00 0.  1.
     999902    2    1    2    0    0  0.14782000968E-01 -0.45466490469E-02 -0.55493871181E-02  0.10274990759E+01  0.10273676925E+01 0.  0.
     999903    2    3    3    0    0 -0.54283532652E-01  0.14395872256E-01 -0.11686454620E+00  0.13760024360E+00  0.46071268958E-01 0.  0.
         14    1    1    2    0    0 -0.14782000968E-01  0.45466490469E-02  0.55493871181E-02  0.16430924124E-01  0.00000000000E+00 0.  1.
     999901    1    3    3    0    0  0.69065533620E-01 -0.18942521303E-01  0.11131515909E+00  0.88989883228E+00  0.88000000000E+00 0. -1.
        -11    1    4    4    0    0 -0.20933507363E-01 -0.99124248890E-02 -0.76265602979E-01  0.79706782750E-01  0.51100000000E-03 0.  1.
         11    1    4    4    0    0 -0.33350025289E-01  0.24308297145E-01 -0.40598943226E-01  0.57893460848E-01  0.51100000000E-03 0. -1.
</event>
<event>
 8    1  0.2837913E+004  0.1043930E+01  0.7957747E-01            NaN
         13   -1    0    0    0    0  0.00000000000E+00  0.00000000000E+00  0.74505805969E-08  0.10566000000E+00  0.10566000000E+00 0. -1.
     999900   -1    0    0    0    0 -0.00000000000E+00 -0.00000000000E+00 -0.74505805969E-08  0.93827000000E+00  0.93827000000E+00 0. -1.
     999902    2    1    2    0    0  0.75138790720E-02  0.17139001371E-03  0.10580344114E-01  0.10309518863E+01  0.10308701957E+01 0.  0.
     999903    2    3    3    0    0  0.89712290792E-02 -0.11282551504E+00  0.71402635951E-01  0.14164329218E+00  0.46415579321E-01 0.  0.
         14    1    1    2    0    0 -0.75138790720E-02 -0.17139001371E-03 -0.10580344114E-01  0.12978113685E-01  0.00000000000E+00 0. -1.
     999901    1    3    3    0    0 -0.14573500071E-02  0.11299690505E+00 -0.60822291837E-01  0.88930859414E+00  0.88000000000E+00 0. -1.
        -11    1    4    4    0    0 -0.12801893427E-01 -0.89362623041E-01  0.51108545329E-01  0.10373963273E+00  0.51100000000E-03 0. -1.
         11    1    4    4    0    0  0.21773122506E-01 -0.23462891998E-01  0.20294090621E-01  0.37903659450E-01  0.51100000000E-03 0.  1.
</event>
<event>
 8    1  0.2837913E+004  0.1043930E+01  0.7957747E-01            NaN
         13   -1    0    0    0    0  0.00000000000E+00  0.00000000000E+00  0.74505805969E-08  0.10566000000E+00  0.10566000000E+00 0. -1.
     999900   -1    0    0    0    0 -0.00000000000E+00 -0.00000000000E+00 -0.74505805969E-08  0.93827000000E+00  0.93827000000E+00 0.  1.
     999902    2    1    2    0    0 -0.83161154042E-02  0.27241423845E-02 -0.98964539712E-02  0.10307194539E+01  0.10306347918E+01 0.  0.
     999903    2    3    3    0    0 -0.70433891088E-01  0.76496821787E-01 -0.85760386505E-01  0.14220588476E+00  0.45331810125E-01 0.  0.
         14    1    1    2    0    0  0.83161154042E-02 -0.27241423845E-02  0.98964539712E-02  0.13210546103E-01  0.00000000000E+00 0. -1.
     999901    1    3    3    0    0  0.62117775684E-01 -0.73772679403E-01  0.75863932534E-01  0.88851356914E+00  0.88000000000E+00 0. -1.
        -11    1    4    4    0    0 -0.20307025471E-01  0.44477413365E-01 -0.18156572766E-01  0.52158775280E-01  0.51100000000E-03 0. -1.
         11    1    4    4    0    0 -0.50126865617E-01  0.32019408422E-01 -0.67603813740E-01  0.90047109479E-01  0.51100000000E-03 0.  1.
</event>
<event>
 8    1  0.2837913E+004  0.1043930E+01  0.7957747E-01            NaN
         13   -1    0    0    0    0  0.00000000000E+00  0.00000000000E+00  0.74505805969E-08  0.10566000000E+00  0.10566000000E+00 0. -1.
     999900   -1    0    0    0    0 -0.00000000000E+00 -0.00000000000E+00 -0.74505805969E-08  0.93827000000E+00  0.93827000000E+00 0.  1.
     999902    2    1    2    0    0  0.27933970958E-02 -0.89658624923E-02  0.97121412937E-02  0.10304201722E+01  0.10303316048E+01 0.  0.
     999903    2    3    3    0    0 -0.34189162741E-01  0.60978775196E-01 -0.11150457308E+00  0.13859426215E+00  0.43448703174E-01 0.  0.
         14    1    1    2    0    0 -0.27933970958E-02  0.89658624923E-02 -0.97121412937E-02  0.13509827759E-01  0.00000000000E+00 0.  1.
     999901    1    3    3    0    0  0.36982559836E-01 -0.69944637688E-01  0.12121671438E+00  0.89182591010E+00  0.88000000000E+00 0. -1.
        -11    1    4    4    0    0 -0.14626975787E-01  0.18588016706E-01 -0.76960677331E-01  0.80515028175E-01  0.51100000000E-03 0.  1.
         11    1    4    4    0    0 -0.19562186954E-01  0.42390758490E-01 -0.34543895754E-01  0.58079233970E-01  0.51100000000E-03 0. -1.
</event>
<event>
 8    1  0.2837913E+004  0.1043930E+01  0.7957747E-01            NaN
         13   -1    0    0    0    0  0.00000000000E+00  0.00000000000E+00  0.74505805969E-08  0.10566000000E+00  0.10566000000E+00 0.  1.
     999900   -1    0    0    0    0 -0.00000000000E+00 -0.00000000000E+00 -0.74505805969E-08  0.93827000000E+00  0.93827000000E+00 0.  1.
     999902    2    1    2    0    0 -0.52364529896E-02  0.43652608225E-02  0.92168897063E-02  0.10324658385E+01  0.10324021894E+01 0.  0.
     999903    2    3    3    0    0  0.31563565931E-01  0.58763307485E-02  0.13194711475E+00  0.14318566174E+00  0.45401571318E-01 0.  0.
         14    1    1    2    0    0  0.52364529896E-02 -0.43652608225E-02 -0.92168897063E-02  0.11464161453E-01  0.00000000000E+00 0. -1.
     999901    1    3    3    0    0 -0.36800018921E-01 -0.15110699260E-02 -0.12273022505E+00  0.88928017681E+00  0.88000000000E+00 0.  1.
        -11    1    4    4    0    0 -0.26396847442E-03 -0.12257297874E-01  0.71179472765E-01  0.72229422638E-01  0.51100000000E-03 0. -1.
         11    1    4    4    0    0  0.31827534406E-01  0.18133628622E-01  0.60767641990E-01  0.70956239101E-01  0.51100000000E-03 0.  1.
</event>
<event>
 8    1  0.2837913E+004  0.1043930E+01  0.7957747E-01            NaN
         13   -1    0    0    0    0  0.00000000000E+00  0.00000000000E+00  0.74505805969E-08  0.10566000000E+00  0.10566000000E+00 0.  1.
     999900   -1    0    0    0    0 -0.00000000000E+00 -0.00000000000E+00 -0.74505805969E-08  0.93827000000E+00  0.93827000000E+00 0.  1.
     999902    2    1    2    0    0 -0.14903454120E-01 -0.27104544117E-03  0.39363785522E-02  0.10285130779E+01  0.10283975253E+01 0.  0.
     999903    2    3    3    0    0 -0.75181899114E-02 -0.13113872631E+00  0.80511330271E-02  0.13879524443E+00  0.44106806917E-01 0.  0.
         14    1    1    2    0    0  0.14903454120E-01  0.27104544117E-03 -0.39363785522E-02  0.15416922081E-01  0.00000000000E+00 0.  1.
     999901    1    3    3    0    0 -0.73852642088E-02  0.13086768087E+00 -0.41147544749E-02  0.88971783349E+00  0.88000000000E+00 0. -1.
        -11    1    4    4    0    0  0.13934794190E-01 -0.79624916233E-01 -0.65810917201E-02  0.81104116193E-01  0.51100000000E-03 0. -1.
         11    1    4    4    0    0 -0.21452984102E-01 -0.51513810075E-01  0.14632224747E-01  0.57691128238E-01  0.51100000000E-03 0.  1.
</event>
<event>
 8    1  0.2837913E+004  0.1043930E+01  0.7957747E-01            NaN
         13   -1    0    0    0    0  0.00000000000E+00  0.00000000000E+00  0.74505805969E-08  0.10566000000E+00  0.10566000000E+00 0. -1.
     999900   -1    0    0    0    0 -0.00000000000E+00 -0.00000000000E+00 -0.74505805969E-08  0.93827000000E+00  0.93827000000E+00 0. -1.
     999902    2    1    2    0    0  0.66289087696E-02  0.82605097238E-02 -0.82947075392E-02  0.10304770960E+01  0.10303892783E+01 0.  0.
     999903    2    3    3    0    0 -0.12249646709E+00  0.22317501500E-01 -0.46295204153E-01  0.14013165775E+00  0.44611436352E-01 0.  0.
         14    1    1    2    0    0 -0.66289087696E-02 -0.82605097238E-02  0.82947075392E-02  0.13452903981E-01  0.00000000000E+00 0. -1.
     999901    1    3    3    0    0  0.12912537586E+00 -0.14056991777E-01  0.38000496614E-01  0.89034543827E+00  0.88000000000E+00 0. -1.
        -11    1    4    4    0    0 -0.62917594476E-01 -0.18639896587E-02 -0.42029512380E-01  0.75689095542E-01  0.51100000000E-03 0. -1.
         11    1    4    4    0    0 -0.59578872610E-01  0.24181491159E-01 -0.42656917737E-02  0.64442562205E-01  0.51100000000E-03 0.  1.
</event>
<event>
 8    1  0.2837913E+004  0.1043930E+01  0.7957747E-01            NaN
         13   -1    0    0    0    0  0.00000000000E+00  0.00000000000E+00  0.74505805969E-08  0.10566000000E+00  0.10566000000E+00 0.  1.
     999900   -1    0    0    0    0 -0.00000000000E+00 -0.00000000000E+00 -0.74505805969E-08  0.93827000000E+00  0.93827000000E+00 0. -1.
     999902    2    1    2    0    0 -0.88273119022E-02 -0.28949618086E-02  0.11719450456E-01  0.10289751427E+01  0.10288664619E+01 0.  0.
     999903    2    3    3    0    0  0.39265721418E-01  0.10477204766E+00 -0.66023310388E-01  0.13771252050E+00  0.45680213876E-01 0.  0.
         14    1    1    2    0    0  0.88273119022E-02  0.28949618086E-02 -0.11719450456E-01  0.14954857348E-01  0.00000000000E+00 0. -1.
     999901    1    3    3    0    0 -0.48093033320E-01 -0.10766700946E+00  0.77742760844E-01  0.89126262215E+00  0.88000000000E+00 0.  1.
        -11    1    4    4    0    0  0.30828451228E-01  0.57641359949E-01 -0.13705824992E-01  0.66790946554E-01  0.51100000000E-03 0. -1.
         11    1    4    4    0    0  0.84372701898E-02  0.47130687706E-01 -0.52317485396E-01  0.70921573946E-01  0.51100000000E-03 0.  1.
</event>
<event>
 8    1  0.2837913E+004  0.1043930E+01  0.7957747E-01            NaN
         13   -1    0    0    0    0  0.00000000000E+00  0.00000000000E+00  0.74505805969E-08  0.10566000000E+00  0.10566000000E+00 0. -1.
     999900   -1    0    0    0    0 -0.00000000000E+00 -0.00000000000E+00 -0.74505805969E-08  0.93827000000E+00  0.93827000000E+00 0. -1.
     999902    2    1    2    0    0  0.15108476038E-03 -0.13412258273E-01 -0.10165457070E-02  0.10304784252E+01  0.10303906250E+01 0.  0.
     999903    2    3    3    0    0 -0.19939161845E-01 -0.66514856025E-01  0.11448962649E+00  0.14111619323E+00  0.44543340359E-01 0.  0.
         14    1    1    2    0    0 -0.15108476038E-03  0.13412258273E-01  0.10165457070E-02  0.13451574769E-01  0.00000000000E+00 0.  1.
     999901    1    3    3    0    0  0.20090246605E-01  0.53102597752E-01 -0.11550617220E+00  0.88936223200E+00  0.88000000000E+00 0. -1.
        -11    1    4    4    0    0  0.47240376857E-02 -0.41022555004E-01  0.86771511582E-01  0.96097465597E-01  0.51100000000E-03 0.  1.
         11    1    4    4    0    0 -0.24663199531E-01 -0.25492301021E-01  0.27718114909E-01  0.45018727631E-01  0.51100000000E-03 0. -1.
</event>
<event>
 8    1  0.2837913E+004  0.1043930E+01  0.7957747E-01            NaN
         13   -1    0    0    0    0  0.00000000000E+00  0.00000000000E+00  0.74505805969E-08  0.10566000000E+00  0.10566000000E+00 0.  1.
     999900   -1    0    0    0    0 -0.00000000000E+00 -0.00000000000E+00 -0.74505805969E-08  0.93827000000E+00  0.93827000000E+00 0. -1.
     999902    2    1    2    0    0  0.38315714561E-02  0.11111079379E-01 -0.61025226458E-02  0.10306869714E+01  0.10306018897E+01 0.  0.
     999903    2    3    3    0    0 -0.11519674834E-01  0.13002944962E+00 -0.33326480211E-01  0.14213850144E+00  0.45302744184E-01 0.  0.
         14    1    1    2    0    0 -0.38315714561E-02 -0.11111079379E-01  0.61025226458E-02  0.13243028635E-01  0.00000000000E+00 0.  1.
     999901    1    3    3    0    0  0.15351246291E-01 -0.11891837024E+00  0.27223957565E-01  0.88854846993E+00  0.88000000000E+00 0. -1.
        -11    1    4    4    0    0  0.14058783877E-01  0.19172153375E-01 -0.73473544015E-03  0.23791213217E-01  0.51100000000E-03 0.  1.
         11    1    4    4    0    0 -0.25578458712E-01  0.11085729625E+00 -0.32591744771E-01  0.11834728822E+00  0.51100000000E-03 0. -1.
</event>
<event>
 8    1  0.2837913E+004  0.1043930E+01  0.7957747E-01            NaN
         13   -1    0    0    0    0  0.00000000000E+00  0.00000000000E+00  0.74505805969E-08  0.10566000000E+00  0.10566000000E+00 0. -1.
     999900   -1    0    0    0    0 -0.00000000000E+00 -0.00000000000E+00 -0.74505805969E-08  0.93827000000E+00  0.93827000000E+00 0. -1.
     999902    2    1    2    0    0  0.69770212842E-03  0.70064700562E-02 -0.15449819225E-01  0.10269513568E+01  0.10268109928E+01 0.  0.
     999903    2    3    3    0    0  0.62061013137E-02 -0.29164087266E-01  0.12443524898E+00  0.13515178067E+00  0.43506470207E-01 0.  0.
         14    1    1    2    0    0 -0.69770212842E-03 -0.70064700562E-02  0.15449819225E-01  0.16978643203E-01  0.00000000000E+00 0. -1.
     999901    1    3    3    0    0 -0.55083991853E-02  0.36170557322E-01 -0.13988506820E+00  0.89179957613E+00  0.88000000000E+00 0. -1.
        -11    1    4    4    0    0 -0.92922274784E-02 -0.11398117966E-01  0.10042727308E+00  0.10149956101E+00  0.51100000000E-03 0. -1.
         11    1    4    4    0    0  0.15498328792E-01 -0.17765969300E-01  0.24007975894E-01  0.33652219660E-01  0.51100000000E-03 0.  1.
</event>
<event>
 8    1  0.2837913E+004  0.1043930E+01  0.7957747E-01            NaN
         13   -1    0    0    0    0  0.00000000000E+00  0.00000000000E+00  0.74505805969E-08  0.10566000000E+00  0.10566000000E+00 0. -1.
     999900   -1    0    0    0    0 -0.00000000000E+00 -0.00000000000E+00 -0.74505805969E-08  0.93827000000E+00  0.93827000000E+00 0. -1.
     999902    2    1    2    0    0 -0.13305071097E-01  0.32523966910E-02  0.60430067659E-02  0.10289593309E+01  0.10288504186E+01 0.  0.
     999903    2    3    3    0    0  0.56623868184E-01 -0.93796001421E-01 -0.69963050558E-01  0.13762024346E+00  0.45172454402E-01 0.  0.
         14    1    1    2    0    0  0.13305071097E-01 -0.32523966910E-02 -0.60430067659E-02  0.14970669054E-01  0.00000000000E+00 0.  1.
     999901    1    3    3    0    0 -0.69928939282E-01  0.97048398112E-01  0.76006057324E-01  0.89133908748E+00  0.88000000000E+00 0. -1.
        -11    1    4    4    0    0  0.17437705578E-01 -0.48246430482E-01 -0.91209350770E-02  0.52108005218E-01  0.51100000000E-03 0. -1.
         11    1    4    4    0    0  0.39186162607E-01 -0.45549570939E-01 -0.60842115481E-01  0.85512238246E-01  0.51100000000E-03 0.  1.
</event>
<event>
 8    1  0.2837913E+004  0.1043930E+01  0.7957747E-01            NaN
         13   -1    0    0    0    0  0.00000000000E+00  0.00000000000E+00  0.74505805969E-08  0.10566000000E+00  0.10566000000E+00 0.  1.
     999900   -1    0    0    0    0 -0.00000000000E+00 -0.00000000000E+00 -0.74505805969E-08  0.93827000000E+00  0.93827000000E+00 0. -1.
     999902    2    1    2    0    0 -0.77736049698E-02  0.28168624905E-02  0.10926524045E-01  0.10302277164E+01  0.10301365905E+01 0.  0.
     999903    2    3    3    0    0 -0.79626055168E-01 -0.51848640911E-01  0.94752143505E-01  0.14164579763E+00  0.45353864904E-01 0.  0.
         14    1    1    2    0    0  0.77736049698E-02 -0.28168624905E-02 -0.10926524045E-01  0.13702283613E-01  0.00000000000E+00 0. -1.
     999901    1    3    3    0    0  0.71852450198E-01  0.54665503401E-01 -0.83825619461E-01  0.88858191876E+00  0.88000000000E+00 0. -1.
        -11    1    4    4    0    0 -0.52155068090E-01 -0.56789037795E-01  0.73895536130E-01  0.10679867659E+00  0.51100000000E-03 0.  1.
         11    1    4    4    0    0 -0.27470987078E-01  0.49403968839E-02  0.20856607375E-01  0.34847121038E-01  0.51100000000E-03 0. -1.
</event>
<event>
 8    1  0.2837913E+004  0.1043930E+01  0.7957747E-01            NaN
         13   -1    0    0    0    0  0.00000000000E+00  0.00000000000E+00  0.74505805969E-08  0.10566000000E+00  0.10566000000E+00 0. -1.
     999900   -1    0    0    0    0 -0.00000000000E+00 -0.00000000000E+00 -0.74505805969E-08  0.93827000000E+00  0.93827000000E+00 0.  1.
     999902    2    1    2    0    0  0.68931915492E-02  0.91204170515E-02  0.87549952644E-02  0.10295304153E+01  0.10294297101E+01 0.  0.
     999903    2    3    3    0    0  0.15290107942E-01 -0.11712387404E+00  0.58132830325E-01  0.13911124446E+00  0.44952453800E-01 0.  0.
         14    1    1    2    0    0 -0.68931915492E-02 -0.91204170515E-02 -0.87549952644E-02  0.14399584682E-01  0.00000000000E+00 0.  1.
     999901    1    3    3    0    0 -0.83969163924E-02  0.12624429109E+00 -0.49377835061E-01  0.89041917086E+00  0.88000000000E+00 0. -1.
        -11    1    4    4    0    0 -0.99909493160E-02 -0.58340498627E-01  0.43530293878E-01  0.73475032864E-01  0.51100000000E-03 0. -1.
         11    1    4    4    0    0  0.25281057258E-01 -0.58783375412E-01  0.14602536447E-01  0.65636211595E-01  0.51100000000E-03 0.  1.
</event>
<event>
 8    1  0.2837913E+004  0.1043930E+01  0.7957747E-01            NaN
         13   -1    0    0    0    0  0.00000000000E+00  0.00000000000E+00  0.74505805969E-08  0.10566000000E+00  0.10566000000E+00 0.  1.
     999900   -1    0    0    0    0 -0.00000000000E+00 -0.00000000000E+00 -0.74505805969E-08  0.93827000000E+00  0.93827000000E+00 0.  1.
     999902    2    1    2    0    0 -0.15874065800E-01 -0.12849505754E-01  0.16367498961E-01  0.10177576714E+01  0.10174210961E+01 0.  0.
     999903    2    3    3    0    0  0.16611879538E-01  0.76312322407E-01 -0.88411469779E-01  0.12647556086E+00  0.45606517222E-01 0.  0.
         14    1    1    2    0    0  0.15874065800E-01  0.12849505754E-01 -0.16367498961E-01  0.26172328620E-01  0.00000000000E+00 0. -1.
     999901    1    3    3    0    0 -0.32485945338E-01 -0.89161828161E-01  0.10477896874E+00  0.89128211052E+00  0.88000000000E+00 0. -1.
        -11    1    4    4    0    0  0.27445679121E-01  0.68841293660E-01 -0.60713550633E-01  0.95805977719E-01  0.51100000000E-03 0.  1.
         11    1    4    4    0    0 -0.10833799583E-01  0.74710287465E-02 -0.27697919146E-01  0.30669583139E-01  0.51100000000E-03 0. -1.
</event>
<event>
 8    1  0.2837913E+004  0.1043930E+01  0.7957747E-01            NaN
         13   -1    0    0    0    0  0.00000000000E+00  0.00000000000E+00  0.74505805969E-08  0.10566000000E+00  0.10566000000E+00 0. -1.
     999900   -1    0    0    0    0 -0.00000000000E+00 -0.00000000000E+00 -0.74505805969E-08  0.93827000000E+00  0.93827000000E+00 0. -1.
     999902    2    1    2    0    0  0.73009919955E-02  0.26105763174E-02 -0.12391196483E-01  0.10293128408E+01  0.10292090472E+01 0.  0.
     999903    2    3    3    0    0  0.80988177506E-01  0.64313003644E-01 -0.84962599004E-01  0.14111038679E+00  0.44701797465E-01 0.  0.
         14    1    1    2    0    0 -0.73009919955E-02 -0.26105763174E-02  0.12391196483E-01  0.14617159201E-01  0.00000000000E+00 0. -1.
     999901    1    3    3    0    0 -0.73687185511E-01 -0.61702427327E-01  0.72571402522E-01  0.88820245401E+00  0.88000000000E+00 0.  1.
        -11    1    4    4    0    0  0.61814049508E-01  0.49655802492E-01 -0.37176506700E-01  0.87572993606E-01  0.51100000000E-03 0.  1.
         11    1    4    4    0    0  0.19174127998E-01  0.14657201152E-01 -0.47786092304E-01  0.53537393183E-01  0.51100000000E-03 0. -1.
</event>
<event>
 8    1  0.2837913E+004  0.1043930E+01  0.7957747E-01            NaN
         13   -1    0    0    0    0  0.00000000000E+00  0.00000000000E+00  0.74505805969E-08  0.10566000000E+00  0.10566000000E+00 0. -1.
     999900   -1    0    0    0    0 -0.00000000000E+00 -0.00000000000E+00 -0.74505805969E-08  0.93827000000E+00  0.93827000000E+00 0. -1.
     999902    2    1    2    0    0  0.10474461853E-01  0.70972049006E-02  0.12617065915E-02  0.10312147897E+01  0.10311363954E+01 0.  0.
     999903    2    3    3    0    0 -0.56595200782E-01 -0.55892094039E-01  0.10639019148E+00  0.14019403254E+00  0.44816860526E-01 0.  0.
         14    1    1    2    0    0 -0.10474461853E-01 -0.70972049006E-02 -0.12617065915E-02  0.12715210263E-01  0.00000000000E+00 0. -1.
     999901    1    3    3    0    0  0.67069662636E-01  0.62989298940E-01 -0.10512848489E+00  0.89102075720E+00  0.88000000000E+00 0. -1.
        -11    1    4    4    0    0 -0.28344536001E-01 -0.24893756785E-01  0.85247860466E-01  0.93223230383E-01  0.51100000000E-03 0.  1.
         11    1    4    4    0    0 -0.28250664781E-01 -0.30998337254E-01  0.21142331016E-01  0.46970802153E-01  0.51100000000E-03 0. -1.
</event>
<event>
 8    1  0.2837913E+004  0.1043930E+01  0.7957747E-01            NaN
         13   -1    0    0    0    0  0.00000000000E+00  0.00000000000E+00  0.74505805969E-08  0.10566000000E+00  0.10566000000E+00 0. -1.
     999900   -1    0    0    0    0 -0.00000000000E+00 -0.00000000000E+00 -0.74505805969E-08  0.93827000000E+00  0.93827000000E+00 0.  1.
     999902    2    1    2    0    0  0.66780378865E-02 -0.54347520188E-02  0.11327138481E-01  0.10297019718E+01  0.10296036684E+01 0.  0.
     999903    2    3    3    0    0  0.12815974397E+00  0.35137624312E-01  0.11245430200E-01  0.14043039952E+00  0.43984824579E-01 0.  0.
         14    1    1    2    0    0 -0.66780378865E-02  0.54347520188E-02 -0.11327138481E-01  0.14228028173E-01  0.00000000000E+00 0. -1.
     999901    1    3    3    0    0 -0.12148170608E+00 -0.40572376331E-01  0.81708281597E-04  0.88927157231E+00  0.88000000000E+00 0. -1.
        -11    1    4    4    0    0  0.11642685673E+00  0.22025607016E-01 -0.18230711068E-02  0.11850706748E+00  0.51100000000E-03 0.  1.
         11    1    4    4    0    0  0.11732887234E-01  0.13112017296E-01  0.13068501307E-01  0.21923332042E-01  0.51100000000E-03 0. -1.
</event>
<event>
 8    1  0.2837913E+004  0.1043930E+01  0.7957747E-01            NaN
         13   -1    0    0    0    0  0.00000000000E+00  0.00000000000E+00  0.74505805969E-08  0.10566000000E+00  0.10566000000E+00 0. -1.
     999900   -1    0    0    0    0 -0.00000000000E+00 -0.00000000000E+00 -0.74505805969E-08  0.93827000000E+00  0.93827000000E+00 0. -1.
     999902    2    1    2    0    0 -0.11642815686E-01 -0.71987775931E-02  0.21809141589E-02  0.10300687611E+01  0.10299754942E+01 0.  0.
     999903    2    3    3    0    0  0.10753013039E+00 -0.30984573468E-01  0.69498334711E-01  0.13917056816E+00  0.44896055286E-01 0.  0.
         14    1    1    2    0    0  0.11642815686E-01  0.71987775931E-02 -0.21809141589E-02  0.13861238852E-01  0.00000000000E+00 0. -1.
     999901    1    3    3    0    0 -0.11917294607E+00  0.23785795875E-01 -0.67317420553E-01  0.89089819299E+00  0.88000000000E+00 0.  1.
        -11    1    4    4    0    0  0.20361824608E-01  0.49369022996E-02  0.30804946628E-01  0.37258324754E-01  0.51100000000E-03 0.  1.
         11    1    4    4    0    0  0.87168305779E-01 -0.35921475767E-01  0.38693388083E-01  0.10191224341E+00  0.51100000000E-03 0. -1.
</event>
<event>
 8    1  0.2837913E+004  0.1043930E+01  0.7957747E-01            NaN
         13   -1    0    0    0    0  0.00000000000E+00  0.00000000000E+00  0.74505805969E-08  0.10566000000E+00  0.10566000000E+00 0.  1.
     999900   -1    0    0    0    0 -0.00000000000E+00 -0.00000000000E+00 -0.74505805969E-08  0.93827000000E+00  0.93827000000E+00 0.  1.
     999902    2    1    2    0    0 -0.78197670130E-02  0.11708425694E-03 -0.11413664401E-01  0.10300940252E+01  0.10300011002E+01 0.  0.
     999903    2    3    3    0    0  0.98843928823E-01 -0.34880235053E-03 -0.88869448949E-01  0.14027563940E+00  0.44824459012E-01 0.  0.
         14    1    1    2    0    0  0.78197670130E-02 -0.11708425694E-03  0.11413664401E-01  0.13835974845E-01  0.00000000000E+00 0.  1.
     999901    1    3    3    0    0 -0.10666369584E+00  0.46588660747E-03  0.77455784548E-01  0.88981838575E+00  0.88000000000E+00 0. -1.
        -11    1    4    4    0    0  0.85661780784E-02  0.78071634929E-02  0.21712597377E-02  0.11802825870E-01  0.51100000000E-03 0. -1.
         11    1    4    4    0    0  0.90277750744E-01 -0.81559658434E-02 -0.91040708686E-01  0.12847281353E+00  0.51100000000E-03 0.  1.
</event>
<event>
 8    1  0.2837913E+004  0.1043930E+01  0.7957747E-01            NaN
         13   -1    0    0    0    0  0.00000000000E+00  0.00000000000E+00  0.74505805969E-08  0.10566000000E+00  0.10566000000E+00 0. -1.
     999900   -1    0    0    0    0 -0.00000000000E+00 -0.00000000000E+00 -0.74505805969E-08  0.93827000000E+00  0.93827000000E+00 0.  1.
     999902    2    1    2    0    0 -0.64400042464E-02 -0.90805603588E-02 -0.43536358322E-02  0.10319765747E+01  0.10319073439E+01 0.  0.
     999903    2    3    3    0    0 -0.10854405370E-01 -0.28880130869E-01 -0.13170406391E+00  0.14257810301E+00  0.45063010695E-01 0.  0.
         14    1    1    2    0    0  0.64400042464E-02  0.90805603588E-02  0.43536358322E-02  0.11953425287E-01  0.00000000000E+00 0. -1.
     999901    1    3    3    0    0  0.44144011233E-02  0.19799570510E-01  0.12735042808E+00  0.88939847170E+00  0.88000000000E+00 0. -1.
        -11    1    4    4    0    0  0.17618341410E-01 -0.13341648012E-01 -0.56851103151E-01  0.60997660416E-01  0.51100000000E-03 0. -1.
         11    1    4    4    0    0 -0.28472746780E-01 -0.15538482857E-01 -0.74852960762E-01  0.81580442598E-01  0.51100000000E-03 0.  1.
</event>
<event>
 8    1  0.2837913E+004  0.1043930E+01  0.7957747E-01            NaN
         13   -1    0    0    0    0  0.00000000000E+00  0.00000000000E+00  0.74505805969E-08  0.10566000000E+00  0.10566000000E+00 0.  1.
     999900   -1    0    0    0    0 -0.00000000000E+00 -0.00000000000E+00 -0.74505805969E-08  0.93827000000E+00  0.93827000000E+00 0. -1.
     999902    2    1    2    0    0  0.11185666489E-01  0.47662769644E-02  0.68046114898E-02  0.10299966132E+01  0.10299023662E+01 0.  0.
     999903    2    3    3    0    0  0.80266961046E-01 -0.10590585187E+00  0.56709261081E-02  0.14037768880E+00  0.44887655491E-01 0.  0.
         14    1    1    2    0    0 -0.11185666489E-01 -0.47662769644E-02 -0.68046114898E-02  0.13933386826E-01  0.00000000000E+00 0. -1.
     999901    1    3    3    0    0 -0.69081294557E-01  0.11067212883E+00  0.11336853817E-02  0.88961892437E+00  0.88000000000E+00 0. -1.
        -11    1    4    4    0    0  0.17743931418E-01 -0.30396827885E-01 -0.17984051428E-01  0.39528489402E-01  0.51100000000E-03 0.  1.
         11    1    4    4    0    0  0.62523029628E-01 -0.75509023982E-01  0.23654977536E-01  0.10084919940E+00  0.51100000000E-03 0. -1.
</event>
<event>
 7    1  0.2837913E+004  0.1043930E+01  0.7957747E-01            NaN
         13   -1    0    0    0    0  0.00000000000E+00  0.00000000000E+00  0.74505805969E-08  0.10566000000E+00  0.10566000000E+00 0.  1.
     999900   -1    0    0    0    0 -0.00000000000E+00 -0.00000000000E+00 -0.74505805969E-08  0.93827000000E+00  0.93827000000E+00 0.  1.
     999903    2    1    2    0    0 -0.68530979727E-01  0.61821114779E-01 -0.54540731225E-01  0.11628650000E+00  0.45050119922E-01 0.  0.
         14    1    1    2    0    0 -0.11771638348E-01 -0.37880824879E-01  0.16151071196E-01  0.42829726402E-01  0.00000000000E+00 0.  1.
     999901    1    1    2    0    0  0.80302618075E-01 -0.23940289900E-01  0.38389660028E-01  0.88481377360E+00  0.88000000000E+00 0. -1.
        -11    1    3    3    0    0 -0.23098587400E-01  0.44141754241E-01 -0.11228160198E-01  0.51072222487E-01  0.51100000000E-03 0. -1.
         11    1    3    3    0    0 -0.45432392327E-01  0.17679360537E-01 -0.43312571027E-01  0.65214277513E-01  0.51100000000E-03 0.  1.
</event>
<event>
 8    1  0.2837913E+004  0.1043930E+01  0.7957747E-01            NaN
         13   -1    0    0    0    0  0.00000000000E+00  0.00000000000E+00  0.74505805969E-08  0.10566000000E+00  0.10566000000E+00 0.  1.
     999900   -1    0    0    0    0 -0.00000000000E+00 -0.00000000000E+00 -0.74505805969E-08  0.93827000000E+00  0.93827000000E+00 0.  1.
     999902    2    1    2    0    0 -0.80063372415E-02  0.46318908065E-02  0.10438922255E-01  0.10299827083E+01  0.10298882718E+01 0.  0.
     999903    2    3    3    0    0  0.72647012046E-01 -0.81641242093E-01  0.78720988932E-01  0.13947136257E+00  0.36226869981E-01 0.  0.
         14    1    1    2    0    0  0.80063372415E-02 -0.46318908065E-02 -0.10438922255E-01  0.13947291719E-01  0.00000000000E+00 0. -1.
     999901    1    3    3    0    0 -0.80653349288E-01  0.86273132900E-01 -0.68282066677E-01  0.89051134571E+00  0.88000000000E+00 0. -1.
        -11    1    4    4    0    0  0.66391254035E-01 -0.72319219019E-01  0.53374267530E-01  0.11174498471E+00  0.51100000000E-03 0. -1.
         11    1    4    4    0    0  0.62557580110E-02 -0.93220230742E-02  0.25346721402E-01  0.27726377861E-01  0.51100000000E-03 0.  1.
</event>
<event>
 7    1  0.2837913E+004  0.1043930E+01  0.7957747E-01            NaN
         13   -1    0    0    0    0  0.00000000000E+00  0.00000000000E+00  0.74505805969E-08  0.10566000000E+00  0.10566000000E+00 0.  1.
     999900   -1    0    0    0    0 -0.00000000000E+00 -0.00000000000E+00 -0.74505805969E-08  0.93827000000E+00  0.93827000000E+00 0. -1.
     999903    2    1    2    0    0  0.11066629739E+00  0.42279543866E-01  0.19294123378E-02  0.12647803069E+00  0.44253592029E-01 0.  0.
         14    1    1    2    0    0  0.46336516524E-02 -0.13804453904E-01  0.25149917652E-01  0.29061177422E-01  0.00000000000E+00 0.  1.
     999901    1    1    2    0    0 -0.11529994904E+00 -0.28475089962E-01 -0.27079329990E-01  0.88839079189E+00  0.88000000000E+00 0.  1.
        -11    1    3    3    0    0  0.63895458776E-01  0.16390010361E-01 -0.19643684988E-01  0.68828755421E-01  0.51100000000E-03 0.  1.
         11    1    3    3    0    0  0.46770838615E-01  0.25889533504E-01  0.21573097326E-01  0.57649275269E-01  0.51100000000E-03 0. -1.
</event>
<event>
 8    1  0.2837913E+004  0.1043930E+01  0.7957747E-01            NaN
         13   -1    0    0    0    0  0.00000000000E+00  0.00000000000E+00  0.74505805969E-08  0.10566000000E+00  0.10566000000E+00 0. -1.
     999900   -1    0    0    0    0 -0.00000000000E+00 -0.00000000000E+00 -0.74505805969E-08  0.93827000000E+00  0.93827000000E+00 0. -1.
     999902    2    1    2    0    0  0.16445046273E-02  0.69395128398E-02 -0.51919111084E-02  0.10351085956E+01  0.10350710061E+01 0.  0.
     999903    2    3    3    0    0  0.13168460604E+00 -0.33341189474E-01  0.21221212685E-01  0.14424911398E+00  0.43646267130E-01 0.  0.
         14    1    1    2    0    0 -0.16445046273E-02 -0.69395128398E-02  0.51919111084E-02  0.88214043599E-02  0.00000000000E+00 0. -1.
     999901    1    3    3    0    0 -0.13004010141E+00  0.40280702314E-01 -0.26413123793E-01  0.89085948166E+00  0.88000000000E+00 0. -1.
        -11    1    4    4    0    0  0.53089873274E-01 -0.35433475089E-01  0.54859636426E-02  0.64065768701E-01  0.51100000000E-03 0. -1.
         11    1    4    4    0    0  0.78594732761E-01  0.20922856152E-02  0.15735249042E-01  0.80183345280E-01  0.51100000000E-03 0.  1.
</event>
<event>
 8    1  0.2837913E+004  0.1043930E+01  0.7957747E-01            NaN
         13   -1    0    0    0    0  0.00000000000E+00  0.00000000000E+00  0.74505805969E-08  0.10566000000E+00  0.10566000000E+00 0.  1.
     999900   -1    0    0    0    0 -0.00000000000E+00 -0.00000000000E+00 -0.74505805969E-08  0.93827000000E+00  0.93827000000E+00 0.  1.
     999902    2    1    2    0    0  0.61937566757E-02  0.77442135609E-02 -0.11482463507E-01  0.10287582356E+01  0.10286463556E+01 0.  0.
     999903    2    3    3    0    0  0.39205343048E-01 -0.63518318716E-01  0.10613112006E+00  0.13746643810E+00  0.45404528656E-01 0.  0.
         14    1    1    2    0    0 -0.61937566757E-02 -0.77442135609E-02  0.11482463507E-01  0.15171764354E-01  0.00000000000E+00 0.  1.
     999901    1    3    3    0    0 -0.33011586372E-01  0.71262532277E-01 -0.11761358356E+00  0.89129179755E+00  0.88000000000E+00 0.  1.
        -11    1    4    4    0    0 -0.81314255461E-02 -0.21767778602E-01  0.19871536672E-01  0.30579328923E-01  0.51100000000E-03 0.  1.
         11    1    4    4    0    0  0.47336768594E-01 -0.41750540114E-01  0.86259583384E-01  0.10688710917E+00  0.51100000000E-03 0. -1.
</event>
<event>
 8    1  0.2837913E+004  0.1043930E+01  0.7957747E-01            NaN
         13   -1    0    0    0    0  0.00000000000E+00  0.00000000000E+00  0.74505805969E-08  0.10566000000E+00  0.10566000000E+00 0. -1.
     999900   -1    0    0    0    0 -0.00000000000E+00 -0.00000000000E+00 -0.74505805969E-08  0.93827000000E+00  0.93827000000E+00 0.  1.
     999902    2    1    2    0    0 -0.93500021596E-02  0.66701047897E-02 -0.70773022409E-02  0.10304392237E+01  0.10303509075E+01 0.  0.
     999903    2    3    3    0    0 -0.83184107581E-03 -0.76164475573E-01  0.10681827033E+00  0.13920057540E+00  0.46528894422E-01 0.  0.
         14    1    1    2    0    0  0.93500021596E-02 -0.66701047897E-02  0.70773022409E-02  0.13490776305E-01  0.00000000000E+00 0.  1.
     999901    1    3    3    0    0 -0.85181610838E-02  0.82834580362E-01 -0.11389557257E+00  0.89123864830E+00  0.88000000000E+00 0.  1.
        -11    1    4    4    0    0  0.22854484093E-02 -0.79970408043E-01  0.84600045226E-01  0.11643847393E+00  0.51100000000E-03 0. -1.
         11    1    4    4    0    0 -0.31172894851E-02  0.38059324702E-02  0.22218225101E-01  0.22762101470E-01  0.51100000000E-03 0.  1.
</event>
<event>
 8    1  0.2837913E+004  0.1043930E+01  0.7957747E-01            NaN
         13   -1    0    0    0    0  0.00000000000E+00  0.00000000000E+00  0.74505805969E-08  0.10566000000E+00  0.10566000000E+00 0. -1.
     999900   -1    0    0    0    0 -0.00000000000E+00 -0.00000000000E+00 -0.74505805969E-08  0.93827000000E+00  0.93827000000E+00 0. -1.
     999902    2    1    2    0    0  0.32937114767E-02  0.12477789807E-01 -0.37469903495E-02  0.10304918561E+01  0.10304042323E+01 0.  0.
     999903    2    3    3    0    0 -0.84053705306E-01 -0.28452683715E-01  0.97734477458E-01  0.13942319257E+00  0.44857752473E-01 0.  0.
         14    1    1    2    0    0 -0.32937114767E-02 -0.12477789807E-01  0.37469903495E-02  0.13438143861E-01  0.00000000000E+00 0. -1.
     999901    1    3    3    0    0  0.87347416782E-01  0.40930473522E-01 -0.10148146781E+00  0.89106866357E+00  0.88000000000E+00 0. -1.
        -11    1    4    4    0    0 -0.66244059919E-01 -0.31006320305E-01  0.50520131538E-01  0.88894387815E-01  0.51100000000E-03 0.  1.
         11    1    4    4    0    0 -0.17809645387E-01  0.25536365892E-02  0.47214345919E-01  0.50528804758E-01  0.51100000000E-03 0. -1.
</event>
<event>
 8    1  0.2837913E+004  0.1043930E+01  0.7957747E-01            NaN
         13   -1    0    0    0    0  0.00000000000E+00  0.00000000000E+00  0.74505805969E-08  0.10566000000E+00  0.10566000000E+00 0.  1.
     999900   -1    0    0    0    0 -0.00000000000E+00 -0.00000000000E+00 -0.74505805969E-08  0.93827000000E+00  0.93827000000E+00 0. -1.
     999902    2    1    2    0    0  0.62724439488E-02 -0.53899087682E-02  0.10236989564E-01  0.10307698091E+01  0.10306857953E+01 0.  0.
     999903    2    3    3    0    0  0.67342456912E-01  0.11483823597E+00  0.38432631158E-02  0.14047478326E+00  0.44671770926E-01 0.  0.
         14    1    1    2    0    0 -0.62724439488E-02  0.53899087682E-02 -0.10236989564E-01  0.13160190917E-01  0.00000000000E+00 0. -1.
     999901    1    3    3    0    0 -0.61070012963E-01 -0.12022814473E+00  0.63937264485E-02  0.89029502582E+00  0.88000000000E+00 0.  1.
        -11    1    4    4    0    0  0.32653033116E-01  0.60134445165E-01  0.24185958999E-01  0.72578190944E-01  0.51100000000E-03 0.  1.
         11    1    4    4    0    0  0.34689423796E-01  0.54703790801E-01 -0.20342695883E-01  0.67896592315E-01  0.51100000000E-03 0. -1.
</event>
<event>
 8    1  0.2837913E+004  0.1043930E+01  0.7957747E-01            NaN
         13   -1    0    0    0    0  0.00000000000E+00  0.00000000000E+00  0.74505805969E-08  0.10566000000E+00  0.10566000000E+00 0.  1.
     999900   -1    0    0    0    0 -0.00000000000E+00 -0.00000000000E+00 -0.74505805969E-08  0.93827000000E+00  0.93827000000E+00 0.  1.
     999902    2    1    2    0    0  0.91908201617E-02  0.39445356282E-02  0.38753802414E-02  0.10332039053E+01  0.10331482279E+01 0.  0.
     999903    2    3    3    0    0  0.60643132373E-01  0.11548854157E+00 -0.39752228548E-01  0.14360131199E+00  0.45010047659E-01 0.  0.
         14    1    1    2    0    0 -0.91908201617E-02 -0.39445356282E-02 -0.38753802414E-02  0.10726094750E-01  0.00000000000E+00 0. -1.
     999901    1    3    3    0    0 -0.51452312211E-01 -0.11154400595E+00  0.43627608790E-01  0.88960259326E+00  0.88000000000E+00 0.  1.
        -11    1    4    4    0    0 -0.15571694462E-03  0.36690935904E-01 -0.21137789617E-01  0.42347565410E-01  0.51100000000E-03 0.  1.
         11    1    4    4    0    0  0.60798849317E-01  0.78797605671E-01 -0.18614438931E-01  0.10125374658E+00  0.51100000000E-03 0. -1.
</event>
<event>
 8    1  0.2837913E+004  0.1043930E+01  0.7957747E-01            NaN
         13   -1    0    0    0    0  0.00000000000E+00  0.00000000000E+00  0.74505805969E-08  0.10566000000E+00  0.10566000000E+00 0. -1.
     999900   -1    0    0    0    0 -0.00000000000E+00 -0.00000000000E+00 -0.74505805969E-08  0.93827000000E+00  0.93827000000E+00 0.  1.
     999902    2    1    2    0    0 -0.13187411231E-01  0.48939484567E-02 -0.18428159556E-02  0.10297435798E+01  0.10296458545E+01 0.  0.
     999903    2    3    3    0    0 -0.13344633448E+00  0.21963752137E-01 -0.20429447232E-01  0.14120598936E+00  0.35091858362E-01 0.  0.
         14    1    1    2    0    0  0.13187411231E-01 -0.48939484567E-02  0.18428159556E-02  0.14186420166E-01  0.00000000000E+00 0. -1.
     999901    1    3    3    0    0  0.12025892325E+00 -0.17069803680E-01  0.18586631276E-01  0.88853759047E+00  0.88000000000E+00 0.  1.
        -11    1    4    4    0    0 -0.11543094669E+00  0.84354602143E-02 -0.24504285189E-01  0.11830545869E+00  0.51100000000E-03 0. -1.
         11    1    4    4    0    0 -0.18015387792E-01  0.13528291922E-01  0.40748379576E-02  0.22900530671E-01  0.51100000000E-03 0.  1.
</event>
<event>
 8    1  0.2837913E+004  0.1043930E+01  0.7957747E-01            NaN
         13   -1    0    0    0    0  0.00000000000E+00  0.00000000000E+00  0.74505805969E-08  0.10566000000E+00  0.10566000000E+00 0. -1.
     999900   -1    0    0    0    0 -0.00000000000E+00 -0.00000000000E+00 -0.74505805969E-08  0.93827000000E+00  0.93827000000E+00 0. -1.
     999902    2    1    2    0    0 -0.12103215881E-01 -0.67990872934E-02  0.79238456567E-03  0.10300252060E+01  0.10299313481E+01 0.  0.
     999903    2    3    3    0    0 -0.12931767538E+00  0.30668756910E-01  0.17488367326E-01  0.14130600136E+00  0.44697977731E-01 0.  0.
         14    1    1    2    0    0  0.12103215881E-01  0.67990872934E-02 -0.79238456567E-03  0.13904793993E-01  0.00000000000E+00 0.  1.
     999901    1    3    3    0    0  0.11721445950E+00 -0.37467844203E-01 -0.16695982760E-01  0.88871920465E+00  0.88000000000E+00 0. -1.
        -11    1    4    4    0    0 -0.25426404106E-01  0.28132177141E-02  0.21862886906E-01  0.33655061500E-01  0.51100000000E-03 0. -1.
         11    1    4    4    0    0 -0.10389127127E+00  0.27855539195E-01 -0.43745195805E-02  0.10765093986E+00  0.51100000000E-03 0.  1.
</event>
<event>
 8    1  0.2837913E+004  0.1043930E+01  0.7957747E-01            NaN
         13   -1    0    0    0    0  0.00000000000E+00  0.00000000000E+00  0.74505805969E-08  0.10566000000E+00  0.10566000000E+00 0. -1.
     999900   -1    0    0    0    0 -0.00000000000E+00 -0.00000000000E+00 -0.74505805969E-08  0.93827000000E+00  0.93827000000E+00 0.  1.
     999902    2    1    2    0    0 -0.67172393225E-02  0.43906794316E-02  0.11147612740E-01  0.10301943297E+01  0.10301027561E+01 0.  0.
     999903    2    3    3    0    0 -0.20239831125E-01 -0.11486309918E+00 -0.61411315157E-01  0.13908876788E+00  0.44397673416E-01 0.  0.
         14    1    1    2    0    0  0.67172393225E-02 -0.43906794316E-02 -0.11147612740E-01  0.13735670344E-01  0.00000000000E+00 0.  1.
     999901    1    3    3    0    0  0.13522591803E-01  0.11925377861E+00  0.72558927897E-01  0.89110556177E+00  0.88000000000E+00 0. -1.
        -11    1    4    4    0    0  0.76979025516E-02 -0.51417823077E-01 -0.42705611716E-01  0.67283583635E-01  0.51100000000E-03 0. -1.
         11    1    4    4    0    0 -0.27937733677E-01 -0.63445276104E-01 -0.18705703441E-01  0.71805184250E-01  0.51100000000E-03 0.  1.
</event>
<event>
 8    1  0.2837913E+004  0.1043930E+01  0.7957747E-01            NaN
         13   -1    0    0    0    0  0.00000000000E+00  0.00000000000E+00  0.74505805969E-08  0.10566000000E+00  0.10566000000E+00 0. -1.
     999900   -1    0    0    0    0 -0.00000000000E+00 -0.00000000000E+00 -0.74505805969E-08  0.93827000000E+00  0.93827000000E+00 0.  1.
     999902    2    1    2    0    0 -0.55978236942E-02 -0.26962978154E-02  0.12036813461E-01  0.10303841324E+01  0.10302950886E+01 0.  0.
     999903    2    3    3    0    0  0.97482224193E-01  0.86091482997E-01  0.25188040239E-01  0.13983277445E+00  0.44768738664E-01 0.  0.
         14    1    1    2    0    0  0.55978236942E-02  0.26962978154E-02 -0.12036813461E-01  0.13545867647E-01  0.00000000000E+00 0.  1.
     999901    1    3    3    0    0 -0.10308004789E+00 -0.88787780812E-01 -0.13151226778E-01  0.89055135790E+00  0.88000000000E+00 0. -1.
        -11    1    4    4    0    0  0.26624905017E-01  0.30165017650E-01 -0.12317408176E-01  0.42080797546E-01  0.51100000000E-03 0. -1.
         11    1    4    4    0    0  0.70857319176E-01  0.55926465347E-01  0.37505448415E-01  0.97751976905E-01  0.51100000000E-03 0.  1.
</event>
<event>
 8    1  0.2837913E+004  0.1043930E+01  0.7957747E-01            NaN
         13   -1    0    0    0    0  0.00000000000E+00  0.00000000000E+00  0.74505805969E-08  0.10566000000E+00  0.10566000000E+00 0. -1.
     999900   -1    0    0    0    0 -0.00000000000E+00 -0.00000000000E+00 -0.74505805969E-08  0.93827000000E+00  0.93827000000E+00 0. -1.
     999902    2    1    2    0    0  0.14770957416E-01  0.47985900098E-02  0.47315903320E-05  0.10283991381E+01  0.10282818580E+01 0.  0.
     999903    2    3    3    0    0 -0.12589132561E+00 -0.18790743547E-01  0.16894110094E-01  0.13675594397E+00  0.47064417014E-01 0.  0.
         14    1    1    2    0    0 -0.14770957416E-01 -0.47985900098E-02 -0.47315903320E-05  0.15530861903E-01  0.00000000000E+00 0.  1.
     999901    1    3    3    0    0  0.14066228303E+00  0.23589333556E-01 -0.16889378504E-01  0.89164319413E+00  0.88000000000E+00 0. -1.
        -11    1    4    4    0    0 -0.60953370967E-01 -0.23994610389E-01  0.26952147817E-01  0.70835966521E-01  0.51100000000E-03 0. -1.
         11    1    4    4    0    0 -0.64937954642E-01  0.52038668424E-02 -0.10058037723E-01  0.65919977451E-01  0.51100000000E-03 0.  1.
</event>
<event>
 8    1  0.2837913E+004  0.1043930E+01  0.7957747E-01            NaN
         13   -1    0    0    0    0  0.00000000000E+00  0.00000000000E+00  0.74505805969E-08  0.10566000000E+00  0.10566000000E+00 0.  1.
     999900   -1    0    0    0    0 -0.00000000000E+00 -0.00000000000E+00 -0.74505805969E-08  0.93827000000E+00  0.93827000000E+00 0.  1.
     999902    2    1    2    0    0  0.10817323022E-01  0.34371524866E-03 -0.11150228132E-01  0.10283910102E+01  0.10282736064E+01 0.  0.
     999903    2    3    3    0    0 -0.57620166405E-01  0.95332837079E-01  0.66812348976E-01  0.13722055136E+00  0.44239759695E-01 0.  0.
         14    1    1    2    0    0 -0.10817323022E-01 -0.34371524866E-03  0.11150228132E-01  0.15538989830E-01  0.00000000000E+00 0. -1.
     999901    1    3    3    0    0  0.68437489428E-01 -0.94989121831E-01 -0.77962577108E-01  0.89117045881E+00  0.88000000000E+00 0.  1.
        -11    1    4    4    0    0 -0.30592336153E-01  0.47717076874E-01  0.59162418207E-01  0.81934506197E-01  0.51100000000E-03 0. -1.
         11    1    4    4    0    0 -0.27027830252E-01  0.47615760205E-01  0.76499307692E-02  0.55286045163E-01  0.51100000000E-03 0.  1.
</event>
<event>
 8    1  0.2837913E+004  0.1043930E+01  0.7957747E-01            NaN
         13   -1    0    0    0    0  0.00000000000E+00  0.00000000000E+00  0.74505805969E-08  0.10566000000E+00  0.10566000000E+00 0.  1.
     999900   -1    0    0    0    0 -0.00000000000E+00 -0.00000000000E+00 -0.74505805969E-08  0.93827000000E+00  0.93827000000E+00 0. -1.
     999902    2    1    2    0    0 -0.11784320405E-01  0.26642098063E-02  0.80228417715E-02  0.10294270964E+01  0.10293249306E+01 0.  0.
     999903    2    3    3    0    0  0.13593987419E-01 -0.12616662236E+00 -0.34095357429E-01  0.13868842292E+00  0.44375355343E-01 0.  0.
         14    1    1    2    0    0  0.11784320405E-01 -0.26642098063E-02 -0.80228417715E-02  0.14502903550E-01  0.00000000000E+00 0. -1.
     999901    1    3    3    0    0 -0.25378307824E-01  0.12883083216E+00  0.42118199200E-01  0.89073867353E+00  0.88000000000E+00 0.  1.
        -11    1    4    4    0    0  0.26968442520E-01 -0.47909637790E-01 -0.11950701865E-01  0.56264648592E-01  0.51100000000E-03 0.  1.
         11    1    4    4    0    0 -0.13374455101E-01 -0.78256984567E-01 -0.22144655563E-01  0.82423774324E-01  0.51100000000E-03 0. -1.
</event>
<event>
 8    1  0.2837913E+004  0.1043930E+01  0.7957747E-01            NaN
         13   -1    0    0    0    0  0.00000000000E+00  0.00000000000E+00  0.74505805969E-08  0.10566000000E+00  0.10566000000E+00 0.  1.
     999900   -1    0    0    0    0 -0.00000000000E+00 -0.00000000000E+00 -0.74505805969E-08  0.93827000000E+00  0.93827000000E+00 0. -1.
     999902    2    1    2    0    0  0.11889635238E-01  0.55581511478E-02  0.21334993075E-02  0.10306330722E+01  0.10305472921E+01 0.  0.
     999903    2    3    3    0    0 -0.68704646788E-01 -0.71249794064E-01 -0.87022549094E-01  0.13914908482E+00  0.44639468091E-01 0.  0.
         14    1    1    2    0    0 -0.11889635238E-01 -0.55581511478E-02 -0.21334993075E-02  0.13296927824E-01  0.00000000000E+00 0. -1.
     999901    1    3    3    0    0  0.80594282026E-01  0.76807945211E-01  0.89156048401E-01  0.89148398735E+00  0.88000000000E+00 0.  1.
        -11    1    4    4    0    0 -0.73422749103E-02 -0.53717649244E-02 -0.32819898687E-01  0.34061293723E-01  0.51100000000E-03 0. -1.
         11    1    4    4    0    0 -0.61362371878E-01 -0.65878029139E-01 -0.54202650407E-01  0.10508779110E+00  0.51100000000E-03 0.  1.
</event>
<event>
 8    1  0.2837913E+004  0.1043930E+01  0.7957747E-01            NaN
         13   -1    0    0    0    0  0.00000000000E+00  0.00000000000E+00  0.74505805969E-08  0.10566000000E+00  0.10566000000E+00 0.  1.
     999900   -1    0    0    0    0 -0.00000000000E+00 -0.00000000000E+00 -0.74505805969E-08  0.93827000000E+00  0.93827000000E+00 0. -1.
     999902    2    1    2    0    0 -0.14003086840E-02  0.46306137924E-02  0.13048626652E-01  0.10300134593E+01  0.10299194416E+01 0.  0.
     999903    2    3    3    0    0 -0.16756984553E-01 -0.10575952479E+00 -0.75381081947E-01  0.13858672444E+00  0.45366276696E-01 0.  0.
         14    1    1    2    0    0  0.14003086840E-02 -0.46306137924E-02 -0.13048626652E-01  0.13916540735E-01  0.00000000000E+00 0. -1.
     999901    1    3    3    0    0  0.15356675869E-01  0.11039013858E+00  0.88429708599E-01  0.89142673482E+00  0.88000000000E+00 0.  1.
        -11    1    4    4    0    0 -0.12012095039E-01 -0.69547355856E-01 -0.22042781488E-01  0.73940993167E-01  0.51100000000E-03 0.  1.
         11    1    4    4    0    0 -0.47448895139E-02 -0.36212168936E-01 -0.53338300459E-01  0.64645731277E-01  0.51100000000E-03 0. -1.
</event>
<event>
 8    1  0.2837913E+004  0.1043930E+01  0.7957747E-01            NaN
         13   -1    0    0    0    0  0.00000000000E+00  0.00000000000E+00  0.74505805969E-08  0.10566000000E+00  0.10566000000E+00 0.  1.
     999900   -1    0    0    0    0 -0.00000000000E+00 -0.00000000000E+00 -0.74505805969E-08  0.93827000000E+00  0.93827000000E+00 0.  1.
     999902    2    1    2    0    0 -0.88235132312E-02  0.69843554895E-02  0.70017536761E-02  0.10306763152E+01  0.10305910957E+01 0.  0.
     999903    2    3    3    0    0 -0.86063982396E-01  0.99787218054E-01  0.27873937256E-01  0.14218652376E+00  0.45558239728E-01 0.  0.
         14    1    1    2    0    0  0.88235132312E-02 -0.69843554895E-02 -0.70017536761E-02  0.13253684842E-01  0.00000000000E+00 0. -1.
     999901    1    3    3    0    0  0.77240469165E-01 -0.92802862564E-01 -0.20872183580E-01  0.88848979140E+00  0.88000000000E+00 0.  1.
        -11    1    4    4    0    0 -0.12238782488E-01  0.39893999410E-01  0.21401794872E-01  0.46900073885E-01  0.51100000000E-03 0. -1.
         11    1    4    4    0    0 -0.73825199909E-01  0.59893218644E-01  0.64721423839E-02  0.95286449872E-01  0.51100000000E-03 0.  1.
</event>
<event>
 8    1  0.2837913E+004  0.1043930E+01  0.7957747E-01            NaN
         13   -1    0    0    0    0  0.00000000000E+00  0.00000000000E+00  0.74505805969E-08  0.10566000000E+00  0.10566000000E+00 0. -1.
     999900   -1    0    0    0    0 -0.00000000000E+00 -0.00000000000E+00 -0.74505805969E-08  0.93827000000E+00  0.93827000000E+00 0. -1.
     999902    2    1    2    0    0 -0.64560154330E-02  0.11765365256E-01 -0.45916188028E-02  0.10297459626E+01  0.10296482703E+01 0.  0.
     999903    2    3    3    0    0 -0.64575122039E-01 -0.71460916560E-01 -0.90658750017E-01  0.13973922348E+00  0.45071417119E-01 0.  0.
         14    1    1    2    0    0  0.64560154330E-02 -0.11765365256E-01  0.45916188028E-02  0.14184037441E-01  0.00000000000E+00 0. -1.
     999901    1    3    3    0    0  0.58119106606E-01  0.83226281816E-01  0.86067131214E-01  0.89000673908E+00  0.88000000000E+00 0.  1.
        -11    1    4    4    0    0 -0.61924322522E-01 -0.68062439171E-01 -0.62473891690E-01  0.11122214532E+00  0.51100000000E-03 0.  1.
         11    1    4    4    0    0 -0.26507995173E-02 -0.33984773889E-02 -0.28184858328E-01  0.28517078157E-01  0.51100000000E-03 0. -1.
</event>
<event>
 8    1  0.2837913E+004  0.1043930E+01  0.7957747E-01            NaN
         13   -1    0    0    0    0  0.00000000000E+00  0.00000000000E+00  0.74505805969E-08  0.10566000000E+00  0.10566000000E+00 0.  1.
     999900   -1    0    0    0    0 -0.00000000000E+00 -0.00000000000E+00 -0.74505805969E-08  0.93827000000E+00  0.93827000000E+00 0. -1.
     999902    2    1    2    0    0  0.11807524830E-01 -0.12210978558E-02  0.74492120703E-02  0.10299157400E+01  0.10298203882E+01 0.  0.
     999903    2    3    3    0    0 -0.12940390842E+00 -0.56273210272E-03  0.20700734318E-01  0.13855907449E+00  0.44993427757E-01 0.  0.
         14    1    1    2    0    0 -0.11807524830E-01  0.12210978558E-02 -0.74492120703E-02  0.14014259989E-01  0.00000000000E+00 0. -1.
     999901    1    3    3    0    0  0.14121143325E+00 -0.65836575310E-03 -0.13251522248E-01  0.89135666552E+00  0.88000000000E+00 0. -1.
        -11    1    4    4    0    0 -0.60154803218E-01  0.19755654165E-01 -0.56723068576E-03  0.63320368708E-01  0.51100000000E-03 0. -1.
         11    1    4    4    0    0 -0.69249105199E-01 -0.20318386267E-01  0.21267965004E-01  0.75238705782E-01  0.51100000000E-03 0.  1.
</event>
<event>
 8    1  0.2837913E+004  0.1043930E+01  0.7957747E-01            NaN
         13   -1    0    0    0    0  0.00000000000E+00  0.00000000000E+00  0.74505805969E-08  0.10566000000E+00  0.10566000000E+00 0. -1.
     999900   -1    0    0    0    0 -0.00000000000E+00 -0.00000000000E+00 -0.74505805969E-08  0.93827000000E+00  0.93827000000E+00 0. -1.
     999902    2    1    2    0    0 -0.67401572456E-02 -0.10698697600E-01  0.85021283916E-02  0.10286926106E+01  0.10285797533E+01 0.  0.
     999903    2    3    3    0    0 -0.12231468320E+00  0.47345704455E-02 -0.48727081113E-01  0.13915855317E+00  0.44804872558E-01 0.  0.
         14    1    1    2    0    0  0.67401572456E-02  0.10698697600E-01 -0.85021283916E-02  0.15237389449E-01  0.00000000000E+00 0.  1.
     999901    1    3    3    0    0  0.11557452595E+00 -0.15433268046E-01  0.57229209504E-01  0.88953405738E+00  0.88000000000E+00 0.  1.
        -11    1    4    4    0    0 -0.62304564237E-01  0.15712454985E-01 -0.57117515443E-02  0.64510659531E-01  0.51100000000E-03 0.  1.
         11    1    4    4    0    0 -0.60010118960E-01 -0.10977884539E-01 -0.43015329568E-01  0.74647893644E-01  0.51100000000E-03 0. -1.
</event>
<event>
 8    1  0.2837913E+004  0.1043930E+01  0.7957747E-01            NaN
         13   -1    0    0    0    0  0.00000000000E+00  0.00000000000E+00  0.74505805969E-08  0.10566000000E+00  0.10566000000E+00 0.  1.
     999900   -1    0    0    0    0 -0.00000000000E+00 -0.00000000000E+00 -0.74505805969E-08  0.93827000000E+00  0.93827000000E+00 0.  1.
     999902    2    1    2    0    0 -0.15723834504E-02 -0.14518271927E-01  0.98446757980E-03  0.10292936826E+01  0.10291896149E+01 0.  0.
     999903    2    3    3    0    0 -0.38640512628E-01  0.22084971880E-01 -0.12377604957E+00  0.13896844415E+00  0.44842868130E-01 0.  0.
         14    1    1    2    0    0  0.15723834504E-02  0.14518271927E-01 -0.98446757980E-03  0.14636317360E-01  0.00000000000E+00 0.  1.
     999901    1    3    3    0    0  0.37068129178E-01 -0.36603243807E-01  0.12476051715E+00  0.89032523849E+00  0.88000000000E+00 0. -1.
        -11    1    4    4    0    0 -0.40971554227E-01  0.38716485539E-02 -0.61199927466E-01  0.73751950219E-01  0.51100000000E-03 0.  1.
         11    1    4    4    0    0  0.23310415989E-02  0.18213323326E-01 -0.62576122105E-01  0.65216493927E-01  0.51100000000E-03 0. -1.
</event>
<event>
 8    1  0.2837913E+004  0.1043930E+01  0.7957747E-01            NaN
         13   -1    0    0    0    0  0.00000000000E+00  0.00000000000E+00  0.74505805969E-08  0.10566000000E+00  0.10566000000E+00 0.  1.
     999900   -1    0    0    0    0 -0.00000000000E+00 -0.00000000000E+00 -0.74505805969E-08  0.93827000000E+00  0.93827000000E+00 0.  1.
     999902    2    1    2    0    0  0.12503201168E-01 -0.68073069847E-03  0.85253712707E-02  0.10287815549E+01  0.10286700211E+01 0.  0.
     999903    2    3    3    0    0 -0.92466189574E-01  0.17904954232E-01 -0.89112084453E-01  0.13698725494E+00  0.44203629034E-01 0.  0.
         14    1    1    2    0    0 -0.12503201168E-01  0.68073069847E-03 -0.85253712707E-02  0.15148445103E-01  0.00000000000E+00 0. -1.
     999901    1    3    3    0    0  0.10496939074E+00 -0.18585684931E-01  0.97637455724E-01  0.89179429996E+00  0.88000000000E+00 0. -1.
        -11    1    4    4    0    0 -0.30527106143E-02  0.33382040582E-02 -0.26438046041E-01  0.26827114043E-01  0.51100000000E-03 0. -1.
         11    1    4    4    0    0 -0.89413478960E-01  0.14566750174E-01 -0.62674038413E-01  0.11016014090E+00  0.51100000000E-03 0.  1.
</event>
<event>
 8    1  0.2837913E+004  0.1043930E+01  0.7957747E-01            NaN
         13   -1    0    0    0    0  0.00000000000E+00  0.00000000000E+00  0.74505805969E-08  0.10566000000E+00  0.10566000000E+00 0.  1.
     999900   -1    0    0    0    0 -0.00000000000E+00 -0.00000000000E+00 -0.74505805969E-08  0.93827000000E+00  0.93827000000E+00 0.  1.
     999902    2    1    2    0    0  0.53542623197E-02  0.10169516852E-01  0.74386826628E-02  0.10302398138E+01  0.10301488498E+01 0.  0.
     999903    2    3    3    0    0  0.17110994710E-01  0.80225441203E-01 -0.10451914898E+00  0.14030688974E+00  0.45087284781E-01 0.  0.
         14    1    1    2    0    0 -0.53542623197E-02 -0.10169516852E-01 -0.74386826628E-02  0.13690186184E-01  0.00000000000E+00 0. -1.
     999901    1    3    3    0    0 -0.11756732390E-01 -0.70055924352E-01  0.11195783164E+00  0.88993292408E+00  0.88000000000E+00 0. -1.
        -11    1    4    4    0    0  0.26806941719E-01  0.23438209029E-01 -0.33881987860E-01  0.49154979291E-01  0.51100000000E-03 0. -1.
         11    1    4    4    0    0 -0.96959470091E-02  0.56787232175E-01 -0.70637161117E-01  0.91151910447E-01  0.51100000000E-03 0.  1.
</event>
<event>
 8    1  0.2837913E+004  0.1043930E+01  0.7957747E-01            NaN
         13   -1    0    0    0    0  0.00000000000E+00  0.00000000000E+00  0.74505805969E-08  0.10566000000E+00  0.10566000000E+00 0.  1.
     999900   -1    0    0    0    0 -0.00000000000E+00 -0.00000000000E+00 -0.74505805969E-08  0.93827000000E+00  0.93827000000E+00 0.  1.
     999902    2    1    2    0    0 -0.61515536597E-02  0.10508182702E-01  0.60473498977E-02  0.10303346347E+01  0.10302449347E+01 0.  0.
     999903    2    3    3    0    0 -0.31108998898E-01 -0.99074499747E-01  0.82367495667E-01  0.13991001522E+00  0.44798233280E-01 0.  0.
         14    1    1    2    0    0  0.61515536597E-02 -0.10508182702E-01 -0.60473498977E-02  0.13595365273E-01  0.00000000000E+00 0. -1.
     999901    1    3    3    0    0  0.24957445238E-01  0.10958268245E+00 -0.76320145770E-01  0.89042461950E+00  0.88000000000E+00 0.  1.
        -11    1    4    4    0    0 -0.25054441181E-01 -0.31615399976E-01  0.11655455629E-01  0.41992491060E-01  0.51100000000E-03 0.  1.
         11    1    4    4    0    0 -0.60545577175E-02 -0.67459099771E-01  0.70712040039E-01  0.97917524165E-01  0.51100000000E-03 0. -1.
</event>
<event>
 8    1  0.2837913E+004  0.1043930E+01  0.7957747E-01            NaN
         13   -1    0    0    0    0  0.00000000000E+00  0.00000000000E+00  0.74505805969E-08  0.10566000000E+00  0.10566000000E+00 0. -1.
     999900   -1    0    0    0    0 -0.00000000000E+00 -0.00000000000E+00 -0.74505805969E-08  0.93827000000E+00  0.93827000000E+00 0.  1.
     999902    2    1    2    0    0  0.96593482197E-02 -0.78109307609E-02  0.74082067231E-02  0.10294664190E+01  0.10293648103E+01 0.  0.
     999903    2    3    3    0    0 -0.79310783431E-01  0.96799543214E-01  0.36555883074E-01  0.13833869383E+00  0.46269965308E-01 0.  0.
         14    1    1    2    0    0 -0.96593482197E-02  0.78109307609E-02 -0.74082067231E-02  0.14463580962E-01  0.00000000000E+00 0.  1.
     999901    1    3    3    0    0  0.88970131651E-01 -0.10461047397E+00 -0.29147676351E-01  0.89112772520E+00  0.88000000000E+00 0.  1.
        -11    1    4    4    0    0 -0.80609540512E-01  0.76990165905E-01  0.21760338407E-01  0.11357445627E+00  0.51100000000E-03 0.  1.
         11    1    4    4    0    0  0.12987570810E-02  0.19809377309E-01  0.14795544667E-01  0.24764237568E-01  0.51100000000E-03 0. -1.
</event>
<event>
 8    1  0.2837913E+004  0.1043930E+01  0.7957747E-01            NaN
         13   -1    0    0    0    0  0.00000000000E+00  0.00000000000E+00  0.74505805969E-08  0.10566000000E+00  0.10566000000E+00 0. -1.
     999900   -1    0    0    0    0 -0.00000000000E+00 -0.00000000000E+00 -0.74505805969E-08  0.93827000000E+00  0.93827000000E+00 0.  1.
     999902    2    1    2    0    0  0.57920248338E-02  0.14641649082E-01  0.66095118536E-02  0.10268533760E+01  0.10267113736E+01 0.  0.
     999903    2    3    3    0    0 -0.12854353117E+00  0.10372010641E-01 -0.32806976776E-02  0.13659381406E+00  0.44900880291E-01 0.  0.
         14    1    1    2    0    0 -0.57920248338E-02 -0.14641649082E-01 -0.66095118536E-02  0.17076623977E-01  0.00000000000E+00 0.  1.
     999901    1    3    3    0    0  0.13433555601E+00  0.42696384412E-02  0.98902095311E-02  0.89025956196E+00  0.88000000000E+00 0.  1.
        -11    1    4    4    0    0 -0.74746411454E-01 -0.10089793050E-01  0.13529756853E-01  0.76629924902E-01  0.51100000000E-03 0.  1.
         11    1    4    4    0    0 -0.53797119721E-01  0.20461803690E-01 -0.16810454531E-01  0.59963889159E-01  0.51100000000E-03 0. -1.
</event>
<event>
 8    1  0.2837913E+004  0.1043930E+01  0.7957747E-01            NaN
         13   -1    0    0    0    0  0.00000000000E+00  0.00000000000E+00  0.74505805969E-08  0.10566000000E+00  0.10566000000E+00 0. -1.
     999900   -1    0    0    0    0 -0.00000000000E+00 -0.00000000000E+00 -0.74505805969E-08  0.93827000000E+00  0.93827000000E+00 0.  1.
     999902    2    1    2    0    0 -0.47376498176E-03 -0.13026869660E-01  0.35183488728E-02  0.10304280533E+01  0.10303395899E+01 0.  0.
     999903    2    3    3    0    0 -0.40272426085E-01 -0.12717971963E+00 -0.19232762150E-01  0.14187168499E+00  0.44284607639E-01 0.  0.
         14    1    1    2    0    0  0.47376498176E-03  0.13026869660E-01 -0.35183488728E-02  0.13501946719E-01  0.00000000000E+00 0.  1.
     999901    1    3    3    0    0  0.39798661104E-01  0.11415284997E+00  0.22751111023E-01  0.88855636829E+00  0.88000000000E+00 0. -1.
        -11    1    4    4    0    0 -0.25766337283E-01 -0.21324121275E-01 -0.88339401058E-03  0.33461377603E-01  0.51100000000E-03 0.  1.
         11    1    4    4    0    0 -0.14506088803E-01 -0.10585559835E+00 -0.18349368139E-01  0.10841030739E+00  0.51100000000E-03 0. -1.
</event>
<event>
 8    1  0.2837913E+004  0.1043930E+01  0.7957747E-01            NaN
         13   -1    0    0    0    0  0.00000000000E+00  0.00000000000E+00  0.74505805969E-08  0.10566000000E+00  0.10566000000E+00 0.  1.
     999900   -1    0    0    0    0 -0.00000000000E+00 -0.00000000000E+00 -0.74505805969E-08  0.93827000000E+00  0.93827000000E+00 0. -1.
     999902    2    1    2    0    0  0.10556814797E-01 -0.52003820627E-02  0.15061240575E-01  0.10248163588E+01  0.10246381010E+01 0.  0.
     999903    2    3    3    0    0  0.35579951276E-01  0.11477144690E+00  0.44876092945E-01  0.13582348902E+00  0.44673689075E-01 0.  0.
         14    1    1    2    0    0 -0.10556814797E-01  0.52003820627E-02 -0.15061240575E-01  0.19113641200E-01  0.00000000000E+00 0. -1.
     999901    1    3    3    0    0 -0.25023136478E-01 -0.11997182896E+00 -0.29814852370E-01  0.88899286978E+00  0.88000000000E+00 0.  1.
        -11    1    4    4    0    0  0.70143110538E-03  0.76096752555E-01  0.25715326789E-01  0.80328991702E-01  0.51100000000E-03 0. -1.
         11    1    4    4    0    0  0.34878520170E-01  0.38674694340E-01  0.19160766156E-01  0.55494497315E-01  0.51100000000E-03 0.  1.
</event>
<event>
 8    1  0.2837913E+004  0.1043930E+01  0.7957747E-01            NaN
         13   -1    0    0    0    0  0.00000000000E+00  0.00000000000E+00  0.74505805969E-08  0.10566000000E+00  0.10566000000E+00 0.  1.
     999900   -1    0    0    0    0 -0.00000000000E+00 -0.00000000000E+00 -0.74505805969E-08  0.93827000000E+00  0.93827000000E+00 0. -1.
     999902    2    1    2    0    0  0.20934751873E-02 -0.91445762295E-02  0.99323288389E-02  0.10302677502E+01  0.10301771596E+01 0.  0.
     999903    2    3    3    0    0 -0.59467815136E-01 -0.89850012023E-01 -0.77309651515E-01  0.14014735221E+00  0.45332685949E-01 0.  0.
         14    1    1    2    0    0 -0.20934751873E-02  0.91445762295E-02 -0.99323288389E-02  0.13662249776E-01  0.00000000000E+00 0. -1.
     999901    1    3    3    0    0  0.61561290323E-01  0.80705435793E-01  0.87241980354E-01  0.89012039802E+00  0.88000000000E+00 0.  1.
        -11    1    4    4    0    0 -0.48329016195E-01 -0.75636903090E-01 -0.39147963505E-01  0.97925783545E-01  0.51100000000E-03 0. -1.
         11    1    4    4    0    0 -0.11138798941E-01 -0.14213108933E-01 -0.38161688009E-01  0.42221568660E-01  0.51100000000E-03 0.  1.
</event>
<event>
 8    1  0.2837913E+004  0.1043930E+01  0.7957747E-01            NaN
         13   -1    0    0    0    0  0.00000000000E+00  0.00000000000E+00  0.74505805969E-08  0.10566000000E+00  0.10566000000E+00 0.  1.
     999900   -1    0    0    0    0 -0.00000000000E+00 -0.00000000000E+00 -0.74505805969E-08  0.93827000000E+00  0.93827000000E+00 0. -1.
     999902    2    1    2    0    0  0.14013471067E-01 -0.17913722965E-02  0.14245945429E-02  0.10297308502E+01  0.10296329482E+01 0.  0.
     999903    2    3    3    0    0  0.78675082878E-01  0.10244600106E+00 -0.31986249492E-01  0.14059484340E+00  0.45374420507E-01 0.  0.
         14    1    1    2    0    0 -0.14013471067E-01  0.17913722965E-02 -0.14245945429E-02  0.14199149822E-01  0.00000000000E+00 0. -1.
     999901    1    3    3    0    0 -0.64661611811E-01 -0.10423737335E+00  0.33410844035E-01  0.88913600678E+00  0.88000000000E+00 0.  1.
        -11    1    4    4    0    0  0.67252175870E-01  0.53852592676E-01 -0.27650746846E-01  0.90486362615E-01  0.51100000000E-03 0.  1.
         11    1    4    4    0    0  0.11422907008E-01  0.48593408381E-01 -0.43355026462E-02  0.50108480787E-01  0.51100000000E-03 0. -1.
</event>
<event>
 8    1  0.2837913E+004  0.1043930E+01  0.7957747E-01            NaN
         13   -1    0    0    0    0  0.00000000000E+00  0.00000000000E+00  0.74505805969E-08  0.10566000000E+00  0.10566000000E+00 0.  1.
     999900   -1    0    0    0    0 -0.00000000000E+00 -0.00000000000E+00 -0.74505805969E-08  0.93827000000E+00  0.93827000000E+00 0.  1.
     999902    2    1    2    0    0 -0.20691893235E-02 -0.13047148429E-01 -0.49547533586E-02  0.10298211656E+01  0.10297245136E+01 0.  0.
     999903    2    3    3    0    0  0.73636767819E-01 -0.72930949466E-01  0.81565711141E-01  0.14032509911E+00  0.47925684563E-01 0.  0.
         14    1    1    2    0    0  0.20691893235E-02  0.13047148429E-01  0.49547533586E-02  0.14108834375E-01  0.00000000000E+00 0.  1.
     999901    1    3    3    0    0 -0.75705957142E-01  0.59883801037E-01 -0.86520464499E-01  0.88949606652E+00  0.88000000000E+00 0.  1.
        -11    1    4    4    0    0  0.13313221431E-01 -0.44945397849E-01  0.42018348699E-01  0.62953422473E-01  0.51100000000E-03 0.  1.
         11    1    4    4    0    0  0.60323546387E-01 -0.27985551617E-01  0.39547362441E-01  0.77371676634E-01  0.51100000000E-03 0. -1.
</event>
<event>
 8    1  0.2837913E+004  0.1043930E+01  0.7957747E-01            NaN
         13   -1    0    0    0    0  0.00000000000E+00  0.00000000000E+00  0.74505805969E-08  0.10566000000E+00  0.10566000000E+00 0. -1.
     999900   -1    0    0    0    0 -0.00000000000E+00 -0.00000000000E+00 -0.74505805969E-08  0.93827000000E+00  0.93827000000E+00 0.  1.
     999902    2    1    2    0    0 -0.23278987885E-02  0.16686834543E-02  0.13745589065E-01  0.10298891725E+01  0.10297934564E+01 0.  0.
     999903    2    3    3    0    0 -0.10929584082E+00 -0.14913721109E-01  0.75449732941E-01  0.14111219368E+00  0.45298886365E-01 0.  0.
         14    1    1    2    0    0  0.23278987885E-02 -0.16686834543E-02 -0.13745589065E-01  0.14040827468E-01  0.00000000000E+00 0.  1.
     999901    1    3    3    0    0  0.10696794204E+00  0.16582404563E-01 -0.61704143876E-01  0.88877697885E+00  0.88000000000E+00 0. -1.
        -11    1    4    4    0    0 -0.95076801264E-01 -0.43923580410E-02  0.43630331856E-01  0.10470318967E+00  0.51100000000E-03 0.  1.
         11    1    4    4    0    0 -0.14219039560E-01 -0.10521363068E-01  0.31819401085E-01  0.36409004013E-01  0.51100000000E-03 0. -1.
</event>
<event>
 8    1  0.2837913E+004  0.1043930E+01  0.7957747E-01            NaN
         13   -1    0    0    0    0  0.00000000000E+00  0.00000000000E+00  0.74505805969E-08  0.10566000000E+00  0.10566000000E+00 0. -1.
     999900   -1    0    0    0    0 -0.00000000000E+00 -0.00000000000E+00 -0.74505805969E-08  0.93827000000E+00  0.93827000000E+00 0.  1.
     999902    2    1    2    0    0  0.52075496862E-02 -0.12410412457E-01  0.39262400075E-02  0.10299102899E+01  0.10298148634E+01 0.  0.
     999903    2    3    3    0    0  0.65846934828E-01  0.11038097635E+00  0.24361570175E-01  0.13908344761E+00  0.47232833214E-01 0.  0.
         14    1    1    2    0    0 -0.52075496862E-02  0.12410412457E-01 -0.39262400075E-02  0.14019710114E-01  0.00000000000E+00 0.  1.
     999901    1    3    3    0    0 -0.60639385142E-01 -0.12279138880E+00 -0.20435330167E-01  0.89082684227E+00  0.88000000000E+00 0.  1.
        -11    1    4    4    0    0  0.90373121237E-02  0.46469755137E-01  0.25065065897E-01  0.53568925715E-01  0.51100000000E-03 0.  1.
         11    1    4    4    0    0  0.56809622704E-01  0.63911221209E-01 -0.70349572223E-03  0.85514521898E-01  0.51100000000E-03 0. -1.
</event>
<event>
 8    1  0.2837913E+004  0.1043930E+01  0.7957747E-01            NaN
         13   -1    0    0    0    0  0.00000000000E+00  0.00000000000E+00  0.74505805969E-08  0.10566000000E+00  0.10566000000E+00 0. -1.
     999900   -1    0    0    0    0 -0.00000000000E+00 -0.00000000000E+00 -0.74505805969E-08  0.93827000000E+00  0.93827000000E+00 0.  1.
     999902    2    1    2    0    0  0.93217833634E-03 -0.21532287016E-02  0.14286531394E-01  0.10294520744E+01  0.10293502626E+01 0.  0.
     999903    2    3    3    0    0 -0.10551686422E-01 -0.85805257199E-01  0.10308271936E+00  0.14096217349E+00  0.42076205586E-01 0.  0.
         14    1    1    2    0    0 -0.93217833634E-03  0.21532287016E-02 -0.14286531394E-01  0.14477925596E-01  0.00000000000E+00 0.  1.
     999901    1    3    3    0    0  0.11483864758E-01  0.83652028497E-01 -0.88796187965E-01  0.88848990091E+00  0.88000000000E+00 0.  1.
        -11    1    4    4    0    0 -0.37909767024E-02 -0.60827237048E-01  0.40333222006E-01  0.73084568752E-01  0.51100000000E-03 0.  1.
         11    1    4    4    0    0 -0.67607097193E-02 -0.24978020151E-01  0.62749497352E-01  0.67877604742E-01  0.51100000000E-03 0. -1.
</event>
<event>
 8    1  0.2837913E+004  0.1043930E+01  0.7957747E-01            NaN
         13   -1    0    0    0    0  0.00000000000E+00  0.00000000000E+00  0.74505805969E-08  0.10566000000E+00  0.10566000000E+00 0.  1.
     999900   -1    0    0    0    0 -0.00000000000E+00 -0.00000000000E+00 -0.74505805969E-08  0.93827000000E+00  0.93827000000E+00 0.  1.
     999902    2    1    2    0    0 -0.46441631542E-02 -0.54964942374E-02  0.12013789427E-01  0.10299260421E+01  0.10298308314E+01 0.  0.
     999903    2    3    3    0    0 -0.98839236963E-01 -0.80319222206E-01  0.41652201061E-01  0.14124747930E+00  0.44671829328E-01 0.  0.
         14    1    1    2    0    0  0.46441631542E-02  0.54964942374E-02 -0.12013789427E-01  0.14003957894E-01  0.00000000000E+00 0.  1.
     999901    1    3    3    0    0  0.94195073809E-01  0.74822727969E-01 -0.29638411634E-01  0.88867856281E+00  0.88000000000E+00 0. -1.
        -11    1    4    4    0    0 -0.47075680433E-01 -0.40645767490E-01  0.43668193692E-01  0.75995857547E-01  0.51100000000E-03 0.  1.
         11    1    4    4    0    0 -0.51763556530E-01 -0.39673454716E-01 -0.20159926308E-02  0.65251621750E-01  0.51100000000E-03 0. -1.
</event>
<event>
 8    1  0.2837913E+004  0.1043930E+01  0.7957747E-01            NaN
         13   -1    0    0    0    0  0.00000000000E+00  0.00000000000E+00  0.74505805969E-08  0.10566000000E+00  0.10566000000E+00 0.  1.
     999900   -1    0    0    0    0 -0.00000000000E+00 -0.00000000000E+00 -0.74505805969E-08  0.93827000000E+00  0.93827000000E+00 0.  1.
     999902    2    1    2    0    0  0.31194373483E-02 -0.10213288182E-01  0.10270854598E-01  0.10291133675E+01  0.10290067009E+01 0.  0.
     999903    2    3    3    0    0  0.81143177599E-01  0.85574922465E-02 -0.10271709492E+00  0.13826752057E+00  0.43699653432E-01 0.  0.
         14    1    1    2    0    0 -0.31194373483E-02  0.10213288182E-01 -0.10270854598E-01  0.14816632514E-01  0.00000000000E+00 0. -1.
     999901    1    3    3    0    0 -0.78023740251E-01 -0.18770780429E-01  0.11298794952E+00  0.89084584692E+00  0.88000000000E+00 0. -1.
        -11    1    4    4    0    0  0.45363515687E-01  0.25191251102E-01 -0.47139178921E-01  0.70105713020E-01  0.51100000000E-03 0. -1.
         11    1    4    4    0    0  0.35779661912E-01 -0.16633758856E-01 -0.55577915998E-01  0.68161807546E-01  0.51100000000E-03 0.  1.
</event>
<event>
 8    1  0.2837913E+004  0.1043930E+01  0.7957747E-01            NaN
         13   -1    0    0    0    0  0.00000000000E+00  0.00000000000E+00  0.74505805969E-08  0.10566000000E+00  0.10566000000E+00 0. -1.
     999900   -1    0    0    0    0 -0.00000000000E+00 -0.00000000000E+00 -0.74505805969E-08  0.93827000000E+00  0.93827000000E+00 0.  1.
     999902    2    1    2    0    0 -0.59864363142E-02  0.93378191790E-02  0.12979189068E-01  0.10268568739E+01  0.10267149301E+01 0.  0.
     999903    2    3    3    0    0  0.75371420170E-01 -0.75628624472E-02  0.10342836445E+00  0.13832674654E+00  0.51950114250E-01 0.  0.
         14    1    1    2    0    0  0.59864363142E-02 -0.93378191790E-02 -0.12979189068E-01  0.17073126123E-01  0.00000000000E+00 0.  1.
     999901    1    3    3    0    0 -0.81357856484E-01  0.16900681626E-01 -0.90449175379E-01  0.88853012733E+00  0.88000000000E+00 0.  1.
        -11    1    4    4    0    0  0.21678857644E-01  0.12627089756E-01  0.63929707251E-01  0.68678125008E-01  0.51100000000E-03 0. -1.
         11    1    4    4    0    0  0.53692562526E-01 -0.20189952204E-01  0.39498657196E-01  0.69648621536E-01  0.51100000000E-03 0.  1.
</event>
<event>
 8    1  0.2837913E+004  0.1043930E+01  0.7957747E-01            NaN
         13   -1    0    0    0    0  0.00000000000E+00  0.00000000000E+00  0.74505805969E-08  0.10566000000E+00  0.10566000000E+00 0. -1.
     999900   -1    0    0    0    0 -0.00000000000E+00 -0.00000000000E+00 -0.74505805969E-08  0.93827000000E+00  0.93827000000E+00 0. -1.
     999902    2    1    2    0    0  0.12662493744E-01 -0.27848694966E-02  0.53499100830E-02  0.10299044596E+01  0.10298089532E+01 0.  0.
     999903    2    3    3    0    0 -0.23484290157E-01 -0.65901498705E-01 -0.11167624918E+00  0.13918260580E+00  0.44784971928E-01 0.  0.
         14    1    1    2    0    0 -0.12662493744E-01  0.27848694966E-02 -0.53499100830E-02  0.14025540411E-01  0.00000000000E+00 0.  1.
     999901    1    3    3    0    0  0.36146783900E-01  0.63116629209E-01  0.11702615926E+00  0.89072185379E+00  0.88000000000E+00 0.  1.
        -11    1    4    4    0    0 -0.19878305831E-01 -0.58884678643E-01 -0.58272352865E-01  0.85196717372E-01  0.51100000000E-03 0.  1.
         11    1    4    4    0    0 -0.36059843253E-02 -0.70168200626E-02 -0.53403896313E-01  0.53985888426E-01  0.51100000000E-03 0. -1.
</event>
<event>
 7    1  0.2837913E+004  0.1043930E+01  0.7957747E-01            NaN
         13   -1    0    0    0    0  0.00000000000E+00  0.00000000000E+00  0.74505805969E-08  0.10566000000E+00  0.10566000000E+00 0.  1.
     999900   -1    0    0    0    0 -0.00000000000E+00 -0.00000000000E+00 -0.74505805969E-08  0.93827000000E+00  0.93827000000E+00 0. -1.
     999902    2    1    2    0    0 -0.10802554616E-02 -0.79746847667E-02 -0.95174523036E-02  0.10314662747E+01  0.10313909693E+01 0.  0.
         14    1    1    2    0    0  0.10802554616E-02  0.79746847667E-02  0.95174523036E-02  0.12463725259E-01  0.00000000000E+00 0.  1.
     999901    1    3    3    0    0 -0.15206367630E-01 -0.10585405732E+00  0.65337459437E-01  0.88887867489E+00  0.88000000000E+00 0.  1.
        -11    1    3    3    0    0  0.35904583171E-01  0.47604856735E-01 -0.15092011527E-01  0.61509279060E-01  0.51100000000E-03 0.  1.
         11    1    3    3    0    0 -0.21778471002E-01  0.50274515814E-01 -0.59762900213E-01  0.81078320792E-01  0.51100000000E-03 0. -1.
</event>
<event>
 8    1  0.2837913E+004  0.1043930E+01  0.7957747E-01            NaN
         13   -1    0    0    0    0  0.00000000000E+00  0.00000000000E+00  0.74505805969E-08  0.10566000000E+00  0.10566000000E+00 0. -1.
     999900   -1    0    0    0    0 -0.00000000000E+00 -0.00000000000E+00 -0.74505805969E-08  0.93827000000E+00  0.93827000000E+00 0. -1.
     999902    2    1    2    0    0 -0.10623367511E-01 -0.73184357262E-02 -0.46774970624E-02  0.10302079587E+01  0.10301165680E+01 0.  0.
     999903    2    3    3    0    0 -0.56838748356E-02 -0.67754707428E-01 -0.11376815265E+00  0.14140105466E+00  0.49275337535E-01 0.  0.
         14    1    1    2    0    0  0.10623367511E-01  0.73184357262E-02  0.46774970624E-02  0.13722041303E-01  0.00000000000E+00 0. -1.
     999901    1    3    3    0    0 -0.49394926758E-02  0.60436271702E-01  0.10909065559E+00  0.88880690404E+00  0.88000000000E+00 0. -1.
        -11    1    4    4    0    0  0.11526070928E-01 -0.43734137050E-01 -0.34753569070E-01  0.57040308017E-01  0.51100000000E-03 0. -1.
         11    1    4    4    0    0 -0.17209945764E-01 -0.24020570378E-01 -0.79014583583E-01  0.84360746644E-01  0.51100000000E-03 0.  1.
</event>
<event>
 8    1  0.2837913E+004  0.1043930E+01  0.7957747E-01            NaN
         13   -1    0    0    0    0  0.00000000000E+00  0.00000000000E+00  0.74505805969E-08  0.10566000000E+00  0.10566000000E+00 0. -1.
     999900   -1    0    0    0    0 -0.00000000000E+00 -0.00000000000E+00 -0.74505805969E-08  0.93827000000E+00  0.93827000000E+00 0.  1.
     999902    2    1    2    0    0  0.11686483056E-01  0.18734699199E-01  0.67162252308E-02  0.10208503440E+01  0.10205894151E+01 0.  0.
     999903    2    3    3    0    0  0.10233943780E+00 -0.42778755191E-01  0.56957302902E-01  0.13263526353E+00  0.45217213004E-01 0.  0.
         14    1    1    2    0    0 -0.11686483056E-01 -0.18734699199E-01 -0.67162252308E-02  0.23079656012E-01  0.00000000000E+00 0. -1.
     999901    1    3    3    0    0 -0.90652954744E-01  0.61513454389E-01 -0.50241077671E-01  0.88821508046E+00  0.88000000000E+00 0.  1.
        -11    1    4    4    0    0  0.98736530057E-01 -0.36676456619E-01  0.37309389306E-01  0.11174218760E+00  0.51100000000E-03 0. -1.
         11    1    4    4    0    0  0.36029077435E-02 -0.61022985716E-02  0.19647913596E-01  0.20893075928E-01  0.51100000000E-03 0.  1.
</event>
<event>
 8    1  0.2837913E+004  0.1043930E+01  0.7957747E-01            NaN
         13   -1    0    0    0    0  0.00000000000E+00  0.00000000000E+00  0.74505805969E-08  0.10566000000E+00  0.10566000000E+00 0.  1.
     999900   -1    0    0    0    0 -0.00000000000E+00 -0.00000000000E+00 -0.74505805969E-08  0.93827000000E+00  0.93827000000E+00 0. -1.
     999902    2    1    2    0    0  0.10567181867E-01 -0.83659463676E-03 -0.10860353991E-01  0.10287539494E+01  0.10286420057E+01 0.  0.
     999903    2    3    3    0    0 -0.87164825224E-01  0.89974659693E-01 -0.37803143985E-01  0.13829106805E+00  0.44745901077E-01 0.  0.
         14    1    1    2    0    0 -0.10567181867E-01  0.83659463676E-03  0.10860353991E-01  0.15176050606E-01  0.00000000000E+00 0. -1.
     999901    1    3    3    0    0  0.97732007091E-01 -0.90811254330E-01  0.26942789994E-01  0.89046288135E+00  0.88000000000E+00 0.  1.
        -11    1    4    4    0    0 -0.79869843847E-01  0.62239976412E-01 -0.41378133138E-01  0.10938655147E+00  0.51100000000E-03 0. -1.
         11    1    4    4    0    0 -0.72949813772E-02  0.27734683281E-01  0.35749891530E-02  0.28904516575E-01  0.51100000000E-03 0.  1.
</event>
<event>
 8    1  0.2837913E+004  0.1043930E+01  0.7957747E-01            NaN
         13   -1    0    0    0    0  0.00000000000E+00  0.00000000000E+00  0.74505805969E-08  0.10566000000E+00  0.10566000000E+00 0. -1.
     999900   -1    0    0    0    0 -0.00000000000E+00 -0.00000000000E+00 -0.74505805969E-08  0.93827000000E+00  0.93827000000E+00 0.  1.
     999902    2    1    2    0    0  0.13458841823E-01  0.28902496206E-02  0.27441036296E-02  0.10298934737E+01  0.10297978166E+01 0.  0.
     999903    2    3    3    0    0  0.73894997428E-01  0.12764857018E-02  0.11135248313E+00  0.14115790377E+00  0.45432127828E-01 0.  0.
         14    1    1    2    0    0 -0.13458841823E-01 -0.28902496206E-02 -0.27441036296E-02  0.14036526309E-01  0.00000000000E+00 0.  1.
     999901    1    3    3    0    0 -0.60436155604E-01  0.16137639189E-02 -0.10860837950E+00  0.88873556992E+00  0.88000000000E+00 0.  1.
        -11    1    4    4    0    0 -0.33954124942E-02  0.78757419209E-02  0.16682942486E-01  0.18765335803E-01  0.51100000000E-03 0. -1.
         11    1    4    4    0    0  0.77290409922E-01 -0.65992562191E-02  0.94669540640E-01  0.12239256797E+00  0.51100000000E-03 0.  1.
</event>
<event>
 8    1  0.2837913E+004  0.1043930E+01  0.7957747E-01            NaN
         13   -1    0    0    0    0  0.00000000000E+00  0.00000000000E+00  0.74505805969E-08  0.10566000000E+00  0.10566000000E+00 0.  1.
     999900   -1    0    0    0    0 -0.00000000000E+00 -0.00000000000E+00 -0.74505805969E-08  0.93827000000E+00  0.93827000000E+00 0.  1.
     999902    2    1    2    0    0  0.71340262151E-02 -0.11878590259E-01 -0.15931704641E-02  0.10299824759E+01  0.10298880363E+01 0.  0.
     999903    2    3    3    0    0 -0.39220938606E-01  0.12491426901E+00 -0.15811486978E-02  0.13820836254E+00  0.44240194585E-01 0.  0.
         14    1    1    2    0    0 -0.71340262151E-02  0.11878590259E-01  0.15931704641E-02  0.13947524107E-01  0.00000000000E+00 0.  1.
     999901    1    3    3    0    0  0.46354964821E-01 -0.13679285927E+00 -0.12021766313E-04  0.89177411336E+00  0.88000000000E+00 0. -1.
        -11    1    4    4    0    0 -0.57465403417E-02  0.59062894068E-01 -0.18996721290E-01  0.62310390164E-01  0.51100000000E-03 0.  1.
         11    1    4    4    0    0 -0.33474398264E-01  0.65851374939E-01  0.17415572592E-01  0.75897972372E-01  0.51100000000E-03 0. -1.
</event>
<event>
 8    1  0.2837913E+004  0.1043930E+01  0.7957747E-01            NaN
         13   -1    0    0    0    0  0.00000000000E+00  0.00000000000E+00  0.74505805969E-08  0.10566000000E+00  0.10566000000E+00 0.  1.
     999900   -1    0    0    0    0 -0.00000000000E+00 -0.00000000000E+00 -0.74505805969E-08  0.93827000000E+00  0.93827000000E+00 0. -1.
     999902    2    1    2    0    0  0.13014202450E-01 -0.33410126372E-02  0.36089508909E-02  0.10300175467E+01  0.10299235846E+01 0.  0.
     999903    2    3    3    0    0 -0.37134931006E-01 -0.84974616570E-01  0.95026359707E-01  0.14010961688E+00  0.44732618327E-01 0.  0.
         14    1    1    2    0    0 -0.13014202450E-01  0.33410126372E-02 -0.36089508909E-02  0.13912453320E-01  0.00000000000E+00 0. -1.
     999901    1    3    3    0    0  0.50149133456E-01  0.81633603933E-01 -0.91417408816E-01  0.88990792980E+00  0.88000000000E+00 0. -1.
        -11    1    4    4    0    0 -0.29216920137E-01 -0.22223022396E-01  0.19410687258E-01  0.41527425245E-01  0.51100000000E-03 0. -1.
         11    1    4    4    0    0 -0.79180108692E-02 -0.62751594174E-01  0.75615672449E-01  0.98582191640E-01  0.51100000000E-03 0.  1.
</event>
<event>
 8    1  0.2837913E+004  0.1043930E+01  0.7957747E-01            NaN
         13   -1    0    0    0    0  0.00000000000E+00  0.00000000000E+00  0.74505805969E-08  0.10566000000E+00  0.10566000000E+00 0. -1.
     999900   -1    0    0    0    0 -0.00000000000E+00 -0.00000000000E+00 -0.74505805969E-08  0.93827000000E+00  0.93827000000E+00 0.  1.
     999902    2    1    2    0    0  0.61804560522E-02 -0.29995300305E-02 -0.12134393543E-01  0.10299858713E+01  0.10298914780E+01 0.  0.
     999903    2    3    3    0    0 -0.10400245746E+00 -0.10313360484E-01  0.78873140850E-01  0.13842760748E+00  0.44926090446E-01 0.  0.
         14    1    1    2    0    0 -0.61804560522E-02  0.29995300305E-02  0.12134393543E-01  0.13944128659E-01  0.00000000000E+00 0. -1.
     999901    1    3    3    0    0  0.11018291351E+00  0.73138304530E-02 -0.91007534392E-01  0.89155826386E+00  0.88000000000E+00 0. -1.
        -11    1    4    4    0    0 -0.52424916823E-01 -0.25118701670E-01  0.28168967656E-01  0.64599326137E-01  0.51100000000E-03 0. -1.
         11    1    4    4    0    0 -0.51577540635E-01  0.14805341186E-01  0.50704173193E-01  0.73828281341E-01  0.51100000000E-03 0.  1.
</event>
<event>
 8    1  0.2837913E+004  0.1043930E+01  0.7957747E-01            NaN
         13   -1    0    0    0    0  0.00000000000E+00  0.00000000000E+00  0.74505805969E-08  0.10566000000E+00  0.10566000000E+00 0. -1.
     999900   -1    0    0    0    0 -0.00000000000E+00 -0.00000000000E+00 -0.74505805969E-08  0.93827000000E+00  0.93827000000E+00 0.  1.
     999902    2    1    2    0    0 -0.13315344322E-01  0.20793863968E-02  0.37501692660E-02  0.10299412184E+01  0.10298462153E+01 0.  0.
     999903    2    3    3    0    0  0.46875746489E-01  0.12844508527E-01  0.12283080124E+00  0.13981816385E+00  0.45819168463E-01 0.  0.
         14    1    1    2    0    0  0.13315344322E-01 -0.20793863968E-02 -0.37501692660E-02  0.13988781639E-01  0.00000000000E+00 0. -1.
     999901    1    3    3    0    0 -0.60191090812E-01 -0.10765122131E-01 -0.11908063198E+00  0.89012305452E+00  0.88000000000E+00 0.  1.
        -11    1    4    4    0    0  0.39817402396E-01  0.28342516044E-01  0.10025545329E+00  0.11153537907E+00  0.51100000000E-03 0. -1.
         11    1    4    4    0    0  0.70583440934E-02 -0.15498007517E-01  0.22575347956E-01  0.28282784776E-01  0.51100000000E-03 0.  1.
</event>
<event>
 8    1  0.2837913E+004  0.1043930E+01  0.7957747E-01            NaN
         13   -1    0    0    0    0  0.00000000000E+00  0.00000000000E+00  0.74505805969E-08  0.10566000000E+00  0.10566000000E+00 0.  1.
     999900   -1    0    0    0    0 -0.00000000000E+00 -0.00000000000E+00 -0.74505805969E-08  0.93827000000E+00  0.93827000000E+00 0.  1.
     999902    2    1    2    0    0  0.12775681301E-01 -0.45169401863E-02 -0.34729582750E-02  0.10299413539E+01  0.10298463527E+01 0.  0.
     999903    2    3    3    0    0 -0.11896194590E+00  0.52708645820E-01  0.99899348200E-02  0.13819541494E+00  0.45475575818E-01 0.  0.
         14    1    1    2    0    0 -0.12775681301E-01  0.45169401863E-02  0.34729582750E-02  0.13988646129E-01  0.00000000000E+00 0.  1.
     999901    1    3    3    0    0  0.13173762720E+00 -0.57225586006E-01 -0.13462893095E-01  0.89174593893E+00  0.88000000000E+00 0. -1.
        -11    1    4    4    0    0 -0.10485379053E+00  0.61145326553E-01  0.92391926146E-02  0.12173205062E+00  0.51100000000E-03 0. -1.
         11    1    4    4    0    0 -0.14108155367E-01 -0.84366807330E-02  0.75074220541E-03  0.16463364313E-01  0.51100000000E-03 0.  1.
</event>
<event>
 8    1  0.2837913E+004  0.1043930E+01  0.7957747E-01            NaN
         13   -1    0    0    0    0  0.00000000000E+00  0.00000000000E+00  0.74505805969E-08  0.10566000000E+00  0.10566000000E+00 0. -1.
     999900   -1    0    0    0    0 -0.00000000000E+00 -0.00000000000E+00 -0.74505805969E-08  0.93827000000E+00  0.93827000000E+00 0.  1.
     999902    2    1    2    0    0 -0.24975643933E-02 -0.37979504351E-02  0.10046462873E-01  0.10329030479E+01  0.10328441861E+01 0.  0.
     999903    2    3    3    0    0  0.28746820172E-01  0.90978773266E-01  0.96475727744E-01  0.14305538865E+00  0.45318443521E-01 0.  0.
         14    1    1    2    0    0  0.24975643933E-02  0.37979504351E-02 -0.10046462873E-01  0.11026952057E-01  0.00000000000E+00 0.  1.
     999901    1    3    3    0    0 -0.31244384566E-01 -0.94776723701E-01 -0.86429264871E-01  0.88984765929E+00  0.88000000000E+00 0. -1.
        -11    1    4    4    0    0  0.35535580155E-01  0.38890967130E-01  0.54631947647E-01  0.75895952500E-01  0.51100000000E-03 0.  1.
         11    1    4    4    0    0 -0.67887599828E-02  0.52087806136E-01  0.41843780097E-01  0.67159436150E-01  0.51100000000E-03 0. -1.
</event>
<event>
 8    1  0.2837913E+004  0.1043930E+01  0.7957747E-01            NaN
         13   -1    0    0    0    0  0.00000000000E+00  0.00000000000E+00  0.74505805969E-08  0.10566000000E+00  0.10566000000E+00 0. -1.
     999900   -1    0    0    0    0 -0.00000000000E+00 -0.00000000000E+00 -0.74505805969E-08  0.93827000000E+00  0.93827000000E+00 0. -1.
     999902    2    1    2    0    0 -0.28149114130E-02  0.98590177259E-02 -0.50346894602E-02  0.10325075635E+01  0.10324443795E+01 0.  0.
     999903    2    3    3    0    0 -0.70729556154E-01 -0.10381382441E-01  0.11371987075E+00  0.14170751957E+00  0.45148298791E-01 0.  0.
         14    1    1    2    0    0  0.28149114130E-02 -0.98590177259E-02  0.50346894602E-02  0.11422436463E-01  0.00000000000E+00 0.  1.
     999901    1    3    3    0    0  0.67914644741E-01  0.20240400167E-01 -0.11875456021E+00  0.89080004397E+00  0.88000000000E+00 0. -1.
        -11    1    4    4    0    0 -0.43653911856E-01  0.16236535384E-01  0.62840878484E-01  0.78221008887E-01  0.51100000000E-03 0. -1.
         11    1    4    4    0    0 -0.27075644298E-01 -0.26617917826E-01  0.50878992263E-01  0.63486510679E-01  0.51100000000E-03 0.  1.
</event>
<event>
 8    1  0.2837913E+004  0.1043930E+01  0.7957747E-01            NaN
         13   -1    0    0    0    0  0.00000000000E+00  0.00000000000E+00  0.74505805969E-08  0.10566000000E+00  0.10566000000E+00 0.  1.
     999900   -1    0    0    0    0 -0.00000000000E+00 -0.00000000000E+00 -0.74505805969E-08  0.93827000000E+00  0.93827000000E+00 0.  1.
     999902    2    1    2    0    0 -0.36665724123E-02 -0.12320259746E-01  0.62309652415E-02  0.10296451310E+01  0.10295460351E+01 0.  0.
     999903    2    3    3    0    0  0.11561857042E+00  0.54109846362E-01  0.30854224784E-01  0.13877577518E+00  0.44846441202E-01 0.  0.
         14    1    1    2    0    0  0.36665724123E-02  0.12320259746E-01 -0.62309652415E-02  0.14284868964E-01  0.00000000000E+00 0. -1.
     999901    1    3    3    0    0 -0.11928514284E+00 -0.66430106108E-01 -0.24623259542E-01  0.89086935586E+00  0.88000000000E+00 0.  1.
        -11    1    4    4    0    0  0.44296046072E-01  0.29389008684E-01  0.34204625965E-01  0.63214484791E-01  0.51100000000E-03 0. -1.
         11    1    4    4    0    0  0.71322524353E-01  0.24720837678E-01 -0.33504011813E-02  0.75561290385E-01  0.51100000000E-03 0.  1.
</event>
<event>
 8    1  0.2837913E+004  0.1043930E+01  0.7957747E-01            NaN
         13   -1    0    0    0    0  0.00000000000E+00  0.00000000000E+00  0.74505805969E-08  0.10566000000E+00  0.10566000000E+00 0. -1.
     999900   -1    0    0    0    0 -0.00000000000E+00 -0.00000000000E+00 -0.74505805969E-08  0.93827000000E+00  0.93827000000E+00 0. -1.
     999902    2    1    2    0    0  0.16305482706E-02 -0.61861895977E-02  0.12935685274E-01  0.10294987983E+01  0.10293976472E+01 0.  0.
     999903    2    3    3    0    0 -0.74228807592E-01 -0.42728947237E-01  0.10272736243E+00  0.14093109670E+00  0.44418286977E-01 0.  0.
         14    1    1    2    0    0 -0.16305482706E-02  0.61861895977E-02 -0.12935685274E-01  0.14431201714E-01  0.00000000000E+00 0. -1.
     999901    1    3    3    0    0  0.75859355862E-01  0.36542757640E-01 -0.89791677155E-01  0.88856770158E+00  0.88000000000E+00 0. -1.
        -11    1    4    4    0    0 -0.45042010778E-01 -0.46177778933E-01  0.54487595603E-01  0.84441276623E-01  0.51100000000E-03 0.  1.
         11    1    4    4    0    0 -0.29186796814E-01  0.34488316957E-02  0.48239766827E-01  0.56489820082E-01  0.51100000000E-03 0. -1.
</event>
<event>
 8    1  0.2837913E+004  0.1043930E+01  0.7957747E-01            NaN
         13   -1    0    0    0    0  0.00000000000E+00  0.00000000000E+00  0.74505805969E-08  0.10566000000E+00  0.10566000000E+00 0.  1.
     999900   -1    0    0    0    0 -0.00000000000E+00 -0.00000000000E+00 -0.74505805969E-08  0.93827000000E+00  0.93827000000E+00 0.  1.
     999902    2    1    2    0    0 -0.34608293112E-02 -0.10741972809E-01  0.84575467504E-02  0.10298269005E+01  0.10297303276E+01 0.  0.
     999903    2    3    3    0    0  0.96570949259E-01 -0.84852754900E-01 -0.33289799806E-01  0.14008446263E+00  0.44603897191E-01 0.  0.
         14    1    1    2    0    0  0.34608293112E-02  0.10741972809E-01 -0.84575467504E-02  0.14103099531E-01  0.00000000000E+00 0. -1.
     999901    1    3    3    0    0 -0.10003177857E+00  0.74110782091E-01  0.41747346557E-01  0.88974243784E+00  0.88000000000E+00 0. -1.
        -11    1    4    4    0    0  0.80250226102E-01 -0.65979990646E-01 -0.44128548318E-01  0.11287625017E+00  0.51100000000E-03 0.  1.
         11    1    4    4    0    0  0.16320723157E-01 -0.18872764254E-01  0.10838748512E-01  0.27208212460E-01  0.51100000000E-03 0. -1.
</event>
<event>
 8    1  0.2837913E+004  0.1043930E+01  0.7957747E-01            NaN
         13   -1    0    0    0    0  0.00000000000E+00  0.00000000000E+00  0.74505805969E-08  0.10566000000E+00  0.10566000000E+00 0.  1.
     999900   -1    0    0    0    0 -0.00000000000E+00 -0.00000000000E+00 -0.74505805969E-08  0.93827000000E+00  0.93827000000E+00 0.  1.
     999902    2    1    2    0    0  0.41139501346E-02 -0.16595822369E-01  0.15576452586E-02  0.10267610698E+01  0.10266175151E+01 0.  0.
     999903    2    3    3    0    0 -0.11303847551E+00 -0.13438968303E-01 -0.60328817944E-01  0.13683714557E+00  0.46114372158E-01 0.  0.
         14    1    1    2    0    0 -0.41139501346E-02  0.16595822369E-01 -0.15576452586E-02  0.17168930211E-01  0.00000000000E+00 0.  1.
     999901    1    3    3    0    0  0.11715242565E+00 -0.31568540665E-02  0.61886463203E-01  0.88992392421E+00  0.88000000000E+00 0.  1.
        -11    1    4    4    0    0 -0.27097747710E-01  0.10179929155E-01  0.45485011228E-03  0.28954911469E-01  0.51100000000E-03 0. -1.
         11    1    4    4    0    0 -0.85940727801E-01 -0.23618897458E-01 -0.60783668056E-01  0.10788223410E+00  0.51100000000E-03 0.  1.
</event>
<event>
 8    1  0.2837913E+004  0.1043930E+01  0.7957747E-01            NaN
         13   -1    0    0    0    0  0.00000000000E+00  0.00000000000E+00  0.74505805969E-08  0.10566000000E+00  0.10566000000E+00 0.  1.
     999900   -1    0    0    0    0 -0.00000000000E+00 -0.00000000000E+00 -0.74505805969E-08  0.93827000000E+00  0.93827000000E+00 0.  1.
     999902    2    1    2    0    0  0.98597295945E-02  0.46632537505E-02  0.30405663204E-02  0.10326072244E+01  0.10325451441E+01 0.  0.
     999903    2    3    3    0    0 -0.10557685469E+00  0.53970933184E-02  0.81989106144E-01  0.14156344578E+00  0.46286010785E-01 0.  0.
         14    1    1    2    0    0 -0.98597295945E-02 -0.46632537505E-02 -0.30405663204E-02  0.11322775577E-01  0.00000000000E+00 0. -1.
     999901    1    3    3    0    0  0.11543658428E+00 -0.73383956798E-03 -0.78948539824E-01  0.89104377864E+00  0.88000000000E+00 0.  1.
        -11    1    4    4    0    0 -0.80291626708E-01 -0.57225407828E-02  0.36598439011E-01  0.88426238479E-01  0.51100000000E-03 0. -1.
         11    1    4    4    0    0 -0.25285227977E-01  0.11119634101E-01  0.45390667134E-01  0.53137207306E-01  0.51100000000E-03 0.  1.
</event>
<event>
 8    1  0.2837913E+004  0.1043930E+01  0.7957747E-01            NaN
         13   -1    0    0    0    0  0.00000000000E+00  0.00000000000E+00  0.74505805969E-08  0.10566000000E+00  0.10566000000E+00 0.  1.
     999900   -1    0    0    0    0 -0.00000000000E+00 -0.00000000000E+00 -0.74505805969E-08  0.93827000000E+00  0.93827000000E+00 0.  1.
     999902    2    1    2    0    0  0.38128526731E-02  0.11595187597E-01 -0.80390811650E-02  0.10293144929E+01  0.10292107230E+01 0.  0.
     999903    2    3    3    0    0 -0.11938920251E+00 -0.10508425589E-02 -0.56596090416E-01  0.13931648640E+00  0.44171031085E-01 0.  0.
         14    1    1    2    0    0 -0.38128526731E-02 -0.11595187597E-01  0.80390811650E-02  0.14615507070E-01  0.00000000000E+00 0. -1.
     999901    1    3    3    0    0  0.12320205518E+00  0.12646030156E-01  0.48557009251E-01  0.88999800653E+00  0.88000000000E+00 0. -1.
        -11    1    4    4    0    0 -0.60353174879E-01 -0.18184678215E-01 -0.43148030646E-01  0.76388493305E-01  0.51100000000E-03 0.  1.
         11    1    4    4    0    0 -0.59036027628E-01  0.17133835656E-01 -0.13448059770E-01  0.62927993095E-01  0.51100000000E-03 0. -1.
</event>
<event>
 8    1  0.2837913E+004  0.1043930E+01  0.7957747E-01            NaN
         13   -1    0    0    0    0  0.00000000000E+00  0.00000000000E+00  0.74505805969E-08  0.10566000000E+00  0.10566000000E+00 0.  1.
     999900   -1    0    0    0    0 -0.00000000000E+00 -0.00000000000E+00 -0.74505805969E-08  0.93827000000E+00  0.93827000000E+00 0.  1.
     999902    2    1    2    0    0  0.12261891258E-02  0.10641795059E-01  0.87324795331E-02  0.10301094522E+01  0.10300167358E+01 0.  0.
     999903    2    3    3    0    0  0.22041635219E-01 -0.88464808400E-02  0.13171629420E+00  0.14109983791E+00  0.44675364500E-01 0.  0.
         14    1    1    2    0    0 -0.12261891258E-02 -0.10641795059E-01 -0.87324795331E-02  0.13820547769E-01  0.00000000000E+00 0.  1.
     999901    1    3    3    0    0 -0.20815446093E-01  0.19488275899E-01 -0.12298381467E+00  0.88900961433E+00  0.88000000000E+00 0.  1.
        -11    1    4    4    0    0  0.69532404520E-02 -0.26433451988E-01  0.75234595663E-01  0.80047363744E-01  0.51100000000E-03 0.  1.
         11    1    4    4    0    0  0.15088394767E-01  0.17586971148E-01  0.56481698535E-01  0.61052474161E-01  0.51100000000E-03 0. -1.
</event>
<event>
 8    1  0.2837913E+004  0.1043930E+01  0.7957747E-01            NaN
         13   -1    0    0    0    0  0.00000000000E+00  0.00000000000E+00  0.74505805969E-08  0.10566000000E+00  0.10566000000E+00 0. -1.
     999900   -1    0    0    0    0 -0.00000000000E+00 -0.00000000000E+00 -0.74505805969E-08  0.93827000000E+00  0.93827000000E+00 0. -1.
     999902    2    1    2    0    0  0.50915807401E-02  0.75231481725E-02 -0.16169475402E-01  0.10253834670E+01  0.10252157239E+01 0.  0.
     999903    2    3    3    0    0  0.86970511831E-01 -0.35882696507E-01  0.85170574952E-01  0.13473312451E+00  0.45249863708E-01 0.  0.
         14    1    1    2    0    0 -0.50915807401E-02 -0.75231481725E-02  0.16169475402E-01  0.18546533036E-01  0.00000000000E+00 0. -1.
     999901    1    3    3    0    0 -0.81878931091E-01  0.43405844680E-01 -0.10134005035E+00  0.89065034245E+00  0.88000000000E+00 0. -1.
        -11    1    4    4    0    0  0.71856681842E-02 -0.12259319496E-01 -0.18412514086E-02  0.14337924170E-01  0.51100000000E-03 0.  1.
         11    1    4    4    0    0  0.79784843647E-01 -0.23623377012E-01  0.87011826361E-01  0.12039520034E+00  0.51100000000E-03 0. -1.
</event>
<event>
 8    1  0.2837913E+004  0.1043930E+01  0.7957747E-01            NaN
         13   -1    0    0    0    0  0.00000000000E+00  0.00000000000E+00  0.74505805969E-08  0.10566000000E+00  0.10566000000E+00 0.  1.
     999900   -1    0    0    0    0 -0.00000000000E+00 -0.00000000000E+00 -0.74505805969E-08  0.93827000000E+00  0.93827000000E+00 0.  1.
     999902    2    1    2    0    0  0.18280164535E-01 -0.16294844741E-01 -0.19383571264E-02  0.10193649108E+01  0.10190688778E+01 0.  0.
     999903    2    3    3    0    0  0.12080063374E+00 -0.28487232071E-01  0.17485999444E-01  0.13311640919E+00  0.44831938578E-01 0.  0.
         14    1    1    2    0    0 -0.18280164535E-01  0.16294844741E-01  0.19383571264E-02  0.24565089231E-01  0.00000000000E+00 0. -1.
     999901    1    3    3    0    0 -0.10252046921E+00  0.12192387331E-01 -0.19424356571E-01  0.88624850157E+00  0.88000000000E+00 0.  1.
        -11    1    4    4    0    0  0.46182754314E-01 -0.56190350457E-02  0.28099143051E-01  0.54352951273E-01  0.51100000000E-03 0.  1.
         11    1    4    4    0    0  0.74617879429E-01 -0.22868197026E-01 -0.10613143606E-01  0.78763457922E-01  0.51100000000E-03 0. -1.
</event>
<event>
 8    1  0.2837913E+004  0.1043930E+01  0.7957747E-01            NaN
         13   -1    0    0    0    0  0.00000000000E+00  0.00000000000E+00  0.74505805969E-08  0.10566000000E+00  0.10566000000E+00 0. -1.
     999900   -1    0    0    0    0 -0.00000000000E+00 -0.00000000000E+00 -0.74505805969E-08  0.93827000000E+00  0.93827000000E+00 0. -1.
     999902    2    1    2    0    0 -0.11257388480E-01  0.13336155388E-02  0.82002259843E-02  0.10299388945E+01  0.10298438597E+01 0.  0.
     999903    2    3    3    0    0 -0.10449974257E-01  0.15574498964E-01 -0.12798030806E+00  0.13934999245E+00  0.51842976031E-01 0.  0.
         14    1    1    2    0    0  0.11257388480E-01 -0.13336155388E-02 -0.82002259843E-02  0.13991105460E-01  0.00000000000E+00 0.  1.
     999901    1    3    3    0    0 -0.80741422276E-03 -0.14240883425E-01  0.13618053405E+00  0.89058890209E+00  0.88000000000E+00 0.  1.
        -11    1    4    4    0    0  0.67020867341E-02 -0.16409411905E-01 -0.29820868615E-01  0.34694842435E-01  0.51100000000E-03 0. -1.
         11    1    4    4    0    0 -0.17152060991E-01  0.31983910869E-01 -0.98159439446E-01  0.10465515001E+00  0.51100000000E-03 0.  1.
</event>
<event>
 8    1  0.2837913E+004  0.1043930E+01  0.7957747E-01            NaN
         13   -1    0    0    0    0  0.00000000000E+00  0.00000000000E+00  0.74505805969E-08  0.10566000000E+00  0.10566000000E+00 0.  1.
     999900   -1    0    0    0    0 -0.00000000000E+00 -0.00000000000E+00 -0.74505805969E-08  0.93827000000E+00  0.93827000000E+00 0.  1.
     999902    2    1    2    0    0 -0.18803800182E-02  0.14263844848E-01  0.27219650753E-03  0.10295401706E+01  0.10294396028E+01 0.  0.
     999903    2    3    3    0    0 -0.10521956280E+00 -0.77152511425E-01 -0.13840698178E-01  0.13867816632E+00  0.44904370323E-01 0.  0.
         14    1    1    2    0    0  0.18803800182E-02 -0.14263844848E-01 -0.27219650753E-03  0.14389829387E-01  0.00000000000E+00 0. -1.
     999901    1    3    3    0    0  0.10333918278E+00  0.91416356273E-01  0.14112894686E-01  0.89086200429E+00  0.88000000000E+00 0. -1.
        -11    1    4    4    0    0 -0.36669234646E-01 -0.46907624676E-01  0.92883695610E-02  0.60261869805E-01  0.51100000000E-03 0.  1.
         11    1    4    4    0    0 -0.68550328151E-01 -0.30244886749E-01 -0.23129067739E-01  0.78416296518E-01  0.51100000000E-03 0. -1.
</event>
<event>
 8    1  0.2837913E+004  0.1043930E+01  0.7957747E-01            NaN
         13   -1    0    0    0    0  0.00000000000E+00  0.00000000000E+00  0.74505805969E-08  0.10566000000E+00  0.10566000000E+00 0. -1.
     999900   -1    0    0    0    0 -0.00000000000E+00 -0.00000000000E+00 -0.74505805969E-08  0.93827000000E+00  0.93827000000E+00 0. -1.
     999902    2    1    2    0    0 -0.11804532250E-01 -0.18476119504E-02  0.15284356145E-01  0.10245296857E+01  0.10243459888E+01 0.  0.
     999903    2    3    3    0    0 -0.12934500577E-01  0.10359655895E+00 -0.71475044789E-01  0.13399785380E+00  0.44127026450E-01 0.  0.
         14    1    1    2    0    0  0.11804532250E-01  0.18476119504E-02 -0.15284356145E-01  0.19400314284E-01  0.00000000000E+00 0. -1.
     999901    1    3    3    0    0  0.11299683266E-02 -0.10544417090E+00  0.86759400933E-01  0.89053183192E+00  0.88000000000E+00 0.  1.
        -11    1    4    4    0    0  0.12526180605E-01  0.96064882450E-02 -0.12603181099E-01  0.20206214682E-01  0.51100000000E-03 0. -1.
         11    1    4    4    0    0 -0.25460681181E-01  0.93990070708E-01 -0.58871863690E-01  0.11379163912E+00  0.51100000000E-03 0.  1.
</event>
<event>
 8    1  0.2837913E+004  0.1043930E+01  0.7957747E-01            NaN
         13   -1    0    0    0    0  0.00000000000E+00  0.00000000000E+00  0.74505805969E-08  0.10566000000E+00  0.10566000000E+00 0. -1.
     999900   -1    0    0    0    0 -0.00000000000E+00 -0.00000000000E+00 -0.74505805969E-08  0.93827000000E+00  0.93827000000E+00 0. -1.
     999902    2    1    2    0    0 -0.26613611000E-02  0.12478966643E-02 -0.13692063633E-01  0.10299259757E+01  0.10298307642E+01 0.  0.
     999903    2    3    3    0    0 -0.47413678162E-01  0.11310101777E+00 -0.52550122381E-01  0.14086813774E+00  0.45193138537E-01 0.  0.
         14    1    1    2    0    0  0.26613611000E-02 -0.12478966643E-02  0.13692063633E-01  0.14004024262E-01  0.00000000000E+00 0. -1.
     999901    1    3    3    0    0  0.44752317062E-01 -0.11185312110E+00  0.38858058748E-01  0.88905783800E+00  0.88000000000E+00 0.  1.
        -11    1    4    4    0    0 -0.34772835574E-01  0.28731831912E-01 -0.13851393576E-01  0.47188880934E-01  0.51100000000E-03 0. -1.
         11    1    4    4    0    0 -0.12640842589E-01  0.84369185854E-01 -0.38698728805E-01  0.93679256802E-01  0.51100000000E-03 0.  1.
</event>
<event>
 8    1  0.2837913E+004  0.1043930E+01  0.7957747E-01            NaN
         13   -1    0    0    0    0  0.00000000000E+00  0.00000000000E+00  0.74505805969E-08  0.10566000000E+00  0.10566000000E+00 0.  1.
     999900   -1    0    0    0    0 -0.00000000000E+00 -0.00000000000E+00 -0.74505805969E-08  0.93827000000E+00  0.93827000000E+00 0.  1.
     999902    2    1    2    0    0 -0.78922637170E-02 -0.10573235430E-01 -0.29335395204E-02  0.10304138323E+01  0.10303251812E+01 0.  0.
     999903    2    3    3    0    0  0.18489396503E-01 -0.90836756401E-02 -0.13171387900E+00  0.14064836514E+00  0.44822380001E-01 0.  0.
         14    1    1    2    0    0  0.78922637170E-02  0.10573235430E-01  0.29335395204E-02  0.13516167658E-01  0.00000000000E+00 0.  1.
     999901    1    3    3    0    0 -0.26381660221E-01 -0.14895597895E-02  0.12878033948E+00  0.88976546720E+00  0.88000000000E+00 0. -1.
        -11    1    4    4    0    0  0.28756100879E-01 -0.12995966797E-01 -0.57218682191E-01  0.65345598195E-01  0.51100000000E-03 0. -1.
         11    1    4    4    0    0 -0.10266704376E-01  0.39122911570E-02 -0.74495196813E-01  0.75302766948E-01  0.51100000000E-03 0.  1.
</event>
<event>
 8    1  0.2837913E+004  0.1043930E+01  0.7957747E-01            NaN
         13   -1    0    0    0    0  0.00000000000E+00  0.00000000000E+00  0.74505805969E-08  0.10566000000E+00  0.10566000000E+00 0.  1.
     999900   -1    0    0    0    0 -0.00000000000E+00 -0.00000000000E+00 -0.74505805969E-08  0.93827000000E+00  0.93827000000E+00 0.  1.
     999902    2    1    2    0    0  0.91404448106E-02  0.81402986906E-02 -0.46649597777E-02  0.10308313724E+01  0.10307481479E+01 0.  0.
     999903    2    3    3    0    0 -0.25676456478E-02  0.11523537847E+00 -0.71128388187E-01  0.14177354372E+00  0.41889197171E-01 0.  0.
         14    1    1    2    0    0 -0.91404448106E-02 -0.81402986906E-02  0.46649597777E-02  0.13098627555E-01  0.00000000000E+00 0.  1.
     999901    1    3    3    0    0  0.11708090458E-01 -0.10709507977E+00  0.66463428410E-01  0.88905782872E+00  0.88000000000E+00 0.  1.
        -11    1    4    4    0    0  0.41147592464E-02  0.49606576885E-01 -0.79124956485E-02  0.50404488117E-01  0.51100000000E-03 0. -1.
         11    1    4    4    0    0 -0.66824048942E-02  0.65628801580E-01 -0.63215892539E-01  0.91369055607E-01  0.51100000000E-03 0.  1.
</event>
<event>
 8    1  0.2837913E+004  0.1043930E+01  0.7957747E-01            NaN
         13   -1    0    0    0    0  0.00000000000E+00  0.00000000000E+00  0.74505805969E-08  0.10566000000E+00  0.10566000000E+00 0.  1.
     999900   -1    0    0    0    0 -0.00000000000E+00 -0.00000000000E+00 -0.74505805969E-08  0.93827000000E+00  0.93827000000E+00 0.  1.
     999902    2    1    2    0    0  0.79290394188E-02 -0.84432885122E-03  0.12201346473E-01  0.10293541497E+01  0.10292509461E+01 0.  0.
     999903    2    3    3    0    0 -0.74313395939E-03 -0.53052152460E-01 -0.11916446021E+00  0.13803050552E+00  0.45135005808E-01 0.  0.
         14    1    1    2    0    0 -0.79290394188E-02  0.84432885122E-03 -0.12201346473E-01  0.14575850338E-01  0.00000000000E+00 0. -1.
     999901    1    3    3    0    0  0.86721733782E-02  0.52207823609E-01  0.13136580668E+00  0.89132364414E+00  0.88000000000E+00 0. -1.
        -11    1    4    4    0    0 -0.16239304933E-01 -0.21197251470E-01 -0.83880094570E-01  0.88029369421E-01  0.51100000000E-03 0. -1.
         11    1    4    4    0    0  0.15496170973E-01 -0.31854900991E-01 -0.35284365638E-01  0.50001136101E-01  0.51100000000E-03 0.  1.
</event>
<event>
 8    1  0.2837913E+004  0.1043930E+01  0.7957747E-01            NaN
         13   -1    0    0    0    0  0.00000000000E+00  0.00000000000E+00  0.74505805969E-08  0.10566000000E+00  0.10566000000E+00 0. -1.
     999900   -1    0    0    0    0 -0.00000000000E+00 -0.00000000000E+00 -0.74505805969E-08  0.93827000000E+00  0.93827000000E+00 0.  1.
     999902    2    1    2    0    0 -0.30347496271E-02 -0.84959574337E-02 -0.97142603379E-02  0.10306726303E+01  0.10305873631E+01 0.  0.
     999903    2    3    3    0    0  0.59556264731E-01 -0.11211899952E+00  0.40939787666E-01  0.14094165829E+00  0.45506769901E-01 0.  0.
         14    1    1    2    0    0  0.30347496271E-02  0.84959574337E-02  0.97142603379E-02  0.13257369721E-01  0.00000000000E+00 0. -1.
     999901    1    3    3    0    0 -0.62591014358E-01  0.10362304208E+00 -0.50654048004E-01  0.88973097198E+00  0.88000000000E+00 0.  1.
        -11    1    4    4    0    0  0.46798161381E-01 -0.61812465196E-01  0.43640774021E-01  0.88969809713E-01  0.51100000000E-03 0.  1.
         11    1    4    4    0    0  0.12758103350E-01 -0.50306534323E-01 -0.27009863549E-02  0.51971848581E-01  0.51100000000E-03 0. -1.
</event>
<event>
 8    1  0.2837913E+004  0.1043930E+01  0.7957747E-01            NaN
         13   -1    0    0    0    0  0.00000000000E+00  0.00000000000E+00  0.74505805969E-08  0.10566000000E+00  0.10566000000E+00 0.  1.
     999900   -1    0    0    0    0 -0.00000000000E+00 -0.00000000000E+00 -0.74505805969E-08  0.93827000000E+00  0.93827000000E+00 0.  1.
     999902    2    1    2    0    0  0.13801020477E-02  0.12892103276E-01  0.71132862880E-02  0.10291411579E+01  0.10290348940E+01 0.  0.
     999903    2    3    3    0    0 -0.17975545386E-01  0.89229753908E-01 -0.95799227507E-01  0.13965081873E+00  0.45164034007E-01 0.  0.
         14    1    1    2    0    0 -0.13801020477E-02 -0.12892103276E-01 -0.71132862880E-02  0.14788842090E-01  0.00000000000E+00 0. -1.
     999901    1    3    3    0    0  0.19355647434E-01 -0.76337650632E-01  0.10291251379E+00  0.88949033918E+00  0.88000000000E+00 0. -1.
        -11    1    4    4    0    0  0.12575155118E-02  0.35797234423E-01 -0.10782234478E-01  0.37410440239E-01  0.51100000000E-03 0. -1.
         11    1    4    4    0    0 -0.19233060898E-01  0.53432519485E-01 -0.85016993029E-01  0.10224037849E+00  0.51100000000E-03 0.  1.
</event>
<event>
 8    1  0.2837913E+004  0.1043930E+01  0.7957747E-01            NaN
         13   -1    0    0    0    0  0.00000000000E+00  0.00000000000E+00  0.74505805969E-08  0.10566000000E+00  0.10566000000E+00 0.  1.
     999900   -1    0    0    0    0 -0.00000000000E+00 -0.00000000000E+00 -0.74505805969E-08  0.93827000000E+00  0.93827000000E+00 0. -1.
     999902    2    1    2    0    0  0.42093089058E-02 -0.23682293239E-02  0.12716916459E-01  0.10303268108E+01  0.10302370069E+01 0.  0.
     999903    2    3    3    0    0 -0.74608735681E-01 -0.30633842126E-01  0.10695981612E+00  0.14134258534E+00  0.45082462694E-01 0.  0.
         14    1    1    2    0    0 -0.42093089058E-02  0.23682293239E-02 -0.12716916459E-01  0.13603189178E-01  0.00000000000E+00 0. -1.
     999901    1    3    3    0    0  0.78818044587E-01  0.28265612802E-01 -0.94242899662E-01  0.88898422548E+00  0.88000000000E+00 0. -1.
        -11    1    4    4    0    0 -0.59535779567E-01 -0.23637626507E-01  0.47898973551E-01  0.79986368988E-01  0.51100000000E-03 0.  1.
         11    1    4    4    0    0 -0.15072956114E-01 -0.69962156192E-02  0.59060842570E-01  0.61356216352E-01  0.51100000000E-03 0. -1.
</event>
<event>
 8    1  0.2837913E+004  0.1043930E+01  0.7957747E-01            NaN
         13   -1    0    0    0    0  0.00000000000E+00  0.00000000000E+00  0.74505805969E-08  0.10566000000E+00  0.10566000000E+00 0. -1.
     999900   -1    0    0    0    0 -0.00000000000E+00 -0.00000000000E+00 -0.74505805969E-08  0.93827000000E+00  0.93827000000E+00 0. -1.
     999902    2    1    2    0    0  0.92578961754E-02  0.10651450548E-01 -0.67176170441E-02  0.10283002713E+01  0.10281814818E+01 0.  0.
     999903    2    3    3    0    0  0.42282765496E-01  0.10372744141E+00 -0.71917233180E-01  0.14037866890E+00  0.44574296336E-01 0.  0.
         14    1    1    2    0    0 -0.92578961754E-02 -0.10651450548E-01  0.67176170441E-02  0.15629728696E-01  0.00000000000E+00 0. -1.
     999901    1    3    3    0    0 -0.33024869321E-01 -0.93075990866E-01  0.65199616136E-01  0.88792160240E+00  0.88000000000E+00 0.  1.
        -11    1    4    4    0    0  0.15294244736E-01  0.20578525890E-01  0.22388577036E-02  0.25742246496E-01  0.51100000000E-03 0.  1.
         11    1    4    4    0    0  0.26988520760E-01  0.83148915524E-01 -0.74156090883E-01  0.11463642241E+00  0.51100000000E-03 0. -1.
</event>
<event>
 8    1  0.2837913E+004  0.1043930E+01  0.7957747E-01            NaN
         13   -1    0    0    0    0  0.00000000000E+00  0.00000000000E+00  0.74505805969E-08  0.10566000000E+00  0.10566000000E+00 0.  1.
     999900   -1    0    0    0    0 -0.00000000000E+00 -0.00000000000E+00 -0.74505805969E-08  0.93827000000E+00  0.93827000000E+00 0. -1.
     999902    2    1    2    0    0  0.10702043163E-01 -0.47055247384E-02  0.83757829819E-02  0.10295484343E+01  0.10294479827E+01 0.  0.
     999903    2    3    3    0    0  0.61499821989E-01 -0.91715675510E-01  0.76266623128E-01  0.14120145996E+00  0.43900583742E-01 0.  0.
         14    1    1    2    0    0 -0.10702043163E-01  0.47055247384E-02 -0.83757829819E-02  0.14381565683E-01  0.00000000000E+00 0.  1.
     999901    1    3    3    0    0 -0.50797778826E-01  0.87010150771E-01 -0.67890840146E-01  0.88834697436E+00  0.88000000000E+00 0.  1.
        -11    1    4    4    0    0  0.58336664163E-01 -0.88801585665E-01  0.81859760445E-01  0.13412743755E+00  0.51100000000E-03 0. -1.
         11    1    4    4    0    0  0.31631578261E-02 -0.29140898450E-02 -0.55931373164E-02  0.70740224129E-02  0.51100000000E-03 0.  1.
</event>
<event>
 8    1  0.2837913E+004  0.1043930E+01  0.7957747E-01            NaN
         13   -1    0    0    0    0  0.00000000000E+00  0.00000000000E+00  0.74505805969E-08  0.10566000000E+00  0.10566000000E+00 0. -1.
     999900   -1    0    0    0    0 -0.00000000000E+00 -0.00000000000E+00 -0.74505805969E-08  0.93827000000E+00  0.93827000000E+00 0.  1.
     999902    2    1    2    0    0  0.18058974615E-02 -0.13971240868E-01 -0.68302063404E-03  0.10298259809E+01  0.10297293953E+01 0.  0.
     999903    2    3    3    0    0 -0.10072303568E+00 -0.10557861148E-01  0.84823482962E-01  0.13975003166E+00  0.45590017961E-01 0.  0.
         14    1    1    2    0    0 -0.18058974615E-02  0.13971240868E-01  0.68302063404E-03  0.14104019080E-01  0.00000000000E+00 0. -1.
     999901    1    3    3    0    0  0.10252893315E+00 -0.34133797196E-02 -0.85506503596E-01  0.89007594926E+00  0.88000000000E+00 0. -1.
        -11    1    4    4    0    0 -0.67247261065E-01  0.65767647124E-02  0.31637479001E-01  0.74609913238E-01  0.51100000000E-03 0.  1.
         11    1    4    4    0    0 -0.33475774620E-01 -0.17134625860E-01  0.53186003960E-01  0.65140118422E-01  0.51100000000E-03 0. -1.
</event>
<event>
 8    1  0.2837913E+004  0.1043930E+01  0.7957747E-01            NaN
         13   -1    0    0    0    0  0.00000000000E+00  0.00000000000E+00  0.74505805969E-08  0.10566000000E+00  0.10566000000E+00 0.  1.
     999900   -1    0    0    0    0 -0.00000000000E+00 -0.00000000000E+00 -0.74505805969E-08  0.93827000000E+00  0.93827000000E+00 0.  1.
     999902    2    1    2    0    0  0.13350415830E-01 -0.21119647935E-02 -0.12629768991E-02  0.10303546875E+01  0.10302652537E+01 0.  0.
     999903    2    3    3    0    0  0.10237756717E+00  0.86381387063E-01  0.41004949162E-02  0.14143080224E+00  0.45198976454E-01 0.  0.
         14    1    1    2    0    0 -0.13350415830E-01  0.21119647935E-02  0.12629768991E-02  0.13575312474E-01  0.00000000000E+00 0. -1.
     999901    1    3    3    0    0 -0.89027151344E-01 -0.88493351857E-01 -0.53634718153E-02  0.88892388528E+00  0.88000000000E+00 0.  1.
        -11    1    4    4    0    0  0.75704560191E-01  0.47268412508E-01  0.20042960329E-01  0.91473846724E-01  0.51100000000E-03 0. -1.
         11    1    4    4    0    0  0.26673006983E-01  0.39112974555E-01 -0.15942465413E-01  0.49956955517E-01  0.51100000000E-03 0.  1.
</event>
<event>
 8    1  0.2837913E+004  0.1043930E+01  0.7957747E-01            NaN
         13   -1    0    0    0    0  0.00000000000E+00  0.00000000000E+00  0.74505805969E-08  0.10566000000E+00  0.10566000000E+00 0.  1.
     999900   -1    0    0    0    0 -0.00000000000E+00 -0.00000000000E+00 -0.74505805969E-08  0.93827000000E+00  0.93827000000E+00 0.  1.
     999902    2    1    2    0    0 -0.77508124285E-02 -0.11768875187E-01  0.66820821769E-03  0.10298222710E+01  0.10297256342E+01 0.  0.
     999903    2    3    3    0    0  0.51410713882E-01  0.51043641254E-01 -0.10962243334E+00  0.13875015040E+00  0.44564689289E-01 0.  0.
         14    1    1    2    0    0  0.77508124285E-02  0.11768875187E-01 -0.66820821769E-03  0.14107729041E-01  0.00000000000E+00 0. -1.
     999901    1    3    3    0    0 -0.59161526310E-01 -0.62812516441E-01  0.11029064156E+00  0.89107212056E+00  0.88000000000E+00 0.  1.
        -11    1    4    4    0    0  0.39197512978E-01  0.50234542565E-01 -0.59598179256E-01  0.87247684107E-01  0.51100000000E-03 0.  1.
         11    1    4    4    0    0  0.12213200904E-01  0.80909868827E-03 -0.50024254083E-01  0.51502466296E-01  0.51100000000E-03 0. -1.
</event>
<event>
 8    1  0.2837913E+004  0.1043930E+01  0.7957747E-01            NaN
         13   -1    0    0    0    0  0.00000000000E+00  0.00000000000E+00  0.74505805969E-08  0.10566000000E+00  0.10566000000E+00 0. -1.
     999900   -1    0    0    0    0 -0.00000000000E+00 -0.00000000000E+00 -0.74505805969E-08  0.93827000000E+00  0.93827000000E+00 0. -1.
     999902    2    1    2    0    0 -0.21984012813E-02  0.65839792093E-02  0.12475077495E-01  0.10296538202E+01  0.10295548456E+01 0.  0.
     999903    2    3    3    0    0 -0.12300052199E+00 -0.37739004483E-01  0.32451324746E-01  0.14007148581E+00  0.44872840220E-01 0.  0.
         14    1    1    2    0    0  0.21984012813E-02 -0.65839792093E-02 -0.12475077495E-01  0.14276179773E-01  0.00000000000E+00 0.  1.
     999901    1    3    3    0    0  0.12080212071E+00  0.44322983692E-01 -0.19976247252E-01  0.88958233442E+00  0.88000000000E+00 0. -1.
        -11    1    4    4    0    0 -0.37218603791E-01 -0.58290233663E-02 -0.10292335130E-01  0.39056308901E-01  0.51100000000E-03 0. -1.
         11    1    4    4    0    0 -0.85781918202E-01 -0.31909981117E-01  0.42743659877E-01  0.10101517691E+00  0.51100000000E-03 0.  1.
</event>
<event>
 8    1  0.2837913E+004  0.1043930E+01  0.7957747E-01            NaN
         13   -1    0    0    0    0  0.00000000000E+00  0.00000000000E+00  0.74505805969E-08  0.10566000000E+00  0.10566000000E+00 0.  1.
     999900   -1    0    0    0    0 -0.00000000000E+00 -0.00000000000E+00 -0.74505805969E-08  0.93827000000E+00  0.93827000000E+00 0. -1.
     999902    2    1    2    0    0 -0.29238753244E-02 -0.80863811168E-03  0.13202107557E-01  0.10303838350E+01  0.10302947873E+01 0.  0.
     999903    2    3    3    0    0  0.40826787040E-01  0.75564158060E-01 -0.99578100185E-01  0.13883108854E+00  0.44514094221E-01 0.  0.
         14    1    1    2    0    0  0.29238753244E-02  0.80863811168E-03 -0.13202107557E-01  0.13546165010E-01  0.00000000000E+00 0.  1.
     999901    1    3    3    0    0 -0.43750662365E-01 -0.76372796171E-01  0.11278020774E+00  0.89155274645E+00  0.88000000000E+00 0.  1.
        -11    1    4    4    0    0  0.12012391062E-01  0.46493849396E-01 -0.80345969611E-01  0.93604014468E-01  0.51100000000E-03 0. -1.
         11    1    4    4    0    0  0.28814395978E-01  0.29070308664E-01 -0.19232130573E-01  0.45227074068E-01  0.51100000000E-03 0.  1.
</event>
<event>
 8    1  0.2837913E+004  0.1043930E+01  0.7957747E-01            NaN
         13   -1    0    0    0    0  0.00000000000E+00  0.00000000000E+00  0.74505805969E-08  0.10566000000E+00  0.10566000000E+00 0. -1.
     999900   -1    0    0    0    0 -0.00000000000E+00 -0.00000000000E+00 -0.74505805969E-08  0.93827000000E+00  0.93827000000E+00 0. -1.
     999902    2    1    2    0    0 -0.10364301577E-01 -0.14000289457E-01 -0.41087328303E-02  0.10260328344E+01  0.10258767317E+01 0.  0.
     999903    2    3    3    0    0  0.97325901727E-01  0.52984869330E-01 -0.62379642224E-01  0.13503356935E+00  0.45421553945E-01 0.  0.
         14    1    1    2    0    0  0.10364301577E-01  0.14000289457E-01  0.41087328303E-02  0.17897165628E-01  0.00000000000E+00 0. -1.
     999901    1    3    3    0    0 -0.10769020330E+00 -0.66985158787E-01  0.58270909393E-01  0.89099926502E+00  0.88000000000E+00 0. -1.
        -11    1    4    4    0    0  0.67213032226E-01  0.52621042109E-01 -0.29192529568E-01  0.90216576510E-01  0.51100000000E-03 0.  1.
         11    1    4    4    0    0  0.30112869501E-01  0.36382722136E-03 -0.33187112656E-01  0.44816992841E-01  0.51100000000E-03 0. -1.
</event>
<event>
 8    1  0.2837913E+004  0.1043930E+01  0.7957747E-01            NaN
         13   -1    0    0    0    0  0.00000000000E+00  0.00000000000E+00  0.74505805969E-08  0.10566000000E+00  0.10566000000E+00 0. -1.
     999900   -1    0    0    0    0 -0.00000000000E+00 -0.00000000000E+00 -0.74505805969E-08  0.93827000000E+00  0.93827000000E+00 0.  1.
     999902    2    1    2    0    0  0.12759909337E-01 -0.16487672351E-02 -0.30867879272E-02  0.10306989011E+01  0.10306139736E+01 0.  0.
     999903    2    3    3    0    0  0.39450789752E-01 -0.12436114963E+00  0.29853084309E-01  0.14117331566E+00  0.44906993467E-01 0.  0.
         14    1    1    2    0    0 -0.12759909337E-01  0.16487672351E-02  0.30867879272E-02  0.13231098948E-01  0.00000000000E+00 0.  1.
     999901    1    3    3    0    0 -0.26690880416E-01  0.12271238239E+00 -0.32939872236E-01  0.88952558540E+00  0.88000000000E+00 0.  1.
        -11    1    4    4    0    0  0.31694075521E-01 -0.38223710480E-01  0.22056152820E-01  0.54335085021E-01  0.51100000000E-03 0.  1.
         11    1    4    4    0    0  0.77567142316E-02 -0.86137439146E-01  0.77969314891E-02  0.86838230636E-01  0.51100000000E-03 0. -1.
</event>
<event>
 8    1  0.2837913E+004  0.1043930E+01  0.7957747E-01            NaN
         13   -1    0    0    0    0  0.00000000000E+00  0.00000000000E+00  0.74505805969E-08  0.10566000000E+00  0.10566000000E+00 0.  1.
     999900   -1    0    0    0    0 -0.00000000000E+00 -0.00000000000E+00 -0.74505805969E-08  0.93827000000E+00  0.93827000000E+00 0. -1.
     999902    2    1    2    0    0 -0.11791694491E-01 -0.25841530877E-02 -0.77612466937E-02  0.10295787333E+01  0.10294787075E+01 0.  0.
     999903    2    3    3    0    0 -0.23855324248E-01 -0.10844644592E+00 -0.74034346441E-01  0.14067801894E+00  0.44491711942E-01 0.  0.
         14    1    1    2    0    0  0.11791694491E-01  0.25841530877E-02  0.77612466937E-02  0.14351266717E-01  0.00000000000E+00 0. -1.
     999901    1    3    3    0    0  0.12063629757E-01  0.10586229284E+00  0.66273099747E-01  0.88890071434E+00  0.88000000000E+00 0.  1.
        -11    1    4    4    0    0  0.11176737119E-01 -0.96790007275E-02 -0.81411815363E-02  0.16886161953E-01  0.51100000000E-03 0. -1.
         11    1    4    4    0    0 -0.35032061366E-01 -0.98767445197E-01 -0.65893164904E-01  0.12379185699E+00  0.51100000000E-03 0.  1.
</event>
<event>
 8    1  0.2837913E+004  0.1043930E+01  0.7957747E-01            NaN
         13   -1    0    0    0    0  0.00000000000E+00  0.00000000000E+00  0.74505805969E-08  0.10566000000E+00  0.10566000000E+00 0.  1.
     999900   -1    0    0    0    0 -0.00000000000E+00 -0.00000000000E+00 -0.74505805969E-08  0.93827000000E+00  0.93827000000E+00 0.  1.
     999902    2    1    2    0    0  0.47365822335E-02 -0.12622722630E-01  0.11048151163E-02  0.10304026590E+01  0.10303138603E+01 0.  0.
     999903    2    3    3    0    0 -0.10390551451E+00 -0.72640963255E-01 -0.41509397621E-01  0.14067165161E+00  0.44636509603E-01 0.  0.
         14    1    1    2    0    0 -0.47365822335E-02  0.12622722630E-01 -0.11048151163E-02  0.13527340991E-01  0.00000000000E+00 0.  1.
     999901    1    3    3    0    0  0.10864209674E+00  0.60018240625E-01  0.42614212738E-01  0.88973100739E+00  0.88000000000E+00 0. -1.
        -11    1    4    4    0    0 -0.84655684973E-01 -0.69041743665E-01 -0.19085431130E-01  0.11089572656E+00  0.51100000000E-03 0. -1.
         11    1    4    4    0    0 -0.19249829533E-01 -0.35992195901E-02 -0.22423966491E-01  0.29775925056E-01  0.51100000000E-03 0.  1.
</event>
<event>
 8    1  0.2837913E+004  0.1043930E+01  0.7957747E-01            NaN
         13   -1    0    0    0    0  0.00000000000E+00  0.00000000000E+00  0.74505805969E-08  0.10566000000E+00  0.10566000000E+00 0. -1.
     999900   -1    0    0    0    0 -0.00000000000E+00 -0.00000000000E+00 -0.74505805969E-08  0.93827000000E+00  0.93827000000E+00 0. -1.
     999902    2    1    2    0    0  0.13861308598E-01 -0.10033253074E-02  0.38188142300E-02  0.10295173014E+01  0.10294164114E+01 0.  0.
     999903    2    3    3    0    0  0.12235708312E+00 -0.21423223677E-02 -0.52979393468E-01  0.14103620046E+00  0.45918932614E-01 0.  0.
         14    1    1    2    0    0 -0.13861308598E-01  0.10033253074E-02 -0.38188142300E-02  0.14412698562E-01  0.00000000000E+00 0. -1.
     999901    1    3    3    0    0 -0.10849577452E+00  0.11389970604E-02  0.56798207698E-01  0.88848110098E+00  0.88000000000E+00 0.  1.
        -11    1    4    4    0    0  0.29225188033E-01 -0.31716221877E-02  0.70417511305E-02  0.30232733632E-01  0.51100000000E-03 0. -1.
         11    1    4    4    0    0  0.93131895086E-01  0.10292998200E-02 -0.60021144599E-01  0.11080346682E+00  0.51100000000E-03 0.  1.
</event>
<event>
 8    1  0.2837913E+004  0.1043930E+01  0.7957747E-01            NaN
         13   -1    0    0    0    0  0.00000000000E+00  0.00000000000E+00  0.74505805969E-08  0.10566000000E+00  0.10566000000E+00 0. -1.
     999900   -1    0    0    0    0 -0.00000000000E+00 -0.00000000000E+00 -0.74505805969E-08  0.93827000000E+00  0.93827000000E+00 0. -1.
     999902    2    1    2    0    0  0.79831425843E-02  0.90534650659E-02 -0.71375244260E-02  0.10299071597E+01  0.10298116903E+01 0.  0.
     999903    2    3    3    0    0 -0.50993238485E-01 -0.11749145341E-01  0.12024931149E+00  0.13853834260E+00  0.44661198699E-01 0.  0.
         14    1    1    2    0    0 -0.79831425843E-02 -0.90534650659E-02  0.71375244260E-02  0.14022840303E-01  0.00000000000E+00 0. -1.
     999901    1    3    3    0    0  0.58976381069E-01  0.20802610407E-01 -0.12738683592E+00  0.89136881709E+00  0.88000000000E+00 0. -1.
        -11    1    4    4    0    0 -0.46713284522E-01 -0.53856088597E-02  0.53014327622E-01  0.70865476699E-01  0.51100000000E-03 0. -1.
         11    1    4    4    0    0 -0.42799539632E-02 -0.63635364815E-02  0.67234983871E-01  0.67672865904E-01  0.51100000000E-03 0.  1.
</event>
<event>
 8    1  0.2837913E+004  0.1043930E+01  0.7957747E-01            NaN
         13   -1    0    0    0    0  0.00000000000E+00  0.00000000000E+00  0.74505805969E-08  0.10566000000E+00  0.10566000000E+00 0. -1.
     999900   -1    0    0    0    0 -0.00000000000E+00 -0.00000000000E+00 -0.74505805969E-08  0.93827000000E+00  0.93827000000E+00 0.  1.
     999902    2    1    2    0    0  0.83313473321E-02  0.13445605742E-02  0.10578298299E-01  0.10303978314E+01  0.10303089689E+01 0.  0.
     999903    2    3    3    0    0  0.81194921902E-02  0.64338884314E-01 -0.11384051705E+00  0.13941614176E+00  0.47663183605E-01 0.  0.
         14    1    1    2    0    0 -0.83313473321E-02 -0.13445605742E-02 -0.10578298299E-01  0.13532168577E-01  0.00000000000E+00 0.  1.
     999901    1    3    3    0    0  0.21185514187E-03 -0.62994323740E-01  0.12441881535E+00  0.89098168967E+00  0.88000000000E+00 0. -1.
        -11    1    4    4    0    0  0.24209275324E-01  0.23806186130E-01 -0.31892663455E-01  0.46585691076E-01  0.51100000000E-03 0. -1.
         11    1    4    4    0    0 -0.16089783134E-01  0.40532698184E-01 -0.81947853598E-01  0.92830450681E-01  0.51100000000E-03 0.  1.
</event>
<event>
 8    1  0.2837913E+004  0.1043930E+01  0.7957747E-01            NaN
         13   -1    0    0    0    0  0.00000000000E+00  0.00000000000E+00  0.74505805969E-08  0.10566000000E+00  0.10566000000E+00 0. -1.
     999900   -1    0    0    0    0 -0.00000000000E+00 -0.00000000000E+00 -0.74505805969E-08  0.93827000000E+00  0.93827000000E+00 0. -1.
     999902    2    1    2    0    0  0.22342841280E-02 -0.31236170283E-02  0.11902492600E-01  0.10314232683E+01  0.10313474390E+01 0.  0.
     999903    2    3    3    0    0  0.11139042842E-01 -0.12285628903E+00  0.53233735544E-01  0.14230939528E+00  0.46908286627E-01 0.  0.
         14    1    1    2    0    0 -0.22342841280E-02  0.31236170283E-02 -0.11902492600E-01  0.12506731748E-01  0.00000000000E+00 0.  1.
     999901    1    3    3    0    0 -0.89047587144E-02  0.11973267200E+00 -0.41331242943E-01  0.88911387297E+00  0.88000000000E+00 0.  1.
        -11    1    4    4    0    0  0.25237366637E-01 -0.82311850650E-01  0.20981836301E-01  0.88615258324E-01  0.51100000000E-03 0. -1.
         11    1    4    4    0    0 -0.14098323794E-01 -0.40544438381E-01  0.32251899242E-01  0.53694136954E-01  0.51100000000E-03 0.  1.
</event>
<event>
 8    1  0.2837913E+004  0.1043930E+01  0.7957747E-01            NaN
         13   -1    0    0    0    0  0.00000000000E+00  0.00000000000E+00  0.74505805969E-08  0.10566000000E+00  0.10566000000E+00 0.  1.
     999900   -1    0    0    0    0 -0.00000000000E+00 -0.00000000000E+00 -0.74505805969E-08  0.93827000000E+00  0.93827000000E+00 0. -1.
     999902    2    1    2    0    0 -0.11097122857E-01 -0.53559393090E-02 -0.79782002686E-02  0.10292506301E+01  0.10291459448E+01 0.  0.
     999903    2    3    3    0    0  0.79426963626E-01 -0.28444736568E-01  0.99096784268E-01  0.13785130593E+00  0.45442978608E-01 0.  0.
         14    1    1    2    0    0  0.11097122857E-01  0.53559393090E-02  0.79782002686E-02  0.14679369915E-01  0.00000000000E+00 0.  1.
     999901    1    3    3    0    0 -0.90524086483E-01  0.23088797259E-01 -0.10707498454E+00  0.89139932416E+00  0.88000000000E+00 0.  1.
        -11    1    4    4    0    0  0.46340001593E-01 -0.38570638068E-01  0.53485425431E-01  0.80598025554E-01  0.51100000000E-03 0. -1.
         11    1    4    4    0    0  0.33086962033E-01  0.10125901500E-01  0.45611358837E-01  0.57253280375E-01  0.51100000000E-03 0.  1.
</event>
<event>
 8    1  0.2837913E+004  0.1043930E+01  0.7957747E-01            NaN
         13   -1    0    0    0    0  0.00000000000E+00  0.00000000000E+00  0.74505805969E-08  0.10566000000E+00  0.10566000000E+00 0.  1.
     999900   -1    0    0    0    0 -0.00000000000E+00 -0.00000000000E+00 -0.74505805969E-08  0.93827000000E+00  0.93827000000E+00 0. -1.
     999902    2    1    2    0    0  0.43449419656E-02  0.87493622018E-03  0.14710623134E-01  0.10285661962E+01  0.10284514444E+01 0.  0.
     999903    2    3    3    0    0 -0.73321164360E-01 -0.10341335396E+00 -0.32142937516E-01  0.13777815874E+00  0.43351328393E-01 0.  0.
         14    1    1    2    0    0 -0.43449419656E-02 -0.87493622018E-03 -0.14710623134E-01  0.15363803796E-01  0.00000000000E+00 0. -1.
     999901    1    3    3    0    0  0.77666106325E-01  0.10428829018E+00  0.46853560651E-01  0.89078803746E+00  0.88000000000E+00 0.  1.
        -11    1    4    4    0    0 -0.56375426137E-01 -0.56720975476E-01 -0.36507278651E-01  0.87911889108E-01  0.51100000000E-03 0. -1.
         11    1    4    4    0    0 -0.16945738222E-01 -0.46692378486E-01  0.43643411351E-02  0.49866269633E-01  0.51100000000E-03 0.  1.
</event>
<event>
 8    1  0.2837913E+004  0.1043930E+01  0.7957747E-01            NaN
         13   -1    0    0    0    0  0.00000000000E+00  0.00000000000E+00  0.74505805969E-08  0.10566000000E+00  0.10566000000E+00 0. -1.
     999900   -1    0    0    0    0 -0.00000000000E+00 -0.00000000000E+00 -0.74505805969E-08  0.93827000000E+00  0.93827000000E+00 0. -1.
     999902    2    1    2    0    0 -0.35903606022E-02 -0.92061457399E-02 -0.10085735069E-01  0.10298103024E+01  0.10297135005E+01 0.  0.
     999903    2    3    3    0    0 -0.33844415466E-01 -0.60017791219E-01 -0.11223300896E+00  0.14193013215E+00  0.52918185825E-01 0.  0.
         14    1    1    2    0    0  0.35903606022E-02  0.92061457399E-02  0.10085735069E-01  0.14119697607E-01  0.00000000000E+00 0. -1.
     999901    1    3    3    0    0  0.30254054864E-01  0.50811645479E-01  0.10214727389E+00  0.88788017025E+00  0.88000000000E+00 0.  1.
        -11    1    4    4    0    0 -0.37872971189E-01 -0.60922314760E-01 -0.72543219555E-01  0.10202289060E+00  0.51100000000E-03 0. -1.
         11    1    4    4    0    0  0.40285557233E-02  0.90452354104E-03 -0.39689789401E-01  0.39907241545E-01  0.51100000000E-03 0.  1.
</event>
<event>
 8    1  0.2837913E+004  0.1043930E+01  0.7957747E-01            NaN
         13   -1    0    0    0    0  0.00000000000E+00  0.00000000000E+00  0.74505805969E-08  0.10566000000E+00  0.10566000000E+00 0.  1.
     999900   -1    0    0    0    0 -0.00000000000E+00 -0.00000000000E+00 -0.74505805969E-08  0.93827000000E+00  0.93827000000E+00 0.  1.
     999902    2    1    2    0    0 -0.57694251016E-02  0.10988271623E-01  0.68882291866E-02  0.10297357730E+01  0.10296379393E+01 0.  0.
     999903    2    3    3    0    0  0.81263511834E-01 -0.27053886414E-01 -0.98907164048E-01  0.13832419401E+00  0.44891919349E-01 0.  0.
         14    1    1    2    0    0  0.57694251016E-02 -0.10988271623E-01 -0.68882291866E-02  0.14194227016E-01  0.00000000000E+00 0.  1.
     999901    1    3    3    0    0 -0.87032936935E-01  0.38042158037E-01  0.10579539323E+00  0.89141157897E+00  0.88000000000E+00 0.  1.
        -11    1    4    4    0    0  0.78287452611E-01 -0.33019954010E-01 -0.10034339814E+00  0.13148498496E+00  0.51100000000E-03 0.  1.
         11    1    4    4    0    0  0.29760592224E-02  0.59660675957E-02  0.14362340907E-02  0.68392090489E-02  0.51100000000E-03 0. -1.
</event>
<event>
 8    1  0.2837913E+004  0.1043930E+01  0.7957747E-01            NaN
         13   -1    0    0    0    0  0.00000000000E+00  0.00000000000E+00  0.74505805969E-08  0.10566000000E+00  0.10566000000E+00 0. -1.
     999900   -1    0    0    0    0 -0.00000000000E+00 -0.00000000000E+00 -0.74505805969E-08  0.93827000000E+00  0.93827000000E+00 0.  1.
     999902    2    1    2    0    0  0.45101109470E-02 -0.12889983416E-01 -0.18788281126E-02  0.10301451254E+01  0.10300528902E+01 0.  0.
     999903    2    3    3    0    0 -0.11156084709E+00 -0.56396320379E-01  0.45227171471E-01  0.14021015930E+00  0.44576049349E-01 0.  0.
         14    1    1    2    0    0 -0.45101109470E-02  0.12889983416E-01  0.18788281126E-02  0.13784874620E-01  0.00000000000E+00 0.  1.
     999901    1    3    3    0    0  0.11607095804E+00  0.43506336963E-01 -0.47105999583E-01  0.88993496608E+00  0.88000000000E+00 0. -1.
        -11    1    4    4    0    0 -0.47090880222E-01 -0.10544077016E-01 -0.15817287432E-02  0.48285521091E-01  0.51100000000E-03 0.  1.
         11    1    4    4    0    0 -0.64469966869E-01 -0.45852243364E-01  0.46808900214E-01  0.91924638209E-01  0.51100000000E-03 0. -1.
</event>
<event>
 8    1  0.2837913E+004  0.1043930E+01  0.7957747E-01            NaN
         13   -1    0    0    0    0  0.00000000000E+00  0.00000000000E+00  0.74505805969E-08  0.10566000000E+00  0.10566000000E+00 0. -1.
     999900   -1    0    0    0    0 -0.00000000000E+00 -0.00000000000E+00 -0.74505805969E-08  0.93827000000E+00  0.93827000000E+00 0. -1.
     999902    2    1    2    0    0 -0.48160335516E-02 -0.56678150660E-02 -0.43411109124E-02  0.10353181738E+01  0.10352823564E+01 0.  0.
     999903    2    3    3    0    0  0.54300931737E-01 -0.12131180995E+00  0.33667547691E-01  0.14497385429E+00  0.47103802801E-01 0.  0.
         14    1    1    2    0    0  0.48160335516E-02  0.56678150660E-02  0.43411109124E-02  0.86118262144E-02  0.00000000000E+00 0.  1.
     999901    1    3    3    0    0 -0.59116965288E-01  0.11564399488E+00 -0.38008658604E-01  0.89034431950E+00  0.88000000000E+00 0.  1.
        -11    1    4    4    0    0  0.15079064686E-01 -0.37025862078E-02 -0.27080136165E-02  0.15769647909E-01  0.51100000000E-03 0.  1.
         11    1    4    4    0    0  0.39221867051E-01 -0.11760922374E+00  0.36375561308E-01  0.12920420638E+00  0.51100000000E-03 0. -1.
</event>
<event>
 8    1  0.2837913E+004  0.1043930E+01  0.7957747E-01            NaN
         13   -1    0    0    0    0  0.00000000000E+00  0.00000000000E+00  0.74505805969E-08  0.10566000000E+00  0.10566000000E+00 0. -1.
     999900   -1    0    0    0    0 -0.00000000000E+00 -0.00000000000E+00 -0.74505805969E-08  0.93827000000E+00  0.93827000000E+00 0.  1.
     999902    2    1    2    0    0  0.61322594209E-02 -0.67372843309E-03 -0.12237059962E-01  0.10302258345E+01  0.10301346834E+01 0.  0.
     999903    2    3    3    0    0 -0.13018754364E-03 -0.74354427532E-01 -0.11156973169E+00  0.14155545503E+00  0.45404228635E-01 0.  0.
         14    1    1    2    0    0 -0.61322594209E-02  0.67372843309E-03  0.12237059962E-01  0.13704165503E-01  0.00000000000E+00 0. -1.
     999901    1    3    3    0    0  0.62624469646E-02  0.73680699099E-01  0.99332671729E-01  0.88867037946E+00  0.88000000000E+00 0. -1.
        -11    1    4    4    0    0  0.19695185190E-01 -0.27191751105E-01 -0.60924551430E-01  0.69565463671E-01  0.51100000000E-03 0.  1.
         11    1    4    4    0    0 -0.19825372734E-01 -0.47162676427E-01 -0.50645180261E-01  0.71989991363E-01  0.51100000000E-03 0. -1.
</event>
<event>
 8    1  0.2837913E+004  0.1043930E+01  0.7957747E-01            NaN
         13   -1    0    0    0    0  0.00000000000E+00  0.00000000000E+00  0.74505805969E-08  0.10566000000E+00  0.10566000000E+00 0. -1.
     999900   -1    0    0    0    0 -0.00000000000E+00 -0.00000000000E+00 -0.74505805969E-08  0.93827000000E+00  0.93827000000E+00 0.  1.
     999902    2    1    2    0    0 -0.11115247436E-01  0.14815117201E-02 -0.56873928355E-02  0.10313566138E+01  0.10312799692E+01 0.  0.
     999903    2    3    3    0    0 -0.83797663929E-01  0.10524553989E+00  0.94045063762E-02  0.14215614564E+00  0.44958345785E-01 0.  0.
         14    1    1    2    0    0  0.11115247436E-01 -0.14815117201E-02  0.56873928355E-02  0.12573386171E-01  0.00000000000E+00 0.  1.
     999901    1    3    3    0    0  0.72682416493E-01 -0.10376402817E+00 -0.15091899212E-01  0.88920046819E+00  0.88000000000E+00 0.  1.
        -11    1    4    4    0    0 -0.80783908698E-01  0.71573633754E-01  0.48438571588E-02  0.10803957158E+00  0.51100000000E-03 0.  1.
         11    1    4    4    0    0 -0.30137552316E-02  0.33671906136E-01  0.45606492174E-02  0.34116574062E-01  0.51100000000E-03 0. -1.
</event>
<event>
 8    1  0.2837913E+004  0.1043930E+01  0.7957747E-01            NaN
         13   -1    0    0    0    0  0.00000000000E+00  0.00000000000E+00  0.74505805969E-08  0.10566000000E+00  0.10566000000E+00 0.  1.
     999900   -1    0    0    0    0 -0.00000000000E+00 -0.00000000000E+00 -0.74505805969E-08  0.93827000000E+00  0.93827000000E+00 0.  1.
     999902    2    1    2    0    0 -0.38325090991E-02  0.12041391310E-01  0.77755038740E-02  0.10290928274E+01  0.10289858627E+01 0.  0.
     999903    2    3    3    0    0  0.76647706360E-01 -0.65320388152E-02  0.10788535897E+00  0.13957384475E+00  0.43864211343E-01 0.  0.
         14    1    1    2    0    0  0.38325090991E-02 -0.12041391310E-01 -0.77755038740E-02  0.14837172614E-01  0.00000000000E+00 0. -1.
     999901    1    3    3    0    0 -0.80480215459E-01  0.18573430125E-01 -0.10010985509E+00  0.88951898264E+00  0.88000000000E+00 0.  1.
        -11    1    4    4    0    0  0.61165846729E-01  0.10192786208E-01  0.94825125561E-01  0.11330145302E+00  0.51100000000E-03 0. -1.
         11    1    4    4    0    0  0.15481859631E-01 -0.16724825023E-01  0.13060233407E-01  0.26272391732E-01  0.51100000000E-03 0.  1.
</event>
<event>
 8    1  0.2837913E+004  0.1043930E+01  0.7957747E-01            NaN
         13   -1    0    0    0    0  0.00000000000E+00  0.00000000000E+00  0.74505805969E-08  0.10566000000E+00  0.10566000000E+00 0. -1.
     999900   -1    0    0    0    0 -0.00000000000E+00 -0.00000000000E+00 -0.74505805969E-08  0.93827000000E+00  0.93827000000E+00 0. -1.
     999902    2    1    2    0    0 -0.14304744565E-01 -0.13850935739E-02 -0.48331498038E-02  0.10287674297E+01  0.10286556863E+01 0.  0.
     999903    2    3    3    0    0 -0.38380247047E-01 -0.95171817179E-01 -0.83989796264E-01  0.13992472481E+00  0.44653382721E-01 0.  0.
         14    1    1    2    0    0  0.14304744565E-01  0.13850935739E-02  0.48331498038E-02  0.15162570306E-01  0.00000000000E+00 0. -1.
     999901    1    3    3    0    0  0.24075502482E-01  0.93786723605E-01  0.79156646460E-01  0.88884270488E+00  0.88000000000E+00 0.  1.
        -11    1    4    4    0    0 -0.23326641482E-01 -0.51968766430E-01 -0.18226162397E-01  0.59810860249E-01  0.51100000000E-03 0.  1.
         11    1    4    4    0    0 -0.15053605565E-01 -0.43203050749E-01 -0.65763633867E-01  0.80113864561E-01  0.51100000000E-03 0. -1.
</event>
<event>
 8    1  0.2837913E+004  0.1043930E+01  0.7957747E-01            NaN
         13   -1    0    0    0    0  0.00000000000E+00  0.00000000000E+00  0.74505805969E-08  0.10566000000E+00  0.10566000000E+00 0. -1.
     999900   -1    0    0    0    0 -0.00000000000E+00 -0.00000000000E+00 -0.74505805969E-08  0.93827000000E+00  0.93827000000E+00 0.  1.
     999902    2    1    2    0    0  0.10957169693E-01  0.62792625290E-02 -0.54886905496E-02  0.10301599445E+01  0.10300679088E+01 0.  0.
     999903    2    3    3    0    0  0.16777399649E-02  0.86896155120E-01 -0.10241451604E+00  0.14112687037E+00  0.43293231082E-01 0.  0.
         14    1    1    2    0    0 -0.10957169693E-01 -0.62792625290E-02  0.54886905496E-02  0.13770055538E-01  0.00000000000E+00 0.  1.
     999901    1    3    3    0    0  0.92794297278E-02 -0.80616892591E-01  0.96925825491E-01  0.88903307409E+00  0.88000000000E+00 0. -1.
        -11    1    4    4    0    0 -0.26558733033E-02  0.77956243521E-01 -0.62391018252E-01  0.99885583777E-01  0.51100000000E-03 0. -1.
         11    1    4    4    0    0  0.43336132683E-02  0.89399115996E-02 -0.40023497789E-01  0.41241286590E-01  0.51100000000E-03 0.  1.
</event>
<event>
 8    1  0.2837913E+004  0.1043930E+01  0.7957747E-01            NaN
         13   -1    0    0    0    0  0.00000000000E+00  0.00000000000E+00  0.74505805969E-08  0.10566000000E+00  0.10566000000E+00 0.  1.
     999900   -1    0    0    0    0 -0.00000000000E+00 -0.00000000000E+00 -0.74505805969E-08  0.93827000000E+00  0.93827000000E+00 0.  1.
     999902    2    1    2    0    0 -0.58485556217E-02 -0.45276382729E-02  0.11884315216E-01  0.10299320695E+01  0.10298369413E+01 0.  0.
     999903    2    3    3    0    0 -0.71781891211E-01  0.17098188380E-01  0.11175400530E+00  0.14156906026E+00  0.45911362108E-01 0.  0.
         14    1    1    2    0    0  0.58485556217E-02  0.45276382729E-02 -0.11884315216E-01  0.13997930538E-01  0.00000000000E+00 0. -1.
     999901    1    3    3    0    0  0.65933335590E-01 -0.21625826653E-01 -0.99869690084E-01  0.88836300920E+00  0.88000000000E+00 0.  1.
        -11    1    4    4    0    0 -0.88772182241E-02  0.82055055478E-02  0.55204986245E-01  0.56515369167E-01  0.51100000000E-03 0.  1.
         11    1    4    4    0    0 -0.62904672987E-01  0.88926828320E-02  0.56549019055E-01  0.85053691094E-01  0.51100000000E-03 0. -1.
</event>
<event>
 8    1  0.2837913E+004  0.1043930E+01  0.7957747E-01            NaN
         13   -1    0    0    0    0  0.00000000000E+00  0.00000000000E+00  0.74505805969E-08  0.10566000000E+00  0.10566000000E+00 0.  1.
     999900   -1    0    0    0    0 -0.00000000000E+00 -0.00000000000E+00 -0.74505805969E-08  0.93827000000E+00  0.93827000000E+00 0. -1.
     999902    2    1    2    0    0 -0.22442477188E-02  0.15859436928E-02 -0.13919730844E-01  0.10297415973E+01  0.10296438444E+01 0.  0.
     999903    2    3    3    0    0  0.12977977924E+00  0.20196393123E-01 -0.14342107222E-01  0.13969841241E+00  0.45379125104E-01 0.  0.
         14    1    1    2    0    0  0.22442477188E-02 -0.15859436928E-02  0.13919730844E-01  0.14188402728E-01  0.00000000000E+00 0.  1.
     999901    1    3    3    0    0 -0.13202402696E+00 -0.18610449430E-01  0.42237637863E-03  0.89004318486E+00  0.88000000000E+00 0. -1.
        -11    1    4    4    0    0  0.51766783827E-01 -0.14222312342E-01 -0.50883387503E-02  0.53927974080E-01  0.51100000000E-03 0. -1.
         11    1    4    4    0    0  0.78012995411E-01  0.34418705465E-01 -0.92537684719E-02  0.85770438327E-01  0.51100000000E-03 0.  1.
</event>
<event>
 8    1  0.2837913E+004  0.1043930E+01  0.7957747E-01            NaN
         13   -1    0    0    0    0  0.00000000000E+00  0.00000000000E+00  0.74505805969E-08  0.10566000000E+00  0.10566000000E+00 0.  1.
     999900   -1    0    0    0    0 -0.00000000000E+00 -0.00000000000E+00 -0.74505805969E-08  0.93827000000E+00  0.93827000000E+00 0.  1.
     999902    2    1    2    0    0  0.10846334891E-03  0.13867833506E-01  0.26477579296E-02  0.10298112468E+01  0.10297144579E+01 0.  0.
     999903    2    3    3    0    0 -0.95575776089E-01 -0.73870156873E-01 -0.50608110927E-01  0.13869418589E+00  0.45643918082E-01 0.  0.
         14    1    1    2    0    0 -0.10846334891E-03 -0.13867833506E-01 -0.26477579296E-02  0.14118753221E-01  0.00000000000E+00 0.  1.
     999901    1    3    3    0    0  0.95684239438E-01  0.87737990379E-01  0.53255868857E-01  0.89111706088E+00  0.88000000000E+00 0. -1.
        -11    1    4    4    0    0 -0.60713570044E-01 -0.18097935229E-01 -0.25219228400E-01  0.68190493833E-01  0.51100000000E-03 0. -1.
         11    1    4    4    0    0 -0.34862206045E-01 -0.55772221643E-01 -0.25388882527E-01  0.70503692062E-01  0.51100000000E-03 0.  1.
</event>
<event>
 8    1  0.2837913E+004  0.1043930E+01  0.7957747E-01            NaN
         13   -1    0    0    0    0  0.00000000000E+00  0.00000000000E+00  0.74505805969E-08  0.10566000000E+00  0.10566000000E+00 0. -1.
     999900   -1    0    0    0    0 -0.00000000000E+00 -0.00000000000E+00 -0.74505805969E-08  0.93827000000E+00  0.93827000000E+00 0.  1.
     999902    2    1    2    0    0 -0.13697506943E-01  0.10509073999E-03  0.49106686333E-02  0.10293784569E+01  0.10292755997E+01 0.  0.
     999903    2    3    3    0    0 -0.49534365859E-02  0.97935491984E-01 -0.87980656543E-01  0.13905489522E+00  0.44494615787E-01 0.  0.
         14    1    1    2    0    0  0.13697506943E-01 -0.10509073999E-03 -0.49106686333E-02  0.14551543112E-01  0.00000000000E+00 0.  1.
     999901    1    3    3    0    0 -0.87440703567E-02 -0.97830401244E-01  0.92891325176E-01  0.89032356167E+00  0.88000000000E+00 0. -1.
        -11    1    4    4    0    0  0.12454088702E-01  0.11439163775E-01 -0.26775661733E-01  0.31672637647E-01  0.51100000000E-03 0.  1.
         11    1    4    4    0    0 -0.17407525288E-01  0.86496328208E-01 -0.61204994810E-01  0.10738225757E+00  0.51100000000E-03 0. -1.
</event>
<event>
 8    1  0.2837913E+004  0.1043930E+01  0.7957747E-01            NaN
         13   -1    0    0    0    0  0.00000000000E+00  0.00000000000E+00  0.74505805969E-08  0.10566000000E+00  0.10566000000E+00 0. -1.
     999900   -1    0    0    0    0 -0.00000000000E+00 -0.00000000000E+00 -0.74505805969E-08  0.93827000000E+00  0.93827000000E+00 0.  1.
     999902    2    1    2    0    0  0.10710557461E-01  0.74487166792E-02 -0.40189181085E-02  0.10302789515E+01  0.10301885104E+01 0.  0.
     999903    2    3    3    0    0 -0.42878192264E-01 -0.83918787967E-01  0.89743660625E-01  0.13898147248E+00  0.48795724460E-01 0.  0.
         14    1    1    2    0    0 -0.10710557461E-01 -0.74487166792E-02  0.40189181085E-02  0.13651048460E-01  0.00000000000E+00 0. -1.
     999901    1    3    3    0    0  0.53588749725E-01  0.91367504646E-01 -0.93762578734E-01  0.89129747906E+00  0.88000000000E+00 0.  1.
        -11    1    4    4    0    0 -0.35985292631E-01 -0.18805627104E-01  0.36145905247E-01  0.54363411258E-01  0.51100000000E-03 0.  1.
         11    1    4    4    0    0 -0.68928996328E-02 -0.65113160863E-01  0.53597755378E-01  0.84618061225E-01  0.51100000000E-03 0. -1.
</event>
<event>
 8    1  0.2837913E+004  0.1043930E+01  0.7957747E-01            NaN
         13   -1    0    0    0    0  0.00000000000E+00  0.00000000000E+00  0.74505805969E-08  0.10566000000E+00  0.10566000000E+00 0.  1.
     999900   -1    0    0    0    0 -0.00000000000E+00 -0.00000000000E+00 -0.74505805969E-08  0.93827000000E+00  0.93827000000E+00 0. -1.
     999902    2    1    2    0    0  0.60038413571E-02  0.11268309123E-01  0.54714423663E-02  0.10300390827E+01  0.10299454133E+01 0.  0.
     999903    2    3    3    0    0  0.12127993819E+00  0.57407121594E-01  0.62145973384E-02  0.14132207444E+00  0.43919317929E-01 0.  0.
         14    1    1    2    0    0 -0.60038413571E-02 -0.11268309123E-01 -0.54714423663E-02  0.13890917288E-01  0.00000000000E+00 0. -1.
     999901    1    3    3    0    0 -0.11527609683E+00 -0.46138812471E-01 -0.74315497211E-03  0.88871700827E+00  0.88000000000E+00 0. -1.
        -11    1    4    4    0    0  0.10966138938E+00  0.38416640663E-01  0.15439884046E-01  0.11721821421E+00  0.51100000000E-03 0.  1.
         11    1    4    4    0    0  0.11618548803E-01  0.18990480931E-01 -0.92252867074E-02  0.24103860232E-01  0.51100000000E-03 0. -1.
</event>
<event>
 8    1  0.2837913E+004  0.1043930E+01  0.7957747E-01            NaN
         13   -1    0    0    0    0  0.00000000000E+00  0.00000000000E+00  0.74505805969E-08  0.10566000000E+00  0.10566000000E+00 0. -1.
     999900   -1    0    0    0    0 -0.00000000000E+00 -0.00000000000E+00 -0.74505805969E-08  0.93827000000E+00  0.93827000000E+00 0.  1.
     999902    2    1    2    0    0  0.19962397395E-02 -0.10636923760E-01 -0.88288139233E-02  0.10299630005E+01  0.10298682951E+01 0.  0.
     999903    2    3    3    0    0 -0.10683382273E+00  0.52186280370E-01 -0.58329738033E-01  0.13965907543E+00  0.44333119390E-01 0.  0.
         14    1    1    2    0    0 -0.19962397395E-02  0.10636923760E-01  0.88288139233E-02  0.13966999516E-01  0.00000000000E+00 0. -1.
     999901    1    3    3    0    0  0.10883006247E+00 -0.62823204130E-01  0.49500924110E-01  0.89030392505E+00  0.88000000000E+00 0. -1.
        -11    1    4    4    0    0 -0.49375186101E-01  0.14445774436E-02 -0.30764567084E-01  0.58195493944E-01  0.51100000000E-03 0.  1.
         11    1    4    4    0    0 -0.57458636625E-01  0.50741702927E-01 -0.27565170949E-01  0.81463581490E-01  0.51100000000E-03 0. -1.
</event>
<event>
 8    1  0.2837913E+004  0.1043930E+01  0.7957747E-01            NaN
         13   -1    0    0    0    0  0.00000000000E+00  0.00000000000E+00  0.74505805969E-08  0.10566000000E+00  0.10566000000E+00 0.  1.
     999900   -1    0    0    0    0 -0.00000000000E+00 -0.00000000000E+00 -0.74505805969E-08  0.93827000000E+00  0.93827000000E+00 0.  1.
     999902    2    1    2    0    0 -0.88655108491E-02  0.45494389088E-02  0.99764633372E-02  0.10298294859E+01  0.10297329487E+01 0.  0.
     999903    2    3    3    0    0  0.80768239882E-01  0.59057208007E-02  0.10577735567E+00  0.14010264033E+00  0.43376430736E-01 0.  0.
         14    1    1    2    0    0  0.88655108491E-02 -0.45494389088E-02 -0.99764633372E-02  0.14100514094E-01  0.00000000000E+00 0. -1.
     999901    1    3    3    0    0 -0.89633750731E-01 -0.13562818919E-02 -0.95800892329E-01  0.88972684558E+00  0.88000000000E+00 0.  1.
        -11    1    4    4    0    0  0.66195149930E-01  0.16838391736E-01  0.99772230619E-01  0.12091355769E+00  0.51100000000E-03 0. -1.
         11    1    4    4    0    0  0.14573089952E-01 -0.10932670935E-01  0.60051250478E-02  0.19189082635E-01  0.51100000000E-03 0.  1.
</event>
<event>
 8    1  0.2837913E+004  0.1043930E+01  0.7957747E-01            NaN
         13   -1    0    0    0    0  0.00000000000E+00  0.00000000000E+00  0.74505805969E-08  0.10566000000E+00  0.10566000000E+00 0. -1.
     999900   -1    0    0    0    0 -0.00000000000E+00 -0.00000000000E+00 -0.74505805969E-08  0.93827000000E+00  0.93827000000E+00 0.  1.
     999902    2    1    2    0    0  0.23154935540E-02  0.10599693687E-01 -0.78588001709E-02  0.10305331438E+01  0.10304460610E+01 0.  0.
     999903    2    3    3    0    0 -0.50913302769E-01 -0.75519949041E-01 -0.96405457794E-01  0.14031384034E+00  0.45809763125E-01 0.  0.
         14    1    1    2    0    0 -0.23154935540E-02 -0.10599693687E-01  0.78588001709E-02  0.13396856227E-01  0.00000000000E+00 0. -1.
     999901    1    3    3    0    0  0.53228796323E-01  0.86119642728E-01  0.88546657623E-01  0.89021930343E+00  0.88000000000E+00 0. -1.
        -11    1    4    4    0    0 -0.17657325103E-01 -0.63724619557E-01 -0.55874271478E-01  0.86572533760E-01  0.51100000000E-03 0.  1.
         11    1    4    4    0    0 -0.33255977666E-01 -0.11795329484E-01 -0.40531186315E-01  0.53741306583E-01  0.51100000000E-03 0. -1.
</event>
<event>
 8    1  0.2837913E+004  0.1043930E+01  0.7957747E-01            NaN
         13   -1    0    0    0    0  0.00000000000E+00  0.00000000000E+00  0.74505805969E-08  0.10566000000E+00  0.10566000000E+00 0.  1.
     999900   -1    0    0    0    0 -0.00000000000E+00 -0.00000000000E+00 -0.74505805969E-08  0.93827000000E+00  0.93827000000E+00 0.  1.
     999902    2    1    2    0    0 -0.16035823812E-01 -0.12974040849E-02 -0.53178564848E-02  0.10269856647E+01  0.10268458720E+01 0.  0.
     999903    2    3    3    0    0 -0.77330296029E-02  0.36368078948E-02  0.12477906651E+00  0.13736861659E+00  0.56809288554E-01 0.  0.
         14    1    1    2    0    0  0.16035823812E-01  0.12974040849E-02  0.53178564848E-02  0.16944335345E-01  0.00000000000E+00 0.  1.
     999901    1    3    3    0    0 -0.83027942091E-02 -0.49342119798E-02 -0.13009692299E+00  0.88961704807E+00  0.88000000000E+00 0.  1.
        -11    1    4    4    0    0 -0.18948056562E-01  0.21905443532E-01  0.36904074422E-01  0.46915340069E-01  0.51100000000E-03 0.  1.
         11    1    4    4    0    0  0.11215026960E-01 -0.18268635637E-01  0.87874992087E-01  0.90453276519E-01  0.51100000000E-03 0. -1.
</event>
<event>
 8    1  0.2837913E+004  0.1043930E+01  0.7957747E-01            NaN
         13   -1    0    0    0    0  0.00000000000E+00  0.00000000000E+00  0.74505805969E-08  0.10566000000E+00  0.10566000000E+00 0.  1.
     999900   -1    0    0    0    0 -0.00000000000E+00 -0.00000000000E+00 -0.74505805969E-08  0.93827000000E+00  0.93827000000E+00 0.  1.
     999902    2    1    2    0    0  0.29098541726E-02  0.17414252900E-02  0.11531337897E-01  0.10319103674E+01  0.10318403631E+01 0.  0.
     999903    2    3    3    0    0  0.13282449882E-01 -0.13237540429E+00  0.18270146564E-01  0.14166302750E+00  0.45110353223E-01 0.  0.
         14    1    1    2    0    0 -0.29098541726E-02 -0.17414252900E-02 -0.11531337897E-01  0.12019632567E-01  0.00000000000E+00 0. -1.
     999901    1    3    3    0    0 -0.10372595710E-01  0.13411682958E+00 -0.67388086663E-02  0.89024733993E+00  0.88000000000E+00 0. -1.
        -11    1    4    4    0    0  0.30309095388E-02 -0.17467254675E-01  0.19408836052E-01  0.26291737037E-01  0.51100000000E-03 0. -1.
         11    1    4    4    0    0  0.10251540344E-01 -0.11490814962E+00 -0.11386894884E-02  0.11537129046E+00  0.51100000000E-03 0.  1.
</event>
<event>
 8    1  0.2837913E+004  0.1043930E+01  0.7957747E-01            NaN
         13   -1    0    0    0    0  0.00000000000E+00  0.00000000000E+00  0.74505805969E-08  0.10566000000E+00  0.10566000000E+00 0.  1.
     999900   -1    0    0    0    0 -0.00000000000E+00 -0.00000000000E+00 -0.74505805969E-08  0.93827000000E+00  0.93827000000E+00 0.  1.
     999902    2    1    2    0    0 -0.13496814083E-01  0.86234186211E-03  0.15595814782E-02  0.10303160396E+01  0.10302260924E+01 0.  0.
     999903    2    3    3    0    0  0.20405866506E-01 -0.10582393207E+00  0.77137716974E-01  0.14001080689E+00  0.45140831622E-01 0.  0.
         14    1    1    2    0    0  0.13496814083E-01 -0.86234186211E-03 -0.15595814782E-02  0.13613960418E-01  0.00000000000E+00 0. -1.
     999901    1    3    3    0    0 -0.33902680589E-01  0.10668627393E+00 -0.75578135496E-01  0.89030523269E+00  0.88000000000E+00 0.  1.
        -11    1    4    4    0    0 -0.14010400011E-01 -0.22875723673E-01  0.14293300606E-01  0.30399829033E-01  0.51100000000E-03 0.  1.
         11    1    4    4    0    0  0.34416266517E-01 -0.82948208394E-01  0.62844416369E-01  0.10961097786E+00  0.51100000000E-03 0. -1.
</event>
<event>
 8    1  0.2837913E+004  0.1043930E+01  0.7957747E-01            NaN
         13   -1    0    0    0    0  0.00000000000E+00  0.00000000000E+00  0.74505805969E-08  0.10566000000E+00  0.10566000000E+00 0. -1.
     999900   -1    0    0    0    0 -0.00000000000E+00 -0.00000000000E+00 -0.74505805969E-08  0.93827000000E+00  0.93827000000E+00 0.  1.
     999902    2    1    2    0    0  0.10649532124E-01 -0.24668375660E-02 -0.85330779419E-02  0.10300623671E+01  0.10299690136E+01 0.  0.
     999903    2    3    3    0    0  0.10637952328E+00 -0.33185471348E-02 -0.81878698376E-01  0.14183686838E+00  0.45672313882E-01 0.  0.
         14    1    1    2    0    0 -0.10649532124E-01  0.24668375660E-02  0.85330779419E-02  0.13867632862E-01  0.00000000000E+00 0.  1.
     999901    1    3    3    0    0 -0.95729991152E-01  0.85170956878E-03  0.73345620434E-01  0.88822549876E+00  0.88000000000E+00 0. -1.
        -11    1    4    4    0    0  0.23784962642E-01  0.29221813680E-02  0.18737580991E-02  0.24042372642E-01  0.51100000000E-03 0. -1.
         11    1    4    4    0    0  0.82594560634E-01 -0.62407285028E-02 -0.83752456475E-01  0.11779449573E+00  0.51100000000E-03 0.  1.
</event>
<event>
 8    1  0.2837913E+004  0.1043930E+01  0.7957747E-01            NaN
         13   -1    0    0    0    0  0.00000000000E+00  0.00000000000E+00  0.74505805969E-08  0.10566000000E+00  0.10566000000E+00 0. -1.
     999900   -1    0    0    0    0 -0.00000000000E+00 -0.00000000000E+00 -0.74505805969E-08  0.93827000000E+00  0.93827000000E+00 0. -1.
     999902    2    1    2    0    0  0.17769500680E-02  0.11933789241E-01  0.27034470767E-02  0.10315654740E+01  0.10314913696E+01 0.  0.
     999903    2    3    3    0    0 -0.70547304637E-01 -0.85625063875E-01 -0.72677371017E-01  0.14003263928E+00  0.44928454801E-01 0.  0.
         14    1    1    2    0    0 -0.17769500680E-02 -0.11933789241E-01 -0.27034470767E-02  0.12364526003E-01  0.00000000000E+00 0. -1.
     999901    1    3    3    0    0  0.72324254705E-01  0.97558853116E-01  0.75380818094E-01  0.89153283472E+00  0.88000000000E+00 0.  1.
        -11    1    4    4    0    0  0.38512953612E-02 -0.20350619160E-01 -0.12909928866E-01  0.24411217923E-01  0.51100000000E-03 0. -1.
         11    1    4    4    0    0 -0.74398599999E-01 -0.65274444716E-01 -0.59767442151E-01  0.11562142136E+00  0.51100000000E-03 0.  1.
</event>
<event>
 8    1  0.2837913E+004  0.1043930E+01  0.7957747E-01            NaN
         13   -1    0    0    0    0  0.00000000000E+00  0.00000000000E+00  0.74505805969E-08  0.10566000000E+00  0.10566000000E+00 0.  1.
     999900   -1    0    0    0    0 -0.00000000000E+00 -0.00000000000E+00 -0.74505805969E-08  0.93827000000E+00  0.93827000000E+00 0.  1.
     999902    2    1    2    0    0  0.10052805575E-01 -0.86572527398E-02  0.42357687647E-02  0.10300034548E+01  0.10299093009E+01 0.  0.
     999903    2    3    3    0    0  0.11234944944E+00  0.39693587936E-01  0.61537380128E-01  0.14091072519E+00  0.43255099214E-01 0.  0.
         14    1    1    2    0    0 -0.10052805575E-01  0.86572527398E-02 -0.42357687647E-02  0.13926545227E-01  0.00000000000E+00 0.  1.
     999901    1    3    3    0    0 -0.10229664386E+00 -0.48350840676E-01 -0.57301611364E-01  0.88909272959E+00  0.88000000000E+00 0.  1.
        -11    1    4    4    0    0  0.66568164408E-01  0.29142132762E-01  0.59434884907E-01  0.93879449719E-01  0.51100000000E-03 0. -1.
         11    1    4    4    0    0  0.45781285027E-01  0.10551455174E-01  0.21024952215E-02  0.47031275468E-01  0.51100000000E-03 0.  1.
</event>
<event>
 8    1  0.2837913E+004  0.1043930E+01  0.7957747E-01            NaN
         13   -1    0    0    0    0  0.00000000000E+00  0.00000000000E+00  0.74505805969E-08  0.10566000000E+00  0.10566000000E+00 0.  1.
     999900   -1    0    0    0    0 -0.00000000000E+00 -0.00000000000E+00 -0.74505805969E-08  0.93827000000E+00  0.93827000000E+00 0. -1.
     999902    2    1    2    0    0  0.97299317712E-02 -0.59374258966E-02 -0.82206270321E-02  0.10298764130E+01  0.10297805216E+01 0.  0.
     999903    2    3    3    0    0  0.13311270616E+00 -0.15909790021E-01 -0.12716698769E-02  0.14118577782E+00  0.44268417116E-01 0.  0.
         14    1    1    2    0    0 -0.97299317712E-02  0.59374258966E-02  0.82206270321E-02  0.14053586992E-01  0.00000000000E+00 0.  1.
     999901    1    3    3    0    0 -0.12338277439E+00  0.99723641247E-02 -0.69489571552E-02  0.88869063519E+00  0.88000000000E+00 0.  1.
        -11    1    4    4    0    0  0.10185930724E+00 -0.21543470442E-01 -0.17410256462E-01  0.10555954595E+00  0.51100000000E-03 0.  1.
         11    1    4    4    0    0  0.31253398922E-01  0.56336804210E-02  0.16138586585E-01  0.35626231869E-01  0.51100000000E-03 0. -1.
</event>
<event>
 8    1  0.2837913E+004  0.1043930E+01  0.7957747E-01            NaN
         13   -1    0    0    0    0  0.00000000000E+00  0.00000000000E+00  0.74505805969E-08  0.10566000000E+00  0.10566000000E+00 0. -1.
     999900   -1    0    0    0    0 -0.00000000000E+00 -0.00000000000E+00 -0.74505805969E-08  0.93827000000E+00  0.93827000000E+00 0. -1.
     999902    2    1    2    0    0  0.15704617158E-01 -0.27105845807E-02 -0.89336373404E-02  0.10256600207E+01  0.10254972871E+01 0.  0.
     999903    2    3    3    0    0  0.98177139643E-01 -0.78542410280E-01 -0.35924861691E-01  0.13814624108E+00  0.44565987889E-01 0.  0.
         14    1    1    2    0    0 -0.15704617158E-01  0.27105845807E-02  0.89336373404E-02  0.18269979337E-01  0.00000000000E+00 0. -1.
     999901    1    3    3    0    0 -0.82472522486E-01  0.75831825699E-01  0.26991224351E-01  0.88751377958E+00  0.88000000000E+00 0.  1.
        -11    1    4    4    0    0  0.56050429939E-01 -0.16597481840E-01 -0.14530377288E-01  0.60237198515E-01  0.51100000000E-03 0. -1.
         11    1    4    4    0    0  0.42126709704E-01 -0.61944928440E-01 -0.21394484403E-01  0.77909042568E-01  0.51100000000E-03 0.  1.
</event>
<event>
 8    1  0.2837913E+004  0.1043930E+01  0.7957747E-01            NaN
         13   -1    0    0    0    0  0.00000000000E+00  0.00000000000E+00  0.74505805969E-08  0.10566000000E+00  0.10566000000E+00 0.  1.
     999900   -1    0    0    0    0 -0.00000000000E+00 -0.00000000000E+00 -0.74505805969E-08  0.93827000000E+00  0.93827000000E+00 0. -1.
     999902    2    1    2    0    0  0.54673150726E-02  0.15655397273E-02 -0.12408010174E-01  0.10302807815E+01  0.10301903647E+01 0.  0.
     999903    2    3    3    0    0 -0.53631953097E-01 -0.12162199526E+00 -0.33428797175E-03  0.13965534563E+00  0.42839324135E-01 0.  0.
         14    1    1    2    0    0 -0.54673150726E-02 -0.15655397273E-02  0.12408010174E-01  0.13649218484E-01  0.00000000000E+00 0.  1.
     999901    1    3    3    0    0  0.59099268169E-01  0.12318753498E+00 -0.12073722202E-01  0.89062543588E+00  0.88000000000E+00 0. -1.
        -11    1    4    4    0    0 -0.37412698823E-01 -0.10224938216E+00 -0.15810199358E-01  0.11002213282E+00  0.51100000000E-03 0.  1.
         11    1    4    4    0    0 -0.16219254274E-01 -0.19372613092E-01  0.15475911386E-01  0.29633212810E-01  0.51100000000E-03 0. -1.
</event>
<event>
 8    1  0.2837913E+004  0.1043930E+01  0.7957747E-01            NaN
         13   -1    0    0    0    0  0.00000000000E+00  0.00000000000E+00  0.74505805969E-08  0.10566000000E+00  0.10566000000E+00 0. -1.
     999900   -1    0    0    0    0 -0.00000000000E+00 -0.00000000000E+00 -0.74505805969E-08  0.93827000000E+00  0.93827000000E+00 0. -1.
     999902    2    1    2    0    0  0.10307722285E-01 -0.76957695164E-03  0.11240402809E-01  0.10286595042E+01  0.10285461523E+01 0.  0.
     999903    2    3    3    0    0  0.38352770379E-01 -0.42702864710E-01  0.11974166919E+00  0.14056184617E+00  0.46098759303E-01 0.  0.
         14    1    1    2    0    0 -0.10307722285E-01  0.76957695164E-03 -0.11240402809E-01  0.15270495824E-01  0.00000000000E+00 0. -1.
     999901    1    3    3    0    0 -0.28045048094E-01  0.41933287758E-01 -0.10850126638E+00  0.88809765800E+00  0.88000000000E+00 0. -1.
        -11    1    4    4    0    0  0.15991847520E-01 -0.45743865538E-01  0.62908844361E-01  0.79410479418E-01  0.51100000000E-03 0.  1.
         11    1    4    4    0    0  0.22360922859E-01  0.30410008285E-02  0.56832824828E-01  0.61151366755E-01  0.51100000000E-03 0. -1.
</event>
<event>
 7    1  0.2837913E+004  0.1043930E+01  0.7957747E-01            NaN
         13   -1    0    0    0    0  0.00000000000E+00  0.00000000000E+00  0.74505805969E-08  0.10566000000E+00  0.10566000000E+00 0. -1.
     999900   -1    0    0    0    0 -0.00000000000E+00 -0.00000000000E+00 -0.74505805969E-08  0.93827000000E+00  0.93827000000E+00 0.  1.
     999903    2    1    2    0    0  0.40736112680E-01 -0.29657381567E-01  0.74294846734E-01  0.10013418259E+00  0.44363713933E-01 0.  0.
         14    1    1    2    0    0  0.35534687555E-01  0.11543387079E-01 -0.46797854443E-01  0.59883244613E-01  0.00000000000E+00 0.  1.
     999901    1    1    2    0    0 -0.76270800236E-01  0.18113994487E-01 -0.27496992290E-01  0.88391257280E+00  0.88000000000E+00 0.  1.
        -11    1    3    3    0    0  0.28619152921E-01 -0.48444467284E-04  0.13974155566E-01  0.31852729954E-01  0.51100000000E-03 0. -1.
         11    1    3    3    0    0  0.12116959760E-01 -0.29608937099E-01  0.60320691168E-01  0.68281452635E-01  0.51100000000E-03 0.  1.
</event>
<event>
 8    1  0.2837913E+004  0.1043930E+01  0.7957747E-01            NaN
         13   -1    0    0    0    0  0.00000000000E+00  0.00000000000E+00  0.74505805969E-08  0.10566000000E+00  0.10566000000E+00 0.  1.
     999900   -1    0    0    0    0 -0.00000000000E+00 -0.00000000000E+00 -0.74505805969E-08  0.93827000000E+00  0.93827000000E+00 0. -1.
     999902    2    1    2    0    0 -0.21147504745E-02  0.11052190939E-01 -0.88361392924E-02  0.10296226434E+01  0.10295232331E+01 0.  0.
     999903    2    3    3    0    0 -0.45802448365E-01  0.26380341791E-01  0.12030048959E+00  0.13899374425E+00  0.45312983091E-01 0.  0.
         14    1    1    2    0    0  0.21147504745E-02 -0.11052190939E-01  0.88361392924E-02  0.14307356559E-01  0.00000000000E+00 0. -1.
     999901    1    3    3    0    0  0.43687697891E-01 -0.15328150852E-01 -0.12913662888E+00  0.89062889919E+00  0.88000000000E+00 0. -1.
        -11    1    4    4    0    0  0.83903645919E-02  0.97698320543E-02  0.24362418112E-01  0.27561501657E-01  0.51100000000E-03 0. -1.
         11    1    4    4    0    0 -0.54192812957E-01  0.16610509736E-01  0.95938071475E-01  0.11143224259E+00  0.51100000000E-03 0.  1.
</event>
<event>
 8    1  0.2837913E+004  0.1043930E+01  0.7957747E-01            NaN
         13   -1    0    0    0    0  0.00000000000E+00  0.00000000000E+00  0.74505805969E-08  0.10566000000E+00  0.10566000000E+00 0.  1.
     999900   -1    0    0    0    0 -0.00000000000E+00 -0.00000000000E+00 -0.74505805969E-08  0.93827000000E+00  0.93827000000E+00 0. -1.
     999902    2    1    2    0    0 -0.86605189810E-02 -0.10716624028E-01  0.51136252772E-02  0.10292330689E+01  0.10291281312E+01 0.  0.
     999903    2    3    3    0    0  0.43997078957E-01 -0.88089149854E-01  0.89848758317E-01  0.14022273538E+00  0.43522119299E-01 0.  0.
         14    1    1    2    0    0  0.86605189810E-02  0.10716624028E-01 -0.51136252772E-02  0.14696931076E-01  0.00000000000E+00 0. -1.
     999901    1    3    3    0    0 -0.52657597938E-01  0.77372525826E-01 -0.84735133040E-01  0.88901033354E+00  0.88000000000E+00 0. -1.
        -11    1    4    4    0    0  0.26445620059E-01 -0.84846802754E-01  0.67412380282E-01  0.11154837916E+00  0.51100000000E-03 0.  1.
         11    1    4    4    0    0  0.17551458899E-01 -0.32423470994E-02  0.22436378035E-01  0.28674356218E-01  0.51100000000E-03 0. -1.
</event>
<event>
 8    1  0.2837913E+004  0.1043930E+01  0.7957747E-01            NaN
         13   -1    0    0    0    0  0.00000000000E+00  0.00000000000E+00  0.74505805969E-08  0.10566000000E+00  0.10566000000E+00 0. -1.
     999900   -1    0    0    0    0 -0.00000000000E+00 -0.00000000000E+00 -0.74505805969E-08  0.93827000000E+00  0.93827000000E+00 0. -1.
     999902    2    1    2    0    0  0.15737020234E-01  0.36762767386E-02  0.18528220681E-01  0.10193441549E+01  0.10190476154E+01 0.  0.
     999903    2    3    3    0    0  0.65079528810E-01 -0.49638572412E-01 -0.89435461556E-01  0.12977498225E+00  0.46298070073E-01 0.  0.
         14    1    1    2    0    0 -0.15737020234E-01 -0.36762767386E-02 -0.18528220681E-01  0.24585845076E-01  0.00000000000E+00 0.  1.
     999901    1    3    3    0    0 -0.49342508576E-01  0.53314849151E-01  0.10796368224E+00  0.88956917268E+00  0.88000000000E+00 0.  1.
        -11    1    4    4    0    0  0.19635753344E-01 -0.38609905751E-01 -0.24547796685E-01  0.49790993911E-01  0.51100000000E-03 0.  1.
         11    1    4    4    0    0  0.45443775466E-01 -0.11028666661E-01 -0.64887664871E-01  0.79983988337E-01  0.51100000000E-03 0. -1.
</event>
<event>
 8    1  0.2837913E+004  0.1043930E+01  0.7957747E-01            NaN
         13   -1    0    0    0    0  0.00000000000E+00  0.00000000000E+00  0.74505805969E-08  0.10566000000E+00  0.10566000000E+00 0.  1.
     999900   -1    0    0    0    0 -0.00000000000E+00 -0.00000000000E+00 -0.74505805969E-08  0.93827000000E+00  0.93827000000E+00 0. -1.
     999902    2    1    2    0    0  0.67869910066E-02 -0.10860219699E-01 -0.53004921013E-02  0.10300698833E+01  0.10299766316E+01 0.  0.
     999903    2    3    3    0    0 -0.74617105737E-01  0.70993499427E-01 -0.82050417284E-01  0.13921792627E+00  0.45183742531E-01 0.  0.
         14    1    1    2    0    0 -0.67869910066E-02  0.10860219699E-01  0.53004921013E-02  0.13860116715E-01  0.00000000000E+00 0.  1.
     999901    1    3    3    0    0  0.81404096744E-01 -0.81853719126E-01  0.76749925182E-01  0.89085195701E+00  0.88000000000E+00 0. -1.
        -11    1    4    4    0    0 -0.49339919745E-01  0.63676554084E-01 -0.40834955057E-01  0.90315479825E-01  0.51100000000E-03 0.  1.
         11    1    4    4    0    0 -0.25277185992E-01  0.73169453432E-02 -0.41215462226E-01  0.48902446446E-01  0.51100000000E-03 0. -1.
</event>
<event>
 8    1  0.2837913E+004  0.1043930E+01  0.7957747E-01            NaN
         13   -1    0    0    0    0  0.00000000000E+00  0.00000000000E+00  0.74505805969E-08  0.10566000000E+00  0.10566000000E+00 0. -1.
     999900   -1    0    0    0    0 -0.00000000000E+00 -0.00000000000E+00 -0.74505805969E-08  0.93827000000E+00  0.93827000000E+00 0.  1.
     999902    2    1    2    0    0 -0.45664056429E-02 -0.21892005372E-02  0.12857374911E-01  0.10301112899E+01  0.10300185983E+01 0.  0.
     999903    2    3    3    0    0  0.61601509817E-01  0.37351607789E-01  0.11260744535E+00  0.14112774386E+00  0.45240631334E-01 0.  0.
         14    1    1    2    0    0  0.45664056429E-02  0.21892005372E-02 -0.12857374911E-01  0.13818710110E-01  0.00000000000E+00 0.  1.
     999901    1    3    3    0    0 -0.66167915460E-01 -0.39540808326E-01 -0.99750070435E-01  0.88898354603E+00  0.88000000000E+00 0.  1.
        -11    1    4    4    0    0  0.67247541911E-01  0.29317312962E-01  0.87632008799E-01  0.11428633698E+00  0.51100000000E-03 0.  1.
         11    1    4    4    0    0 -0.56460320939E-02  0.80342948277E-02  0.24975436547E-01  0.26841406884E-01  0.51100000000E-03 0. -1.
</event>
<event>
 8    1  0.2837913E+004  0.1043930E+01  0.7957747E-01            NaN
         13   -1    0    0    0    0  0.00000000000E+00  0.00000000000E+00  0.74505805969E-08  0.10566000000E+00  0.10566000000E+00 0. -1.
     999900   -1    0    0    0    0 -0.00000000000E+00 -0.00000000000E+00 -0.74505805969E-08  0.93827000000E+00  0.93827000000E+00 0. -1.
     999902    2    1    2    0    0  0.12986621451E-01  0.33663066755E-02 -0.29458451118E-02  0.10301945582E+01  0.10301029878E+01 0.  0.
     999903    2    3    3    0    0 -0.98327877662E-01 -0.86167286931E-01 -0.93013385396E-02  0.13865231335E+00  0.45219202077E-01 0.  0.
         14    1    1    2    0    0 -0.12986621451E-01 -0.33663066755E-02  0.29458451118E-02  0.13735441775E-01  0.00000000000E+00 0. -1.
     999901    1    3    3    0    0  0.11131449911E+00  0.89533593606E-01  0.63554934278E-02  0.89154224487E+00  0.88000000000E+00 0.  1.
        -11    1    4    4    0    0 -0.25319364467E-01 -0.89032646232E-02 -0.17483253532E-01  0.32035349429E-01  0.51100000000E-03 0.  1.
         11    1    4    4    0    0 -0.73008513195E-01 -0.77264022307E-01  0.81819149924E-02  0.10661696392E+00  0.51100000000E-03 0. -1.
</event>
<event>
 8    1  0.2837913E+004  0.1043930E+01  0.7957747E-01            NaN
         13   -1    0    0    0    0  0.00000000000E+00  0.00000000000E+00  0.74505805969E-08  0.10566000000E+00  0.10566000000E+00 0. -1.
     999900   -1    0    0    0    0 -0.00000000000E+00 -0.00000000000E+00 -0.74505805969E-08  0.93827000000E+00  0.93827000000E+00 0.  1.
     999902    2    1    2    0    0  0.95080413722E-02  0.35451860240E-02 -0.92810785543E-02  0.10301782869E+01  0.10300864979E+01 0.  0.
     999903    2    3    3    0    0  0.10691888405E+00 -0.79396672601E-01  0.78985155047E-02  0.14076085809E+00  0.44897140618E-01 0.  0.
         14    1    1    2    0    0 -0.95080413722E-02 -0.35451860240E-02  0.92810785543E-02  0.13751713123E-01  0.00000000000E+00 0.  1.
     999901    1    3    3    0    0 -0.97410842677E-01  0.82941858625E-01 -0.17179594059E-01  0.88941742879E+00  0.88000000000E+00 0.  1.
        -11    1    4    4    0    0  0.33360646229E-01 -0.36564421757E-01 -0.16559072118E-01  0.52195341225E-01  0.51100000000E-03 0. -1.
         11    1    4    4    0    0  0.73558237821E-01 -0.42832250844E-01  0.24457587623E-01  0.88565516862E-01  0.51100000000E-03 0.  1.
</event>
<event>
 8    1  0.2837913E+004  0.1043930E+01  0.7957747E-01            NaN
         13   -1    0    0    0    0  0.00000000000E+00  0.00000000000E+00  0.74505805969E-08  0.10566000000E+00  0.10566000000E+00 0. -1.
     999900   -1    0    0    0    0 -0.00000000000E+00 -0.00000000000E+00 -0.74505805969E-08  0.93827000000E+00  0.93827000000E+00 0. -1.
     999902    2    1    2    0    0  0.93165026242E-02  0.10135098653E-01 -0.22392550160E-02  0.10299825375E+01  0.10298880987E+01 0.  0.
     999903    2    3    3    0    0 -0.12571807238E+00 -0.16090250785E-01  0.33029143455E-01  0.13859824033E+00  0.45327894407E-01 0.  0.
         14    1    1    2    0    0 -0.93165026242E-02 -0.10135098653E-01  0.22392550160E-02  0.13947462453E-01  0.00000000000E+00 0. -1.
     999901    1    3    3    0    0  0.13503457500E+00  0.26225349438E-01 -0.35268398471E-01  0.89138429722E+00  0.88000000000E+00 0. -1.
        -11    1    4    4    0    0 -0.11787600487E+00 -0.92562360523E-02  0.16961126549E-01  0.11945028826E+00  0.51100000000E-03 0. -1.
         11    1    4    4    0    0 -0.78420675095E-02 -0.68340147326E-02  0.16068016906E-01  0.19147952070E-01  0.51100000000E-03 0.  1.
</event>
<event>
 7    1  0.2837913E+004  0.1043930E+01  0.7957747E-01            NaN
         13   -1    0    0    0    0  0.00000000000E+00  0.00000000000E+00  0.74505805969E-08  0.10566000000E+00  0.10566000000E+00 0.  1.
     999900   -1    0    0    0    0 -0.00000000000E+00 -0.00000000000E+00 -0.74505805969E-08  0.93827000000E+00  0.93827000000E+00 0. -1.
     999903    2    1    2    0    0 -0.90093346021E-01 -0.10363953355E-01  0.16403015969E-01  0.10258823648E+00  0.45067336330E-01 0.  0.
         14    1    1    2    0    0  0.58848138542E-01 -0.13058463249E-01 -0.35043929847E-02  0.60381351778E-01  0.00000000000E+00 0. -1.
     999901    1    1    2    0    0  0.31245207479E-01  0.23422416605E-01 -0.12898622985E-01  0.88096041175E+00  0.88000000000E+00 0. -1.
        -11    1    3    3    0    0 -0.17022156655E-01 -0.11836710217E-01  0.20794084669E-01  0.29368632998E-01  0.51100000000E-03 0.  1.
         11    1    3    3    0    0 -0.73071189366E-01  0.14727568611E-02 -0.43910686999E-02  0.73219603477E-01  0.51100000000E-03 0. -1.
</event>
<event>
 8    1  0.2837913E+004  0.1043930E+01  0.7957747E-01            NaN
         13   -1    0    0    0    0  0.00000000000E+00  0.00000000000E+00  0.74505805969E-08  0.10566000000E+00  0.10566000000E+00 0.  1.
     999900   -1    0    0    0    0 -0.00000000000E+00 -0.00000000000E+00 -0.74505805969E-08  0.93827000000E+00  0.93827000000E+00 0.  1.
     999902    2    1    2    0    0  0.86898536538E-02 -0.19287617449E-01  0.17717211311E-01  0.10163360637E+01  0.10159614014E+01 0.  0.
     999903    2    3    3    0    0 -0.55436297541E-01 -0.10053428293E+00  0.40743127897E-01  0.12997080223E+00  0.45299909856E-01 0.  0.
         14    1    1    2    0    0 -0.86898536538E-02  0.19287617449E-01 -0.17717211311E-01  0.27593936290E-01  0.00000000000E+00 0. -1.
     999901    1    3    3    0    0  0.64126151195E-01  0.81246665481E-01 -0.23025916586E-01  0.88636526148E+00  0.88000000000E+00 0. -1.
        -11    1    4    4    0    0 -0.55064832372E-01 -0.67961705308E-01  0.42692856516E-01  0.97333808469E-01  0.51100000000E-03 0.  1.
         11    1    4    4    0    0 -0.37146516982E-03 -0.32572577621E-01 -0.19497286192E-02  0.32636993764E-01  0.51100000000E-03 0. -1.
</event>
<event>
 7    1  0.2837913E+004  0.1043930E+01  0.7957747E-01            NaN
         13   -1    0    0    0    0  0.00000000000E+00  0.00000000000E+00  0.74505805969E-08  0.10566000000E+00  0.10566000000E+00 0. -1.
     999900   -1    0    0    0    0 -0.00000000000E+00 -0.00000000000E+00 -0.74505805969E-08  0.93827000000E+00  0.93827000000E+00 0.  1.
     999903    2    1    2    0    0 -0.29929626004E-01  0.11099905646E+00  0.50827783940E-02  0.12254244044E+00  0.42121752379E-01 0.  0.
         14    1    1    2    0    0 -0.12555633473E-02  0.29559965704E-01 -0.23930879350E-02  0.29683242438E-01  0.00000000000E+00 0.  1.
     999901    1    1    2    0    0  0.31185189351E-01 -0.14055902217E+00 -0.26896904591E-02  0.89170431713E+00  0.88000000000E+00 0.  1.
        -11    1    3    3    0    0  0.74459030908E-02  0.45083246837E-01 -0.55148644287E-02  0.46028420230E-01  0.51100000000E-03 0. -1.
         11    1    3    3    0    0 -0.37375529095E-01  0.65915809626E-01  0.10597642823E-01  0.76514020206E-01  0.51100000000E-03 0.  1.
</event>
<event>
 8    1  0.2837913E+004  0.1043930E+01  0.7957747E-01            NaN
         13   -1    0    0    0    0  0.00000000000E+00  0.00000000000E+00  0.74505805969E-08  0.10566000000E+00  0.10566000000E+00 0.  1.
     999900   -1    0    0    0    0 -0.00000000000E+00 -0.00000000000E+00 -0.74505805969E-08  0.93827000000E+00  0.93827000000E+00 0. -1.
     999902    2    1    2    0    0  0.72930822976E-02 -0.11828263126E-01 -0.14619035043E-02  0.10299573832E+01  0.10298626011E+01 0.  0.
     999903    2    3    3    0    0  0.40696058793E-02  0.11424382034E-01  0.13174847037E+00  0.13962256978E+00  0.44606326351E-01 0.  0.
         14    1    1    2    0    0 -0.72930822976E-02  0.11828263126E-01  0.14619035043E-02  0.13972616785E-01  0.00000000000E+00 0.  1.
     999901    1    3    3    0    0  0.32234764183E-02 -0.23252645160E-01 -0.13321037387E+00  0.89033481344E+00  0.88000000000E+00 0. -1.
        -11    1    4    4    0    0 -0.20099710378E-01  0.71206330571E-02  0.69754249656E-01  0.72942568083E-01  0.51100000000E-03 0.  1.
         11    1    4    4    0    0  0.24169316257E-01  0.43037489768E-02  0.61994220712E-01  0.66680001697E-01  0.51100000000E-03 0. -1.
</event>
<event>
 8    1  0.2837913E+004  0.1043930E+01  0.7957747E-01            NaN
         13   -1    0    0    0    0  0.00000000000E+00  0.00000000000E+00  0.74505805969E-08  0.10566000000E+00  0.10566000000E+00 0.  1.
     999900   -1    0    0    0    0 -0.00000000000E+00 -0.00000000000E+00 -0.74505805969E-08  0.93827000000E+00  0.93827000000E+00 0.  1.
     999902    2    1    2    0    0 -0.13724231461E-01 -0.42558217773E-02  0.16790815249E-03  0.10295600751E+01  0.10294597872E+01 0.  0.
     999903    2    3    3    0    0  0.47889297432E-01  0.62156286065E-01 -0.10506535926E+00  0.13867240790E+00  0.45105634808E-01 0.  0.
         14    1    1    2    0    0  0.13724231461E-01  0.42558217773E-02 -0.16790815249E-03  0.14369924890E-01  0.00000000000E+00 0.  1.
     999901    1    3    3    0    0 -0.61613528893E-01 -0.66412107843E-01  0.10523326741E+00  0.89088766721E+00  0.88000000000E+00 0. -1.
        -11    1    4    4    0    0  0.50378995416E-01  0.30825576139E-01 -0.69474088641E-01  0.91187550888E-01  0.51100000000E-03 0. -1.
         11    1    4    4    0    0 -0.24896979840E-02  0.31330709926E-01 -0.35591270618E-01  0.47484857016E-01  0.51100000000E-03 0.  1.
</event>
<event>
 8    1  0.2837913E+004  0.1043930E+01  0.7957747E-01            NaN
         13   -1    0    0    0    0  0.00000000000E+00  0.00000000000E+00  0.74505805969E-08  0.10566000000E+00  0.10566000000E+00 0.  1.
     999900   -1    0    0    0    0 -0.00000000000E+00 -0.00000000000E+00 -0.74505805969E-08  0.93827000000E+00  0.93827000000E+00 0. -1.
     999902    2    1    2    0    0 -0.35356400532E-02  0.12707690409E-01 -0.44139495710E-02  0.10300206831E+01  0.10299267637E+01 0.  0.
     999903    2    3    3    0    0  0.44823081288E-01  0.61335989973E-01  0.10921703683E+00  0.14006828070E+00  0.43812667604E-01 0.  0.
         14    1    1    2    0    0  0.35356400532E-02 -0.12707690409E-01  0.44139495710E-02  0.13909316911E-01  0.00000000000E+00 0. -1.
     999901    1    3    3    0    0 -0.48358721342E-01 -0.48628299564E-01 -0.11363098640E+00  0.88995240239E+00  0.88000000000E+00 0. -1.
        -11    1    4    4    0    0  0.15426606707E-01  0.35853472955E-01  0.86780168559E-01  0.95155191627E-01  0.51100000000E-03 0.  1.
         11    1    4    4    0    0  0.29396474581E-01  0.25482517018E-01  0.22436868269E-01  0.44913089073E-01  0.51100000000E-03 0. -1.
</event>
<event>
 7    1  0.2837913E+004  0.1043930E+01  0.7957747E-01            NaN
         13   -1    0    0    0    0  0.00000000000E+00  0.00000000000E+00  0.74505805969E-08  0.10566000000E+00  0.10566000000E+00 0. -1.
     999900   -1    0    0    0    0 -0.00000000000E+00 -0.00000000000E+00 -0.74505805969E-08  0.93827000000E+00  0.93827000000E+00 0. -1.
     999903    2    1    2    0    0  0.72422651485E-01  0.66468250153E-01  0.25666813285E-03  0.10800831923E+00  0.44751116375E-01 0.  0.
         14    1    1    2    0    0 -0.18639568280E-02  0.39843506585E-01  0.23699740493E-01  0.46396735354E-01  0.00000000000E+00 0. -1.
     999901    1    1    2    0    0 -0.70558694657E-01 -0.10631175674E+00 -0.23956408626E-01  0.88952494542E+00  0.88000000000E+00 0. -1.
        -11    1    3    3    0    0  0.21931850807E-01  0.50369492959E-01 -0.18242911885E-02  0.54969819539E-01  0.51100000000E-03 0. -1.
         11    1    3    3    0    0  0.50490800678E-01  0.16098757194E-01  0.20809593214E-02  0.53038499686E-01  0.51100000000E-03 0.  1.
</event>
<event>
 8    1  0.2837913E+004  0.1043930E+01  0.7957747E-01            NaN
         13   -1    0    0    0    0  0.00000000000E+00  0.00000000000E+00  0.74505805969E-08  0.10566000000E+00  0.10566000000E+00 0. -1.
     999900   -1    0    0    0    0 -0.00000000000E+00 -0.00000000000E+00 -0.74505805969E-08  0.93827000000E+00  0.93827000000E+00 0.  1.
     999902    2    1    2    0    0  0.32627666423E-02  0.23232114513E-02  0.12605167150E-01  0.10307037686E+01  0.10306189041E+01 0.  0.
     999903    2    3    3    0    0 -0.43634140548E-01  0.66317890076E-01  0.10852881912E+00  0.14194284137E+00  0.45467184568E-01 0.  0.
         14    1    1    2    0    0 -0.32627666423E-02 -0.23232114513E-02 -0.12605167150E-01  0.13226231379E-01  0.00000000000E+00 0.  1.
     999901    1    3    3    0    0  0.46896907190E-01 -0.63994678625E-01 -0.95923651967E-01  0.88876092725E+00  0.88000000000E+00 0.  1.
        -11    1    4    4    0    0 -0.32099605564E-01  0.30559698553E-01  0.89386007763E-01  0.99771736267E-01  0.51100000000E-03 0. -1.
         11    1    4    4    0    0 -0.11534534984E-01  0.35758191523E-01  0.19142811354E-01  0.42171105106E-01  0.51100000000E-03 0.  1.
</event>
<event>
 8    1  0.2837913E+004  0.1043930E+01  0.7957747E-01            NaN
         13   -1    0    0    0    0  0.00000000000E+00  0.00000000000E+00  0.74505805969E-08  0.10566000000E+00  0.10566000000E+00 0.  1.
     999900   -1    0    0    0    0 -0.00000000000E+00 -0.00000000000E+00 -0.74505805969E-08  0.93827000000E+00  0.93827000000E+00 0.  1.
     999902    2    1    2    0    0 -0.12845004162E-01 -0.42149671783E-03  0.72710429601E-02  0.10291638273E+01  0.10290578912E+01 0.  0.
     999903    2    3    3    0    0 -0.53971443561E-01  0.92254987952E-01 -0.77320824913E-01  0.13931209864E+00  0.44782265922E-01 0.  0.
         14    1    1    2    0    0  0.12845004162E-01  0.42149671783E-03 -0.72710429601E-02  0.14766172731E-01  0.00000000000E+00 0. -1.
     999901    1    3    3    0    0  0.41126439399E-01 -0.92676484669E-01  0.84591867873E-01  0.88985172863E+00  0.88000000000E+00 0. -1.
        -11    1    4    4    0    0 -0.27449995682E-01  0.77031394335E-01 -0.39928580286E-01  0.91004893389E-01  0.51100000000E-03 0. -1.
         11    1    4    4    0    0 -0.26521447879E-01  0.15223593617E-01 -0.37392244627E-01  0.48307205254E-01  0.51100000000E-03 0.  1.
</event>
<event>
 8    1  0.2837913E+004  0.1043930E+01  0.7957747E-01            NaN
         13   -1    0    0    0    0  0.00000000000E+00  0.00000000000E+00  0.74505805969E-08  0.10566000000E+00  0.10566000000E+00 0.  1.
     999900   -1    0    0    0    0 -0.00000000000E+00 -0.00000000000E+00 -0.74505805969E-08  0.93827000000E+00  0.93827000000E+00 0.  1.
     999902    2    1    2    0    0 -0.10896863381E-01  0.72864307696E-02  0.36181229626E-02  0.10303313045E+01  0.10302415603E+01 0.  0.
     999903    2    3    3    0    0 -0.61981264677E-01 -0.10087525868E+00  0.60483107481E-01  0.14041996423E+00  0.45189214193E-01 0.  0.
         14    1    1    2    0    0  0.10896863381E-01 -0.72864307696E-02 -0.36181229626E-02  0.13598695477E-01  0.00000000000E+00 0. -1.
     999901    1    3    3    0    0  0.51084401296E-01  0.10816168945E+00 -0.56864984519E-01  0.88991134029E+00  0.88000000000E+00 0.  1.
        -11    1    4    4    0    0 -0.58938111926E-01 -0.57706006671E-01  0.47733010773E-01  0.95301551308E-01  0.51100000000E-03 0. -1.
         11    1    4    4    0    0 -0.30431527517E-02 -0.43169252006E-01  0.12750096708E-01  0.45118412921E-01  0.51100000000E-03 0.  1.
</event>
<event>
 8    1  0.2837913E+004  0.1043930E+01  0.7957747E-01            NaN
         13   -1    0    0    0    0  0.00000000000E+00  0.00000000000E+00  0.74505805969E-08  0.10566000000E+00  0.10566000000E+00 0.  1.
     999900   -1    0    0    0    0 -0.00000000000E+00 -0.00000000000E+00 -0.74505805969E-08  0.93827000000E+00  0.93827000000E+00 0.  1.
     999902    2    1    2    0    0 -0.28654085650E-02  0.13496516657E-01 -0.59835774015E-03  0.10301196937E+01  0.10300271156E+01 0.  0.
     999903    2    3    3    0    0  0.64850951819E-01  0.89130129494E-01  0.75877512582E-01  0.14098837179E+00  0.44390293193E-01 0.  0.
         14    1    1    2    0    0  0.28654085650E-02 -0.13496516657E-01  0.59835774015E-03  0.13810306300E-01  0.00000000000E+00 0.  1.
     999901    1    3    3    0    0 -0.67716360384E-01 -0.75633612837E-01 -0.76475870322E-01  0.88913132191E+00  0.88000000000E+00 0.  1.
        -11    1    4    4    0    0  0.23194409918E-01  0.59122506227E-01  0.23707320464E-01  0.67791957920E-01  0.51100000000E-03 0.  1.
         11    1    4    4    0    0  0.41656541901E-01  0.30007623267E-01  0.52170192117E-01  0.73196413873E-01  0.51100000000E-03 0. -1.
</event>
<event>
 8    1  0.2837913E+004  0.1043930E+01  0.7957747E-01            NaN
         13   -1    0    0    0    0  0.00000000000E+00  0.00000000000E+00  0.74505805969E-08  0.10566000000E+00  0.10566000000E+00 0. -1.
     999900   -1    0    0    0    0 -0.00000000000E+00 -0.00000000000E+00 -0.74505805969E-08  0.93827000000E+00  0.93827000000E+00 0. -1.
     999902    2    1    2    0    0 -0.42702343694E-02 -0.12711489627E-01  0.24337286658E-02  0.10303013572E+01  0.10302112146E+01 0.  0.
     999903    2    3    3    0    0 -0.97015553185E-01  0.76909866520E-01  0.46803033791E-01  0.13979458186E+00  0.44998400164E-01 0.  0.
         14    1    1    2    0    0  0.42702343694E-02  0.12711489627E-01 -0.24337286658E-02  0.13628642828E-01  0.00000000000E+00 0. -1.
     999901    1    3    3    0    0  0.92745318816E-01 -0.89621356147E-01 -0.44369305125E-01  0.89050677531E+00  0.88000000000E+00 0. -1.
        -11    1    4    4    0    0 -0.20527944365E-01  0.41230763062E-01  0.74130253834E-02  0.46653900039E-01  0.51100000000E-03 0. -1.
         11    1    4    4    0    0 -0.76487608821E-01  0.35679103458E-01  0.39390008408E-01  0.93140681821E-01  0.51100000000E-03 0.  1.
</event>
<event>
 7    1  0.2837913E+004  0.1043930E+01  0.7957747E-01            NaN
         13   -1    0    0    0    0  0.00000000000E+00  0.00000000000E+00  0.74505805969E-08  0.10566000000E+00  0.10566000000E+00 0.  1.
     999900   -1    0    0    0    0 -0.00000000000E+00 -0.00000000000E+00 -0.74505805969E-08  0.93827000000E+00  0.93827000000E+00 0. -1.
     999903    2    1    2    0    0  0.94391893361E-01  0.23853295703E-01  0.26060694544E-01  0.11049980832E+00  0.45301640052E-01 0.  0.
         14    1    1    2    0    0 -0.26136816195E-01 -0.10937789372E-01  0.39105124418E-01  0.48290570021E-01  0.00000000000E+00 0.  1.
     999901    1    1    2    0    0 -0.68255077166E-01 -0.12915506331E-01 -0.65165818962E-01  0.88513962166E+00  0.88000000000E+00 0. -1.
        -11    1    3    3    0    0  0.38292010753E-01  0.25463474424E-01 -0.51573549447E-02  0.46276625290E-01  0.51100000000E-03 0. -1.
         11    1    3    3    0    0  0.56099882608E-01 -0.16101787208E-02  0.31218049489E-01  0.64223183034E-01  0.51100000000E-03 0.  1.
</event>
<event>
 8    1  0.2837913E+004  0.1043930E+01  0.7957747E-01            NaN
         13   -1    0    0    0    0  0.00000000000E+00  0.00000000000E+00  0.74505805969E-08  0.10566000000E+00  0.10566000000E+00 0.  1.
     999900   -1    0    0    0    0 -0.00000000000E+00 -0.00000000000E+00 -0.74505805969E-08  0.93827000000E+00  0.93827000000E+00 0.  1.
     999902    2    1    2    0    0  0.62789247420E-02 -0.48258502609E-02 -0.24531922870E-02  0.10356395308E+01  0.10356063470E+01 0.  0.
     999903    2    3    3    0    0  0.11516699939E+00  0.56601223252E-01 -0.51569298063E-01  0.14544725384E+00  0.45037483567E-01 0.  0.
         14    1    1    2    0    0 -0.62789247420E-02  0.48258502609E-02  0.24531922870E-02  0.82904691697E-02  0.00000000000E+00 0.  1.
     999901    1    3    3    0    0 -0.10888807465E+00 -0.61427073513E-01  0.49116105776E-01  0.89019227699E+00  0.88000000000E+00 0.  1.
        -11    1    4    4    0    0  0.65800601475E-01  0.39637766935E-01 -0.52827050623E-01  0.93229985094E-01  0.51100000000E-03 0.  1.
         11    1    4    4    0    0  0.49366397913E-01  0.16963456317E-01  0.12577525597E-02  0.52217268749E-01  0.51100000000E-03 0. -1.
</event>
<event>
 8    1  0.2837913E+004  0.1043930E+01  0.7957747E-01            NaN
         13   -1    0    0    0    0  0.00000000000E+00  0.00000000000E+00  0.74505805969E-08  0.10566000000E+00  0.10566000000E+00 0.  1.
     999900   -1    0    0    0    0 -0.00000000000E+00 -0.00000000000E+00 -0.74505805969E-08  0.93827000000E+00  0.93827000000E+00 0.  1.
     999902    2    1    2    0    0  0.86860242921E-02  0.37499489265E-02  0.94870677589E-02  0.10305317318E+01  0.10304446306E+01 0.  0.
     999903    2    3    3    0    0  0.29406543408E-01 -0.84447761716E-01  0.99261146953E-01  0.14133683680E+00  0.46121111090E-01 0.  0.
         14    1    1    2    0    0 -0.86860242921E-02 -0.37499489265E-02 -0.94870677589E-02  0.13398268157E-01  0.00000000000E+00 0. -1.
     999901    1    3    3    0    0 -0.20720519116E-01  0.88197710642E-01 -0.89774079194E-01  0.88919489504E+00  0.88000000000E+00 0.  1.
        -11    1    4    4    0    0  0.34713733503E-01 -0.54878486471E-01  0.87741143259E-01  0.10915796312E+00  0.51100000000E-03 0.  1.
         11    1    4    4    0    0 -0.53071900946E-02 -0.29569275245E-01  0.11520003693E-01  0.32178873680E-01  0.51100000000E-03 0. -1.
</event>
<event>
 8    1  0.2837913E+004  0.1043930E+01  0.7957747E-01            NaN
         13   -1    0    0    0    0  0.00000000000E+00  0.00000000000E+00  0.74505805969E-08  0.10566000000E+00  0.10566000000E+00 0.  1.
     999900   -1    0    0    0    0 -0.00000000000E+00 -0.00000000000E+00 -0.74505805969E-08  0.93827000000E+00  0.93827000000E+00 0. -1.
     999902    2    1    2    0    0 -0.49358508798E-02  0.10258944265E-01  0.78096279878E-02  0.10301242457E+01  0.10300317290E+01 0.  0.
     999903    2    3    3    0    0  0.39110122860E-03 -0.11780293257E+00  0.59221467177E-01  0.13935413066E+00  0.45107734097E-01 0.  0.
         14    1    1    2    0    0  0.49358508798E-02 -0.10258944265E-01 -0.78096279878E-02  0.13805754258E-01  0.00000000000E+00 0. -1.
     999901    1    3    3    0    0 -0.53269521084E-02  0.12806187683E+00 -0.51411839189E-01  0.89077011508E+00  0.88000000000E+00 0. -1.
        -11    1    4    4    0    0  0.17717601420E-01 -0.79298333338E-01  0.25036913324E-01  0.85024979977E-01  0.51100000000E-03 0. -1.
         11    1    4    4    0    0 -0.17326500191E-01 -0.38504599230E-01  0.34184553853E-01  0.54329150682E-01  0.51100000000E-03 0.  1.
</event>
<event>
 8    1  0.2837913E+004  0.1043930E+01  0.7957747E-01            NaN
         13   -1    0    0    0    0  0.00000000000E+00  0.00000000000E+00  0.74505805969E-08  0.10566000000E+00  0.10566000000E+00 0. -1.
     999900   -1    0    0    0    0 -0.00000000000E+00 -0.00000000000E+00 -0.74505805969E-08  0.93827000000E+00  0.93827000000E+00 0.  1.
     999902    2    1    2    0    0  0.31395674512E-02 -0.15283573833E-02  0.14082545644E-01  0.10294210079E+01  0.10293187556E+01 0.  0.
     999903    2    3    3    0    0  0.81042913115E-01  0.89774809442E-01  0.55169248393E-01  0.14032409716E+00  0.44941474149E-01 0.  0.
         14    1    1    2    0    0 -0.31395674512E-02  0.15283573833E-02 -0.14082545644E-01  0.14508992105E-01  0.00000000000E+00 0.  1.
     999901    1    3    3    0    0 -0.77903345664E-01 -0.91303166825E-01 -0.41086702749E-01  0.88909691074E+00  0.88000000000E+00 0. -1.
        -11    1    4    4    0    0  0.52682282499E-01  0.25029459184E-01  0.24082938014E-01  0.63104245029E-01  0.51100000000E-03 0.  1.
         11    1    4    4    0    0  0.28360630617E-01  0.64745350257E-01  0.31086310380E-01  0.77219852130E-01  0.51100000000E-03 0. -1.
</event>
<event>
 8    1  0.2837913E+004  0.1043930E+01  0.7957747E-01            NaN
         13   -1    0    0    0    0  0.00000000000E+00  0.00000000000E+00  0.74505805969E-08  0.10566000000E+00  0.10566000000E+00 0.  1.
     999900   -1    0    0    0    0 -0.00000000000E+00 -0.00000000000E+00 -0.74505805969E-08  0.93827000000E+00  0.93827000000E+00 0. -1.
     999902    2    1    2    0    0 -0.14502019146E-02  0.40444204621E-02 -0.12936712604E-01  0.10302984573E+01  0.10302082761E+01 0.  0.
     999903    2    3    3    0    0 -0.66049715523E-01  0.11028687769E+00  0.33632543372E-01  0.14033820402E+00  0.45143141467E-01 0.  0.
         14    1    1    2    0    0  0.14502019146E-02 -0.40444204621E-02  0.12936712604E-01  0.13631542666E-01  0.00000000000E+00 0.  1.
     999901    1    3    3    0    0  0.64599513608E-01 -0.10624245723E+00 -0.46569255976E-01  0.88996025331E+00  0.88000000000E+00 0. -1.
        -11    1    4    4    0    0 -0.22673903662E-02  0.44696254216E-01  0.11305534445E-01  0.46162456933E-01  0.51100000000E-03 0.  1.
         11    1    4    4    0    0 -0.63782325157E-01  0.65590623478E-01  0.22327008928E-01  0.94175747086E-01  0.51100000000E-03 0. -1.
</event>
<event>
 8    1  0.2837913E+004  0.1043930E+01  0.7957747E-01            NaN
         13   -1    0    0    0    0  0.00000000000E+00  0.00000000000E+00  0.74505805969E-08  0.10566000000E+00  0.10566000000E+00 0.  1.
     999900   -1    0    0    0    0 -0.00000000000E+00 -0.00000000000E+00 -0.74505805969E-08  0.93827000000E+00  0.93827000000E+00 0.  1.
     999902    2    1    2    0    0  0.82526091010E-02  0.11324231553E-01 -0.25170013346E-02  0.10296934599E+01  0.10295950380E+01 0.  0.
     999903    2    3    3    0    0 -0.47833331422E-01  0.11811254533E+00  0.38359616455E-01  0.14052515497E+00  0.45135994985E-01 0.  0.
         14    1    1    2    0    0 -0.82526091010E-02 -0.11324231553E-01  0.25170013346E-02  0.14236540062E-01  0.00000000000E+00 0. -1.
     999901    1    3    3    0    0  0.56085940523E-01 -0.10678831378E+00 -0.40876617789E-01  0.88916830497E+00  0.88000000000E+00 0. -1.
        -11    1    4    4    0    0 -0.14555559717E-01  0.82683323772E-01  0.37390106611E-01  0.91905807989E-01  0.51100000000E-03 0. -1.
         11    1    4    4    0    0 -0.33277771705E-01  0.35429221562E-01  0.96950984388E-03  0.48619346977E-01  0.51100000000E-03 0.  1.
</event>
<event>
 8    1  0.2837913E+004  0.1043930E+01  0.7957747E-01            NaN
         13   -1    0    0    0    0  0.00000000000E+00  0.00000000000E+00  0.74505805969E-08  0.10566000000E+00  0.10566000000E+00 0.  1.
     999900   -1    0    0    0    0 -0.00000000000E+00 -0.00000000000E+00 -0.74505805969E-08  0.93827000000E+00  0.93827000000E+00 0.  1.
     999902    2    1    2    0    0  0.77389671320E-02 -0.81231467102E-02  0.63162042129E-02  0.10310547695E+01  0.10309743771E+01 0.  0.
     999903    2    3    3    0    0 -0.38662944569E-01 -0.42886338124E-01 -0.11955551147E+00  0.14020949354E+00  0.45067953981E-01 0.  0.
         14    1    1    2    0    0 -0.77389671320E-02  0.81231467102E-02 -0.63162042129E-02  0.12875230499E-01  0.00000000000E+00 0. -1.
     999901    1    3    3    0    0  0.46401911701E-01  0.34763191414E-01  0.12587171568E+00  0.89084527596E+00  0.88000000000E+00 0. -1.
        -11    1    4    4    0    0 -0.23110889916E-01 -0.34137311778E-01 -0.35890768782E-01  0.54661482717E-01  0.51100000000E-03 0.  1.
         11    1    4    4    0    0 -0.15552054653E-01 -0.87490263465E-02 -0.83664742690E-01  0.85548010826E-01  0.51100000000E-03 0. -1.
</event>
<event>
 8    1  0.2837913E+004  0.1043930E+01  0.7957747E-01            NaN
         13   -1    0    0    0    0  0.00000000000E+00  0.00000000000E+00  0.74505805969E-08  0.10566000000E+00  0.10566000000E+00 0. -1.
     999900   -1    0    0    0    0 -0.00000000000E+00 -0.00000000000E+00 -0.74505805969E-08  0.93827000000E+00  0.93827000000E+00 0. -1.
     999902    2    1    2    0    0  0.87444487819E-02 -0.93819774428E-02  0.50941835138E-02  0.10301300873E+01  0.10300376494E+01 0.  0.
     999903    2    3    3    0    0 -0.17811234668E-01  0.82404215574E-01  0.10209766116E+00  0.13965853568E+00  0.44417106472E-01 0.  0.
         14    1    1    2    0    0 -0.87444487819E-02  0.93819774428E-02 -0.50941835138E-02  0.13799912714E-01  0.00000000000E+00 0.  1.
     999901    1    3    3    0    0  0.26555683450E-01 -0.91786193017E-01 -0.97003477649E-01  0.89047155161E+00  0.88000000000E+00 0. -1.
        -11    1    4    4    0    0 -0.30920788275E-01  0.68714555956E-01  0.88992181479E-01  0.11660898264E+00  0.51100000000E-03 0. -1.
         11    1    4    4    0    0  0.13109553607E-01  0.13689659619E-01  0.13105479684E-01  0.23049553032E-01  0.51100000000E-03 0.  1.
</event>
<event>
 8    1  0.2837913E+004  0.1043930E+01  0.7957747E-01            NaN
         13   -1    0    0    0    0  0.00000000000E+00  0.00000000000E+00  0.74505805969E-08  0.10566000000E+00  0.10566000000E+00 0.  1.
     999900   -1    0    0    0    0 -0.00000000000E+00 -0.00000000000E+00 -0.74505805969E-08  0.93827000000E+00  0.93827000000E+00 0. -1.
     999902    2    1    2    0    0 -0.13415749343E-01  0.23569126170E-02 -0.85910404701E-02  0.10278258594E+01  0.10276996905E+01 0.  0.
     999903    2    3    3    0    0  0.11149248244E+00  0.47508980557E-01  0.42578505061E-01  0.13638932326E+00  0.45841482643E-01 0.  0.
         14    1    1    2    0    0  0.13415749343E-01 -0.23569126170E-02  0.85910404701E-02  0.16104140581E-01  0.00000000000E+00 0.  1.
     999901    1    3    3    0    0 -0.12490823179E+00 -0.45152067940E-01 -0.51169545531E-01  0.89143653616E+00  0.88000000000E+00 0. -1.
        -11    1    4    4    0    0  0.64837067883E-01  0.19794969825E-01  0.62679839454E-03  0.67796314054E-01  0.51100000000E-03 0.  1.
         11    1    4    4    0    0  0.46655414562E-01  0.27714010732E-01  0.41951706667E-01  0.68593009207E-01  0.51100000000E-03 0. -1.
</event>
<event>
 8    1  0.2837913E+004  0.1043930E+01  0.7957747E-01            NaN
         13   -1    0    0    0    0  0.00000000000E+00  0.00000000000E+00  0.74505805969E-08  0.10566000000E+00  0.10566000000E+00 0.  1.
     999900   -1    0    0    0    0 -0.00000000000E+00 -0.00000000000E+00 -0.74505805969E-08  0.93827000000E+00  0.93827000000E+00 0.  1.
     999902    2    1    2    0    0 -0.16253030793E-02 -0.14518977650E-01 -0.39001808887E-02  0.10288086994E+01  0.10286975679E+01 0.  0.
     999903    2    3    3    0    0 -0.21256858347E-02 -0.13282708724E+00 -0.15865864375E-01  0.14081081830E+00  0.43913634017E-01 0.  0.
         14    1    1    2    0    0  0.16253030793E-02  0.14518977650E-01  0.39001808887E-02  0.15121300641E-01  0.00000000000E+00 0.  1.
     999901    1    3    3    0    0  0.50038275541E-03  0.11830810959E+00  0.11965683486E-01  0.88799788106E+00  0.88000000000E+00 0. -1.
        -11    1    4    4    0    0 -0.19762389586E-01 -0.36230283902E-01 -0.98487257933E-02  0.42431639545E-01  0.51100000000E-03 0. -1.
         11    1    4    4    0    0  0.17636703751E-01 -0.96596803343E-01 -0.60171385816E-02  0.98379178758E-01  0.51100000000E-03 0.  1.
</event>
<event>
 7    1  0.2837913E+004  0.1043930E+01  0.7957747E-01            NaN
         13   -1    0    0    0    0  0.00000000000E+00  0.00000000000E+00  0.74505805969E-08  0.10566000000E+00  0.10566000000E+00 0.  1.
     999900   -1    0    0    0    0 -0.00000000000E+00 -0.00000000000E+00 -0.74505805969E-08  0.93827000000E+00  0.93827000000E+00 0. -1.
     999903    2    1    2    0    0 -0.88229676968E-01 -0.61188602024E-01  0.15084743446E-01  0.11764580776E+00  0.45655949044E-01 0.  0.
         14    1    1    2    0    0 -0.29060504523E-01  0.22425217162E-01  0.70629017977E-02  0.37380313933E-01  0.00000000000E+00 0.  1.
     999901    1    1    2    0    0  0.11729018149E+00  0.38763384862E-01 -0.22147645243E-01  0.88890387831E+00  0.88000000000E+00 0. -1.
        -11    1    3    3    0    0 -0.27042022612E-01 -0.32926478498E-02 -0.11115790805E-01  0.29426764060E-01  0.51100000000E-03 0.  1.
         11    1    3    3    0    0 -0.61187654356E-01 -0.57895954174E-01  0.26200534250E-01  0.88219043700E-01  0.51100000000E-03 0. -1.
</event>
<event>
 8    1  0.2837913E+004  0.1043930E+01  0.7957747E-01            NaN
         13   -1    0    0    0    0  0.00000000000E+00  0.00000000000E+00  0.74505805969E-08  0.10566000000E+00  0.10566000000E+00 0.  1.
     999900   -1    0    0    0    0 -0.00000000000E+00 -0.00000000000E+00 -0.74505805969E-08  0.93827000000E+00  0.93827000000E+00 0.  1.
     999902    2    1    2    0    0 -0.45661956203E-02  0.64609160249E-02 -0.11895265115E-01  0.10296439610E+01  0.10295448487E+01 0.  0.
     999903    2    3    3    0    0 -0.13346014248E-02 -0.35019143576E-01  0.12553650886E+00  0.13800584435E+00  0.45366027395E-01 0.  0.
         14    1    1    2    0    0  0.45661956203E-02 -0.64609160249E-02  0.11895265115E-01  0.14286039006E-01  0.00000000000E+00 0.  1.
     999901    1    3    3    0    0 -0.32315941955E-02  0.41480059601E-01 -0.13743177398E+00  0.89163811664E+00  0.88000000000E+00 0.  1.
        -11    1    4    4    0    0  0.18870425523E-02  0.87892062786E-02  0.64520765225E-02  0.11077070418E-01  0.51100000000E-03 0. -1.
         11    1    4    4    0    0 -0.32216439771E-02 -0.43808349855E-01  0.11908443234E+00  0.12692877394E+00  0.51100000000E-03 0.  1.
</event>
<event>
 8    1  0.2837913E+004  0.1043930E+01  0.7957747E-01            NaN
         13   -1    0    0    0    0  0.00000000000E+00  0.00000000000E+00  0.74505805969E-08  0.10566000000E+00  0.10566000000E+00 0.  1.
     999900   -1    0    0    0    0 -0.00000000000E+00 -0.00000000000E+00 -0.74505805969E-08  0.93827000000E+00  0.93827000000E+00 0. -1.
     999902    2    1    2    0    0 -0.81003311659E-02 -0.20113664468E-02  0.19123218909E-02  0.10353674107E+01  0.10353320034E+01 0.  0.
     999903    2    3    3    0    0 -0.94157034308E-01 -0.78553961207E-01 -0.63619279013E-01  0.14544667511E+00  0.45508798137E-01 0.  0.
         14    1    1    2    0    0  0.81003311659E-02  0.20113664468E-02 -0.19123218909E-02  0.85625892693E-02  0.00000000000E+00 0.  1.
     999901    1    3    3    0    0  0.86056703142E-01  0.76542594760E-01  0.65531600904E-01  0.88992073562E+00  0.88000000000E+00 0.  1.
        -11    1    4    4    0    0 -0.59953362308E-01 -0.31258134862E-01 -0.53467751599E-01  0.86200569773E-01  0.51100000000E-03 0.  1.
         11    1    4    4    0    0 -0.34203672000E-01 -0.47295826345E-01 -0.10151527414E-01  0.59246105339E-01  0.51100000000E-03 0. -1.
</event>
<event>
 8    1  0.2837913E+004  0.1043930E+01  0.7957747E-01            NaN
         13   -1    0    0    0    0  0.00000000000E+00  0.00000000000E+00  0.74505805969E-08  0.10566000000E+00  0.10566000000E+00 0.  1.
     999900   -1    0    0    0    0 -0.00000000000E+00 -0.00000000000E+00 -0.74505805969E-08  0.93827000000E+00  0.93827000000E+00 0. -1.
     999902    2    1    2    0    0  0.65675550468E-02  0.10103229497E-01  0.14902893528E-01  0.10247648164E+01  0.10245855868E+01 0.  0.
     999903    2    3    3    0    0  0.80611950794E-01 -0.61903378638E-01  0.79112713308E-01  0.13640091290E+00  0.44900698594E-01 0.  0.
         14    1    1    2    0    0 -0.65675550468E-02 -0.10103229497E-01 -0.14902893528E-01  0.19165183564E-01  0.00000000000E+00 0. -1.
     999901    1    3    3    0    0 -0.74044395747E-01  0.72006608135E-01 -0.64209819781E-01  0.88836390354E+00  0.88000000000E+00 0.  1.
        -11    1    4    4    0    0  0.61112681661E-01 -0.59686996828E-01  0.79599818330E-01  0.11676339173E+00  0.51100000000E-03 0.  1.
         11    1    4    4    0    0  0.19499269133E-01 -0.22163818096E-02 -0.48710502188E-03  0.19637521161E-01  0.51100000000E-03 0. -1.
</event>
<event>
 8    1  0.2837913E+004  0.1043930E+01  0.7957747E-01            NaN
         13   -1    0    0    0    0  0.00000000000E+00  0.00000000000E+00  0.74505805969E-08  0.10566000000E+00  0.10566000000E+00 0. -1.
     999900   -1    0    0    0    0 -0.00000000000E+00 -0.00000000000E+00 -0.74505805969E-08  0.93827000000E+00  0.93827000000E+00 0. -1.
     999902    2    1    2    0    0  0.61775304943E-02  0.11074066687E-01  0.52070236741E-02  0.10302219757E+01  0.10301307729E+01 0.  0.
     999903    2    3    3    0    0  0.10825381893E+00  0.29272125274E-02 -0.76760446458E-01  0.14050033039E+00  0.46051262865E-01 0.  0.
         14    1    1    2    0    0 -0.61775304943E-02 -0.11074066687E-01 -0.52070236741E-02  0.13708024348E-01  0.00000000000E+00 0.  1.
     999901    1    3    3    0    0 -0.10207628844E+00  0.81468541596E-02  0.81967470132E-01  0.88972164527E+00  0.88000000000E+00 0.  1.
        -11    1    4    4    0    0  0.15576524342E-01 -0.41397673090E-02 -0.35132599896E-01  0.38656519248E-01  0.51100000000E-03 0. -1.
         11    1    4    4    0    0  0.92677294591E-01  0.70669798364E-02 -0.41627846562E-01  0.10184381114E+00  0.51100000000E-03 0.  1.
</event>
<event>
 8    1  0.2837913E+004  0.1043930E+01  0.7957747E-01            NaN
         13   -1    0    0    0    0  0.00000000000E+00  0.00000000000E+00  0.74505805969E-08  0.10566000000E+00  0.10566000000E+00 0.  1.
     999900   -1    0    0    0    0 -0.00000000000E+00 -0.00000000000E+00 -0.74505805969E-08  0.93827000000E+00  0.93827000000E+00 0.  1.
     999902    2    1    2    0    0  0.13423500685E-01 -0.82377759401E-02 -0.20206560911E-02  0.10280512603E+01  0.10279286257E+01 0.  0.
     999903    2    3    3    0    0  0.10833695982E+00  0.35802850140E-01 -0.66187903977E-01  0.13953250577E+00  0.45494401755E-01 0.  0.
         14    1    1    2    0    0 -0.13423500685E-01  0.82377759401E-02  0.20206560911E-02  0.15878739690E-01  0.00000000000E+00 0. -1.
     999901    1    3    3    0    0 -0.94913459139E-01 -0.44040626080E-01  0.64167247886E-01  0.88851875454E+00  0.88000000000E+00 0. -1.
        -11    1    4    4    0    0  0.75333270138E-01  0.39225354095E-01 -0.29138556342E-01  0.89794468539E-01  0.51100000000E-03 0.  1.
         11    1    4    4    0    0  0.33003689686E-01 -0.34225039549E-02 -0.37049347635E-01  0.49738037229E-01  0.51100000000E-03 0. -1.
</event>
<event>
 8    1  0.2837913E+004  0.1043930E+01  0.7957747E-01            NaN
         13   -1    0    0    0    0  0.00000000000E+00  0.00000000000E+00  0.74505805969E-08  0.10566000000E+00  0.10566000000E+00 0.  1.
     999900   -1    0    0    0    0 -0.00000000000E+00 -0.00000000000E+00 -0.74505805969E-08  0.93827000000E+00  0.93827000000E+00 0.  1.
     999902    2    1    2    0    0  0.14070802672E-01  0.13460067753E-02  0.20589639065E-02  0.10296457935E+01  0.10295467068E+01 0.  0.
     999903    2    3    3    0    0  0.95129115992E-01  0.73177832587E-01  0.59712465046E-01  0.14113344834E+00  0.44142132570E-01 0.  0.
         14    1    1    2    0    0 -0.14070802672E-01 -0.13460067753E-02 -0.20589639065E-02  0.14284206469E-01  0.00000000000E+00 0. -1.
     999901    1    3    3    0    0 -0.81058313320E-01 -0.71831825811E-01 -0.57653501139E-01  0.88851234519E+00  0.88000000000E+00 0.  1.
        -11    1    4    4    0    0  0.74440618057E-01  0.44974639140E-01  0.22036713518E-01  0.89721801398E-01  0.51100000000E-03 0. -1.
         11    1    4    4    0    0  0.20688497935E-01  0.28203193447E-01  0.37675751527E-01  0.51411646945E-01  0.51100000000E-03 0.  1.
</event>
<event>
 8    1  0.2837913E+004  0.1043930E+01  0.7957747E-01            NaN
         13   -1    0    0    0    0  0.00000000000E+00  0.00000000000E+00  0.74505805969E-08  0.10566000000E+00  0.10566000000E+00 0. -1.
     999900   -1    0    0    0    0 -0.00000000000E+00 -0.00000000000E+00 -0.74505805969E-08  0.93827000000E+00  0.93827000000E+00 0. -1.
     999902    2    1    2    0    0 -0.47608038940E-02 -0.98288341329E-02 -0.86842251960E-02  0.10299769716E+01  0.10298824569E+01 0.  0.
     999903    2    3    3    0    0 -0.11503593181E+00  0.60105887784E-01 -0.27484202520E-01  0.14014276889E+00  0.45151200778E-01 0.  0.
         14    1    1    2    0    0  0.47608038940E-02  0.98288341329E-02  0.86842251960E-02  0.13953028395E-01  0.00000000000E+00 0. -1.
     999901    1    3    3    0    0  0.11027512792E+00 -0.69934721917E-01  0.18799977324E-01  0.88983420271E+00  0.88000000000E+00 0.  1.
        -11    1    4    4    0    0 -0.78219962725E-01  0.21797048302E-01 -0.30939294660E-01  0.86896346059E-01  0.51100000000E-03 0. -1.
         11    1    4    4    0    0 -0.36815969085E-01  0.38308839482E-01  0.34550921394E-02  0.53246422836E-01  0.51100000000E-03 0.  1.
</event>
<event>
 8    1  0.2837913E+004  0.1043930E+01  0.7957747E-01            NaN
         13   -1    0    0    0    0  0.00000000000E+00  0.00000000000E+00  0.74505805969E-08  0.10566000000E+00  0.10566000000E+00 0. -1.
     999900   -1    0    0    0    0 -0.00000000000E+00 -0.00000000000E+00 -0.74505805969E-08  0.93827000000E+00  0.93827000000E+00 0. -1.
     999902    2    1    2    0    0  0.86003245821E-02  0.63494387234E-02 -0.87701008682E-02  0.10301026494E+01  0.10300098411E+01 0.  0.
     999903    2    3    3    0    0 -0.57806518263E-01  0.10107356657E+00  0.62237860363E-01  0.13969563027E+00  0.45649298377E-01 0.  0.
         14    1    1    2    0    0 -0.86003245821E-02 -0.63494387234E-02  0.87701008682E-02  0.13827350587E-01  0.00000000000E+00 0. -1.
     999901    1    3    3    0    0  0.66406842845E-01 -0.94724127847E-01 -0.71007961231E-01  0.89040701914E+00  0.88000000000E+00 0.  1.
        -11    1    4    4    0    0 -0.59587387294E-01  0.84339727765E-01  0.65850770687E-01  0.12247624882E+00  0.51100000000E-03 0. -1.
         11    1    4    4    0    0  0.17808690315E-02  0.16733838805E-01 -0.36129103235E-02  0.17219381454E-01  0.51100000000E-03 0.  1.
</event>
<event>
 8    1  0.2837913E+004  0.1043930E+01  0.7957747E-01            NaN
         13   -1    0    0    0    0  0.00000000000E+00  0.00000000000E+00  0.74505805969E-08  0.10566000000E+00  0.10566000000E+00 0. -1.
     999900   -1    0    0    0    0 -0.00000000000E+00 -0.00000000000E+00 -0.74505805969E-08  0.93827000000E+00  0.93827000000E+00 0. -1.
     999902    2    1    2    0    0  0.76533994445E-02 -0.33087901991E-02 -0.81735432412E-02  0.10322539808E+01  0.10321879438E+01 0.  0.
     999903    2    3    3    0    0  0.87024710000E-01 -0.84280451513E-01 -0.61862843379E-01  0.14335648623E+00  0.45250150222E-01 0.  0.
         14    1    1    2    0    0 -0.76533994445E-02  0.33087901991E-02  0.81735432412E-02  0.11676019217E-01  0.00000000000E+00 0.  1.
     999901    1    3    3    0    0 -0.79371310556E-01  0.80971661314E-01  0.53689300138E-01  0.88889749455E+00  0.88000000000E+00 0. -1.
        -11    1    4    4    0    0  0.56493571133E-01 -0.77082861865E-01 -0.34121857840E-01  0.10147833994E+00  0.51100000000E-03 0. -1.
         11    1    4    4    0    0  0.30531138868E-01 -0.71975896476E-02 -0.27740985539E-01  0.41878146293E-01  0.51100000000E-03 0.  1.
</event>
<event>
 8    1  0.2837913E+004  0.1043930E+01  0.7957747E-01            NaN
         13   -1    0    0    0    0  0.00000000000E+00  0.00000000000E+00  0.74505805969E-08  0.10566000000E+00  0.10566000000E+00 0. -1.
     999900   -1    0    0    0    0 -0.00000000000E+00 -0.00000000000E+00 -0.74505805969E-08  0.93827000000E+00  0.93827000000E+00 0.  1.
     999902    2    1    2    0    0  0.95592969486E-03 -0.60103770789E-02 -0.11775656745E-01  0.10306746416E+01  0.10305894005E+01 0.  0.
     999903    2    3    3    0    0  0.82269357398E-01 -0.96773865063E-01  0.40751037837E-01  0.14072580155E+00  0.44829410128E-01 0.  0.
         14    1    1    2    0    0 -0.95592969486E-03  0.60103770789E-02  0.11775656745E-01  0.13255358388E-01  0.00000000000E+00 0. -1.
     999901    1    3    3    0    0 -0.81313427704E-01  0.90763487984E-01 -0.52526694582E-01  0.88994884006E+00  0.88000000000E+00 0.  1.
        -11    1    4    4    0    0  0.48719616379E-01 -0.83283489801E-01  0.18444051728E-01  0.98235354423E-01  0.51100000000E-03 0.  1.
         11    1    4    4    0    0  0.33549741020E-01 -0.13490375262E-01  0.22306986108E-01  0.42490447132E-01  0.51100000000E-03 0. -1.
</event>
<event>
 8    1  0.2837913E+004  0.1043930E+01  0.7957747E-01            NaN
         13   -1    0    0    0    0  0.00000000000E+00  0.00000000000E+00  0.74505805969E-08  0.10566000000E+00  0.10566000000E+00 0.  1.
     999900   -1    0    0    0    0 -0.00000000000E+00 -0.00000000000E+00 -0.74505805969E-08  0.93827000000E+00  0.93827000000E+00 0. -1.
     999902    2    1    2    0    0  0.38273604988E-02  0.13607419435E-01  0.44322049060E-02  0.10291159866E+01  0.10290093580E+01 0.  0.
     999903    2    3    3    0    0 -0.11962110788E+00  0.55583341113E-01 -0.51663757273E-02  0.13945670628E+00  0.44975151251E-01 0.  0.
         14    1    1    2    0    0 -0.38273604988E-02 -0.13607419435E-01 -0.44322049060E-02  0.14814013379E-01  0.00000000000E+00 0.  1.
     999901    1    3    3    0    0  0.12344846837E+00 -0.41975921678E-01  0.95985806332E-02  0.88965928034E+00  0.88000000000E+00 0. -1.
        -11    1    4    4    0    0 -0.39891606508E-01  0.42673052364E-01 -0.56074087283E-02  0.58685891162E-01  0.51100000000E-03 0.  1.
         11    1    4    4    0    0 -0.79729501368E-01  0.12910288749E-01  0.44103300106E-03  0.80770815119E-01  0.51100000000E-03 0. -1.
</event>
<event>
 8    1  0.2837913E+004  0.1043930E+01  0.7957747E-01            NaN
         13   -1    0    0    0    0  0.00000000000E+00  0.00000000000E+00  0.74505805969E-08  0.10566000000E+00  0.10566000000E+00 0.  1.
     999900   -1    0    0    0    0 -0.00000000000E+00 -0.00000000000E+00 -0.74505805969E-08  0.93827000000E+00  0.93827000000E+00 0.  1.
     999902    2    1    2    0    0 -0.27141255795E-02  0.10511147838E-01 -0.87237601435E-02  0.10300032381E+01  0.10299090813E+01 0.  0.
     999903    2    3    3    0    0 -0.53549625129E-01  0.81401457961E-01  0.90070405704E-01  0.14018866678E+00  0.45237424787E-01 0.  0.
         14    1    1    2    0    0  0.27141255795E-02 -0.10511147838E-01  0.87237601435E-02  0.13926761920E-01  0.00000000000E+00 0.  1.
     999901    1    3    3    0    0  0.50835499550E-01 -0.70890310123E-01 -0.98794165848E-01  0.88981457130E+00  0.88000000000E+00 0.  1.
        -11    1    4    4    0    0 -0.20738094470E-01  0.63459465208E-01  0.40484557160E-01  0.78079656609E-01  0.51100000000E-03 0.  1.
         11    1    4    4    0    0 -0.32811530659E-01  0.17941992754E-01  0.49585848544E-01  0.62109010176E-01  0.51100000000E-03 0. -1.
</event>
<event>
 8    1  0.2837913E+004  0.1043930E+01  0.7957747E-01            NaN
         13   -1    0    0    0    0  0.00000000000E+00  0.00000000000E+00  0.74505805969E-08  0.10566000000E+00  0.10566000000E+00 0. -1.
     999900   -1    0    0    0    0 -0.00000000000E+00 -0.00000000000E+00 -0.74505805969E-08  0.93827000000E+00  0.93827000000E+00 0.  1.
     999902    2    1    2    0    0  0.11596567134E-01  0.75728501956E-02  0.68038730976E-03  0.10300630841E+01  0.10299697403E+01 0.  0.
     999903    2    3    3    0    0  0.80007571682E-01 -0.83904277576E-01  0.65195724294E-01  0.14033820576E+00  0.44757012949E-01 0.  0.
         14    1    1    2    0    0 -0.11596567134E-01 -0.75728501956E-02 -0.68038730976E-03  0.13866915889E-01  0.00000000000E+00 0.  1.
     999901    1    3    3    0    0 -0.68411004548E-01  0.91477127772E-01 -0.64515336984E-01  0.88972487835E+00  0.88000000000E+00 0. -1.
        -11    1    4    4    0    0  0.26725107024E-01 -0.12268148658E-01 -0.62509793733E-03  0.29417523440E-01  0.51100000000E-03 0. -1.
         11    1    4    4    0    0  0.53282464658E-01 -0.71636128919E-01  0.65820822231E-01  0.11092068232E+00  0.51100000000E-03 0.  1.
</event>
<event>
 8    1  0.2837913E+004  0.1043930E+01  0.7957747E-01            NaN
         13   -1    0    0    0    0  0.00000000000E+00  0.00000000000E+00  0.74505805969E-08  0.10566000000E+00  0.10566000000E+00 0. -1.
     999900   -1    0    0    0    0 -0.00000000000E+00 -0.00000000000E+00 -0.74505805969E-08  0.93827000000E+00  0.93827000000E+00 0.  1.
     999902    2    1    2    0    0 -0.56809098084E-02 -0.90851726655E-02  0.10372685244E-01  0.10290167275E+01  0.10289086547E+01 0.  0.
     999903    2    3    3    0    0 -0.52490446129E-01  0.10457116672E+00  0.61123596376E-01  0.13902540663E+00  0.43607267870E-01 0.  0.
         14    1    1    2    0    0  0.56809098084E-02  0.90851726655E-02 -0.10372685244E-01  0.14913272538E-01  0.00000000000E+00 0.  1.
     999901    1    3    3    0    0  0.46809536321E-01 -0.11365633939E+00 -0.50750911133E-01  0.88999132083E+00  0.88000000000E+00 0.  1.
        -11    1    4    4    0    0 -0.16924531150E-02 -0.30033377142E-02  0.80211771963E-02  0.87455611362E-02  0.51100000000E-03 0. -1.
         11    1    4    4    0    0 -0.50797993014E-01  0.10757450443E+00  0.53102419180E-01  0.13027984550E+00  0.51100000000E-03 0.  1.
</event>
<event>
 8    1  0.2837913E+004  0.1043930E+01  0.7957747E-01            NaN
         13   -1    0    0    0    0  0.00000000000E+00  0.00000000000E+00  0.74505805969E-08  0.10566000000E+00  0.10566000000E+00 0. -1.
     999900   -1    0    0    0    0 -0.00000000000E+00 -0.00000000000E+00 -0.74505805969E-08  0.93827000000E+00  0.93827000000E+00 0.  1.
     999902    2    1    2    0    0 -0.97157385463E-02  0.25921806353E-02 -0.10067589824E-01  0.10297007575E+01  0.10296024372E+01 0.  0.
     999903    2    3    3    0    0  0.10999409237E-01 -0.10842204139E+00 -0.75135480505E-01  0.14010135038E+00  0.45899040118E-01 0.  0.
         14    1    1    2    0    0  0.97157385463E-02 -0.25921806353E-02  0.10067589824E-01  0.14229242454E-01  0.00000000000E+00 0. -1.
     999901    1    3    3    0    0 -0.20715147783E-01  0.11101422202E+00  0.65067890681E-01  0.88959940717E+00  0.88000000000E+00 0. -1.
        -11    1    4    4    0    0  0.16101216840E-01 -0.24584092607E-01 -0.38570502864E-01  0.48493005735E-01  0.51100000000E-03 0. -1.
         11    1    4    4    0    0 -0.51018076033E-02 -0.83837948783E-01 -0.36564977641E-01  0.91608344641E-01  0.51100000000E-03 0.  1.
</event>
<event>
 8    1  0.2837913E+004  0.1043930E+01  0.7957747E-01            NaN
         13   -1    0    0    0    0  0.00000000000E+00  0.00000000000E+00  0.74505805969E-08  0.10566000000E+00  0.10566000000E+00 0.  1.
     999900   -1    0    0    0    0 -0.00000000000E+00 -0.00000000000E+00 -0.74505805969E-08  0.93827000000E+00  0.93827000000E+00 0.  1.
     999902    2    1    2    0    0 -0.72427031757E-02 -0.11460035116E-01 -0.59833202238E-03  0.10303599169E+01  0.10302705524E+01 0.  0.
     999903    2    3    3    0    0 -0.11411820094E-01 -0.13388961763E+00  0.17695707786E-02  0.14187131755E+00  0.45471749646E-01 0.  0.
         14    1    1    2    0    0  0.72427031757E-02  0.11460035116E-01  0.59833202238E-03  0.13570083100E-01  0.00000000000E+00 0. -1.
     999901    1    3    3    0    0  0.41691169187E-02  0.12242958251E+00 -0.23679028010E-02  0.88848859935E+00  0.88000000000E+00 0. -1.
        -11    1    4    4    0    0 -0.28396546368E-01 -0.67653776801E-01  0.36572103177E-02  0.73464506187E-01  0.51100000000E-03 0. -1.
         11    1    4    4    0    0  0.16984726273E-01 -0.66235840828E-01 -0.18876395391E-02  0.68406811363E-01  0.51100000000E-03 0.  1.
</event>
<event>
 8    1  0.2837913E+004  0.1043930E+01  0.7957747E-01            NaN
         13   -1    0    0    0    0  0.00000000000E+00  0.00000000000E+00  0.74505805969E-08  0.10566000000E+00  0.10566000000E+00 0. -1.
     999900   -1    0    0    0    0 -0.00000000000E+00 -0.00000000000E+00 -0.74505805969E-08  0.93827000000E+00  0.93827000000E+00 0. -1.
     999902    2    1    2    0    0  0.95601137754E-02  0.60224575799E-02  0.10240187989E-01  0.10286811567E+01  0.10285681285E+01 0.  0.
     999903    2    3    3    0    0  0.95754972632E-03 -0.56576180866E-01  0.11945858950E+00  0.13968101452E+00  0.45151412694E-01 0.  0.
         14    1    1    2    0    0 -0.95601137754E-02 -0.60224575799E-02 -0.10240187989E-01  0.15248843259E-01  0.00000000000E+00 0.  1.
     999901    1    3    3    0    0  0.86025640490E-02  0.62598638445E-01 -0.10921840151E+00  0.88900014222E+00  0.88000000000E+00 0. -1.
        -11    1    4    4    0    0  0.18249619651E-01 -0.18903932021E-01  0.72109277272E-01  0.76749047245E-01  0.51100000000E-03 0.  1.
         11    1    4    4    0    0 -0.17292069924E-01 -0.37672248845E-01  0.47349312229E-01  0.62931967273E-01  0.51100000000E-03 0. -1.
</event>
<event>
 8    1  0.2837913E+004  0.1043930E+01  0.7957747E-01            NaN
         13   -1    0    0    0    0  0.00000000000E+00  0.00000000000E+00  0.74505805969E-08  0.10566000000E+00  0.10566000000E+00 0. -1.
     999900   -1    0    0    0    0 -0.00000000000E+00 -0.00000000000E+00 -0.74505805969E-08  0.93827000000E+00  0.93827000000E+00 0.  1.
     999902    2    1    2    0    0 -0.36746393904E-02  0.96130055358E-02 -0.88511996633E-02  0.10303558855E+01  0.10302664675E+01 0.  0.
     999903    2    3    3    0    0  0.19282674658E-01  0.13157788433E+00  0.20022388470E-01  0.14117865115E+00  0.42964570444E-01 0.  0.
         14    1    1    2    0    0  0.36746393904E-02 -0.96130055358E-02  0.88511996633E-02  0.13574114541E-01  0.00000000000E+00 0.  1.
     999901    1    3    3    0    0 -0.22957314049E-01 -0.12196487879E+00 -0.28873588133E-01  0.88917723431E+00  0.88000000000E+00 0.  1.
        -11    1    4    4    0    0 -0.12663843349E-01  0.44661155391E-01  0.13491740694E-01  0.48345422918E-01  0.51100000000E-03 0. -1.
         11    1    4    4    0    0  0.31946518008E-01  0.86916728938E-01  0.65306477759E-02  0.92833228229E-01  0.51100000000E-03 0.  1.
</event>
<event>
 8    1  0.2837913E+004  0.1043930E+01  0.7957747E-01            NaN
         13   -1    0    0    0    0  0.00000000000E+00  0.00000000000E+00  0.74505805969E-08  0.10566000000E+00  0.10566000000E+00 0.  1.
     999900   -1    0    0    0    0 -0.00000000000E+00 -0.00000000000E+00 -0.74505805969E-08  0.93827000000E+00  0.93827000000E+00 0.  1.
     999902    2    1    2    0    0 -0.58241025338E-02 -0.94711301340E-02 -0.82207311825E-02  0.10301023864E+01  0.10300095745E+01 0.  0.
     999903    2    3    3    0    0 -0.13122243720E+00  0.21612593825E-01  0.46360638091E-02  0.14057653664E+00  0.45319282105E-01 0.  0.
         14    1    1    2    0    0  0.58241025338E-02  0.94711301340E-02  0.82207311825E-02  0.13827613587E-01  0.00000000000E+00 0.  1.
     999901    1    3    3    0    0  0.12539833467E+00 -0.31083723959E-01 -0.12856794992E-01  0.88952584977E+00  0.88000000000E+00 0.  1.
        -11    1    4    4    0    0 -0.62907338353E-01  0.19595315040E-01 -0.18468826290E-01  0.68430024520E-01  0.51100000000E-03 0. -1.
         11    1    4    4    0    0 -0.68315098846E-01  0.20172787844E-02  0.23104890100E-01  0.72146512123E-01  0.51100000000E-03 0.  1.
</event>
<event>
 8    1  0.2837913E+004  0.1043930E+01  0.7957747E-01            NaN
         13   -1    0    0    0    0  0.00000000000E+00  0.00000000000E+00  0.74505805969E-08  0.10566000000E+00  0.10566000000E+00 0.  1.
     999900   -1    0    0    0    0 -0.00000000000E+00 -0.00000000000E+00 -0.74505805969E-08  0.93827000000E+00  0.93827000000E+00 0.  1.
     999902    2    1    2    0    0 -0.19806868096E-02 -0.76538441479E-02 -0.11134440995E-01  0.10302742237E+01  0.10301837194E+01 0.  0.
     999903    2    3    3    0    0 -0.78547621244E-01 -0.90919734103E-01 -0.60222314504E-01  0.14167683274E+00  0.44827122562E-01 0.  0.
         14    1    1    2    0    0  0.19806868096E-02  0.76538441479E-02  0.11134440995E-01  0.13655776314E-01  0.00000000000E+00 0.  1.
     999901    1    3    3    0    0  0.76566934434E-01  0.83265889955E-01  0.49087873509E-01  0.88859739095E+00  0.88000000000E+00 0.  1.
        -11    1    4    4    0    0 -0.40700010506E-01 -0.30249051515E-01 -0.42948444374E-02  0.50894034842E-01  0.51100000000E-03 0.  1.
         11    1    4    4    0    0 -0.37847610738E-01 -0.60670682588E-01 -0.55927470066E-01  0.90782797893E-01  0.51100000000E-03 0. -1.
</event>
<event>
 8    1  0.2837913E+004  0.1043930E+01  0.7957747E-01            NaN
         13   -1    0    0    0    0  0.00000000000E+00  0.00000000000E+00  0.74505805969E-08  0.10566000000E+00  0.10566000000E+00 0. -1.
     999900   -1    0    0    0    0 -0.00000000000E+00 -0.00000000000E+00 -0.74505805969E-08  0.93827000000E+00  0.93827000000E+00 0. -1.
     999902    2    1    2    0    0 -0.13931296967E-01  0.40342836620E-02  0.45084045618E-03  0.10294193233E+01  0.10293170471E+01 0.  0.
     999903    2    3    3    0    0 -0.94412777415E-01 -0.10995812708E-01  0.93807807951E-01  0.14070187901E+00  0.44299362155E-01 0.  0.
         14    1    1    2    0    0  0.13931296967E-01 -0.40342836620E-02 -0.45084045618E-03  0.14510676654E-01  0.00000000000E+00 0.  1.
     999901    1    3    3    0    0  0.80481480448E-01  0.15030096370E-01 -0.93356967494E-01  0.88871744434E+00  0.88000000000E+00 0.  1.
        -11    1    4    4    0    0 -0.41659678042E-01  0.13968698491E-01  0.25305765686E-01  0.50707950166E-01  0.51100000000E-03 0.  1.
         11    1    4    4    0    0 -0.52753099373E-01 -0.24964511199E-01  0.68502042265E-01  0.89993928841E-01  0.51100000000E-03 0. -1.
</event>
<event>
 8    1  0.2837913E+004  0.1043930E+01  0.7957747E-01            NaN
         13   -1    0    0    0    0  0.00000000000E+00  0.00000000000E+00  0.74505805969E-08  0.10566000000E+00  0.10566000000E+00 0.  1.
     999900   -1    0    0    0    0 -0.00000000000E+00 -0.00000000000E+00 -0.74505805969E-08  0.93827000000E+00  0.93827000000E+00 0. -1.
     999902    2    1    2    0    0 -0.13093545108E-01 -0.37295711870E-02 -0.51900392137E-02  0.10293599234E+01  0.10292568022E+01 0.  0.
     999903    2    3    3    0    0 -0.58598472066E-01 -0.11135946773E+00  0.44161922045E-01  0.14026459158E+00  0.43464563840E-01 0.  0.
         14    1    1    2    0    0  0.13093545108E-01  0.37295711870E-02  0.51900392137E-02  0.14570076588E-01  0.00000000000E+00 0.  1.
     999901    1    3    3    0    0  0.45504926958E-01  0.10762989655E+00 -0.49351961259E-01  0.88909533183E+00  0.88000000000E+00 0.  1.
        -11    1    4    4    0    0 -0.21885942303E-01 -0.10178461186E-01  0.60838395498E-03  0.24150088916E-01  0.51100000000E-03 0.  1.
         11    1    4    4    0    0 -0.36712529763E-01 -0.10118100655E+00  0.43553538090E-01  0.11611450266E+00  0.51100000000E-03 0. -1.
</event>
<event>
 8    1  0.2837913E+004  0.1043930E+01  0.7957747E-01            NaN
         13   -1    0    0    0    0  0.00000000000E+00  0.00000000000E+00  0.74505805969E-08  0.10566000000E+00  0.10566000000E+00 0. -1.
     999900   -1    0    0    0    0 -0.00000000000E+00 -0.00000000000E+00 -0.74505805969E-08  0.93827000000E+00  0.93827000000E+00 0.  1.
     999902    2    1    2    0    0  0.65566465605E-02  0.10223927606E-01  0.92594610174E-02  0.10286572816E+01  0.10285438965E+01 0.  0.
     999903    2    3    3    0    0 -0.28057877489E-01 -0.11155883423E+00  0.61273540716E-01  0.13807619552E+00  0.45584767101E-01 0.  0.
         14    1    1    2    0    0 -0.65566465605E-02 -0.10223927606E-01 -0.92594610174E-02  0.15272718427E-01  0.00000000000E+00 0.  1.
     999901    1    3    3    0    0  0.34614524049E-01  0.12178276184E+00 -0.52014079699E-01  0.89058108606E+00  0.88000000000E+00 0.  1.
        -11    1    4    4    0    0  0.12022246197E-01 -0.33110172402E-01  0.12505916882E-01  0.37382843634E-01  0.51100000000E-03 0. -1.
         11    1    4    4    0    0 -0.40080123686E-01 -0.78448661831E-01  0.48767623834E-01  0.10069335188E+00  0.51100000000E-03 0.  1.
</event>
<event>
 8    1  0.2837913E+004  0.1043930E+01  0.7957747E-01            NaN
         13   -1    0    0    0    0  0.00000000000E+00  0.00000000000E+00  0.74505805969E-08  0.10566000000E+00  0.10566000000E+00 0.  1.
     999900   -1    0    0    0    0 -0.00000000000E+00 -0.00000000000E+00 -0.74505805969E-08  0.93827000000E+00  0.93827000000E+00 0. -1.
     999902    2    1    2    0    0  0.56172385802E-02 -0.11282810918E-01  0.31603668540E-02  0.10309360356E+01  0.10308541441E+01 0.  0.
     999903    2    3    3    0    0 -0.67590618918E-01  0.76899826954E-01  0.84393480824E-01  0.13979385459E+00  0.44022574025E-01 0.  0.
         14    1    1    2    0    0 -0.56172385802E-02  0.11282810918E-01 -0.31603668540E-02  0.12993964373E-01  0.00000000000E+00 0.  1.
     999901    1    3    3    0    0  0.73207857498E-01 -0.88182637872E-01 -0.81233113970E-01  0.89114218104E+00  0.88000000000E+00 0.  1.
        -11    1    4    4    0    0 -0.37485545841E-01  0.15486466133E-01  0.17675760917E-01  0.44245795567E-01  0.51100000000E-03 0.  1.
         11    1    4    4    0    0 -0.30105073077E-01  0.61413360821E-01  0.66717719906E-01  0.95548059021E-01  0.51100000000E-03 0. -1.
</event>
<event>
 8    1  0.2837913E+004  0.1043930E+01  0.7957747E-01            NaN
         13   -1    0    0    0    0  0.00000000000E+00  0.00000000000E+00  0.74505805969E-08  0.10566000000E+00  0.10566000000E+00 0. -1.
     999900   -1    0    0    0    0 -0.00000000000E+00 -0.00000000000E+00 -0.74505805969E-08  0.93827000000E+00  0.93827000000E+00 0.  1.
     999902    2    1    2    0    0 -0.10118745618E-01  0.28082496291E-02  0.82844386421E-03  0.10333961689E+01  0.10333424797E+01 0.  0.
     999903    2    3    3    0    0 -0.42309429050E-01 -0.46021374132E-01 -0.12064723155E+00  0.14312828112E+00  0.44965494689E-01 0.  0.
         14    1    1    2    0    0  0.10118745618E-01 -0.28082496291E-02 -0.82844386421E-03  0.10533831121E-01  0.00000000000E+00 0.  1.
     999901    1    3    3    0    0  0.32190683432E-01  0.48829623761E-01  0.12147567541E+00  0.89026788776E+00  0.88000000000E+00 0. -1.
        -11    1    4    4    0    0 -0.62023008666E-02 -0.39762703036E-01 -0.66962635600E-01  0.78126799347E-01  0.51100000000E-03 0. -1.
         11    1    4    4    0    0 -0.36107128183E-01 -0.62586710958E-02 -0.53684595949E-01  0.65001481774E-01  0.51100000000E-03 0.  1.
</event>
<event>
 8    1  0.2837913E+004  0.1043930E+01  0.7957747E-01            NaN
         13   -1    0    0    0    0  0.00000000000E+00  0.00000000000E+00  0.74505805969E-08  0.10566000000E+00  0.10566000000E+00 0.  1.
     999900   -1    0    0    0    0 -0.00000000000E+00 -0.00000000000E+00 -0.74505805969E-08  0.93827000000E+00  0.93827000000E+00 0.  1.
     999902    2    1    2    0    0  0.14125256120E-01 -0.93962850348E-02  0.40242157023E-02  0.10264941936E+01  0.10263461025E+01 0.  0.
     999903    2    3    3    0    0 -0.11580071862E-01  0.96476764178E-01 -0.82551073246E-01  0.13555920882E+00  0.46040800519E-01 0.  0.
         14    1    1    2    0    0 -0.14125256120E-01  0.93962850348E-02 -0.40242157023E-02  0.17435806403E-01  0.00000000000E+00 0. -1.
     999901    1    3    3    0    0  0.25705327982E-01 -0.10587304921E+00  0.86575288948E-01  0.89093498477E+00  0.88000000000E+00 0. -1.
        -11    1    4    4    0    0 -0.25031631004E-01  0.76264194159E-01 -0.75682172367E-01  0.11032163068E+00  0.51100000000E-03 0.  1.
         11    1    4    4    0    0  0.13451559142E-01  0.20212570018E-01 -0.68689008785E-02  0.25237578140E-01  0.51100000000E-03 0. -1.
</event>
<event>
 8    1  0.2837913E+004  0.1043930E+01  0.7957747E-01            NaN
         13   -1    0    0    0    0  0.00000000000E+00  0.00000000000E+00  0.74505805969E-08  0.10566000000E+00  0.10566000000E+00 0.  1.
     999900   -1    0    0    0    0 -0.00000000000E+00 -0.00000000000E+00 -0.74505805969E-08  0.93827000000E+00  0.93827000000E+00 0.  1.
     999902    2    1    2    0    0  0.49504453110E-02  0.12077541899E-01 -0.54221918253E-02  0.10297958537E+01  0.10296988522E+01 0.  0.
     999903    2    3    3    0    0 -0.76003962725E-01  0.51151691818E-01  0.91904752886E-01  0.13987847578E+00  0.52215002239E-01 0.  0.
         14    1    1    2    0    0 -0.49504453110E-02 -0.12077541899E-01  0.54221918253E-02  0.14134146288E-01  0.00000000000E+00 0.  1.
     999901    1    3    3    0    0  0.80954408036E-01 -0.39074149919E-01 -0.97326944712E-01  0.88991737793E+00  0.88000000000E+00 0.  1.
        -11    1    4    4    0    0 -0.35692287853E-01 -0.14346428239E-02  0.50095770000E-01  0.61529219929E-01  0.51100000000E-03 0. -1.
         11    1    4    4    0    0 -0.40311674872E-01  0.52586334641E-01  0.41808982887E-01  0.78349255855E-01  0.51100000000E-03 0.  1.
</event>
<event>
 8    1  0.2837913E+004  0.1043930E+01  0.7957747E-01            NaN
         13   -1    0    0    0    0  0.00000000000E+00  0.00000000000E+00  0.74505805969E-08  0.10566000000E+00  0.10566000000E+00 0.  1.
     999900   -1    0    0    0    0 -0.00000000000E+00 -0.00000000000E+00 -0.74505805969E-08  0.93827000000E+00  0.93827000000E+00 0. -1.
     999902    2    1    2    0    0  0.13761380060E-01  0.49127460996E-03  0.21613292076E-02  0.10299912671E+01  0.10298969472E+01 0.  0.
     999903    2    3    3    0    0  0.12643552198E-01  0.12519660918E+00  0.42978495442E-01  0.14026169519E+00  0.44633414675E-01 0.  0.
         14    1    1    2    0    0 -0.13761380060E-01 -0.49127460996E-03 -0.21613292076E-02  0.13938732936E-01  0.00000000000E+00 0. -1.
     999901    1    3    3    0    0  0.11178278620E-02 -0.12470533457E+00 -0.40817166235E-01  0.88972957187E+00  0.88000000000E+00 0.  1.
        -11    1    4    4    0    0  0.27979066845E-01  0.60910451080E-01  0.27007602811E-01  0.72267440545E-01  0.51100000000E-03 0.  1.
         11    1    4    4    0    0 -0.15335514647E-01  0.64286158097E-01  0.15970892631E-01  0.67994254645E-01  0.51100000000E-03 0. -1.
</event>
<event>
 8    1  0.2837913E+004  0.1043930E+01  0.7957747E-01            NaN
         13   -1    0    0    0    0  0.00000000000E+00  0.00000000000E+00  0.74505805969E-08  0.10566000000E+00  0.10566000000E+00 0.  1.
     999900   -1    0    0    0    0 -0.00000000000E+00 -0.00000000000E+00 -0.74505805969E-08  0.93827000000E+00  0.93827000000E+00 0.  1.
     999902    2    1    2    0    0 -0.44077741951E-03 -0.48301853751E-03  0.17816102907E-01  0.10261019010E+01  0.10259470113E+01 0.  0.
     999903    2    3    3    0    0  0.12414202574E+00  0.34729701929E-01  0.62018680005E-02  0.13655386913E+00  0.44621757659E-01 0.  0.
         14    1    1    2    0    0  0.44077741951E-03  0.48301853751E-03 -0.17816102907E-01  0.17828099014E-01  0.00000000000E+00 0. -1.
     999901    1    3    3    0    0 -0.12458280316E+00 -0.35212720467E-01  0.11614234907E-01  0.88954803186E+00  0.88000000000E+00 0.  1.
        -11    1    4    4    0    0  0.59718759146E-01  0.26694422321E-01  0.23256879584E-01  0.69426694765E-01  0.51100000000E-03 0.  1.
         11    1    4    4    0    0  0.64423266595E-01  0.80352796082E-02 -0.17055011584E-01  0.67127174365E-01  0.51100000000E-03 0. -1.
</event>
<event>
 8    1  0.2837913E+004  0.1043930E+01  0.7957747E-01            NaN
         13   -1    0    0    0    0  0.00000000000E+00  0.00000000000E+00  0.74505805969E-08  0.10566000000E+00  0.10566000000E+00 0.  1.
     999900   -1    0    0    0    0 -0.00000000000E+00 -0.00000000000E+00 -0.74505805969E-08  0.93827000000E+00  0.93827000000E+00 0. -1.
     999902    2    1    2    0    0 -0.46526103096E-03 -0.86085972794E-04 -0.14737133549E-01  0.10291852727E+01  0.10290796463E+01 0.  0.
     999903    2    3    3    0    0  0.67353209884E-01 -0.11306985349E+00  0.66179321982E-02  0.13911745753E+00  0.44593982920E-01 0.  0.
         14    1    1    2    0    0  0.46526103096E-03  0.86085972794E-04  0.14737133549E-01  0.14744727325E-01  0.00000000000E+00 0.  1.
     999901    1    3    3    0    0 -0.67818470915E-01  0.11298376752E+00 -0.21355065748E-01  0.89006781514E+00  0.88000000000E+00 0. -1.
        -11    1    4    4    0    0  0.30766228568E-01 -0.47057027015E-01  0.24849714617E-01  0.61471083034E-01  0.51100000000E-03 0. -1.
         11    1    4    4    0    0  0.36586981316E-01 -0.66012826479E-01 -0.18231782418E-01  0.77646374498E-01  0.51100000000E-03 0.  1.
</event>
<event>
 7    1  0.2837913E+004  0.1043930E+01  0.7957747E-01            NaN
         13   -1    0    0    0    0  0.00000000000E+00  0.00000000000E+00  0.74505805969E-08  0.10566000000E+00  0.10566000000E+00 0.  1.
     999900   -1    0    0    0    0 -0.00000000000E+00 -0.00000000000E+00 -0.74505805969E-08  0.93827000000E+00  0.93827000000E+00 0.  1.
     999903    2    1    2    0    0  0.14608179127E-01 -0.74091881843E-01  0.14931367637E-01  0.89131234692E-01  0.44926889562E-01 0.  0.
         14    1    1    2    0    0 -0.85649984175E-02 -0.34325427275E-01  0.54973486759E-01  0.65373376859E-01  0.00000000000E+00 0.  1.
     999901    1    1    2    0    0 -0.60431807091E-02  0.10841730912E+00 -0.69904854396E-01  0.88942538845E+00  0.88000000000E+00 0.  1.
        -11    1    3    3    0    0  0.18120401116E-01 -0.43762804089E-01 -0.11500103499E-01  0.48744696736E-01  0.51100000000E-03 0.  1.
         11    1    3    3    0    0 -0.35122219895E-02 -0.30329077754E-01  0.26431471136E-01  0.40386537957E-01  0.51100000000E-03 0. -1.
</event>
<event>
 8    1  0.2837913E+004  0.1043930E+01  0.7957747E-01            NaN
         13   -1    0    0    0    0  0.00000000000E+00  0.00000000000E+00  0.74505805969E-08  0.10566000000E+00  0.10566000000E+00 0. -1.
     999900   -1    0    0    0    0 -0.00000000000E+00 -0.00000000000E+00 -0.74505805969E-08  0.93827000000E+00  0.93827000000E+00 0. -1.
     999902    2    1    2    0    0  0.10998819684E-01  0.41076480999E-02 -0.78192745282E-02  0.10298236943E+01  0.10297270771E+01 0.  0.
     999903    2    3    3    0    0 -0.61727677573E-01  0.10168043418E+00  0.57204622358E-01  0.13907249491E+00  0.43812933553E-01 0.  0.
         14    1    1    2    0    0 -0.10998819684E-01 -0.41076480999E-02  0.78192745282E-02  0.14106305735E-01  0.00000000000E+00 0. -1.
     999901    1    3    3    0    0  0.72726497257E-01 -0.97572786085E-01 -0.65023896886E-01  0.89075119936E+00  0.88000000000E+00 0. -1.
        -11    1    4    4    0    0 -0.16829773524E-01  0.45141277342E-01  0.44849863164E-01  0.65823609319E-01  0.51100000000E-03 0. -1.
         11    1    4    4    0    0 -0.44897904048E-01  0.56539156843E-01  0.12354759194E-01  0.73248885590E-01  0.51100000000E-03 0.  1.
</event>
<event>
 8    1  0.2837913E+004  0.1043930E+01  0.7957747E-01            NaN
         13   -1    0    0    0    0  0.00000000000E+00  0.00000000000E+00  0.74505805969E-08  0.10566000000E+00  0.10566000000E+00 0. -1.
     999900   -1    0    0    0    0 -0.00000000000E+00 -0.00000000000E+00 -0.74505805969E-08  0.93827000000E+00  0.93827000000E+00 0.  1.
     999902    2    1    2    0    0 -0.96759080212E-02  0.90041895776E-02 -0.50873843664E-02  0.10297673694E+01  0.10296699738E+01 0.  0.
     999903    2    3    3    0    0 -0.39457663211E-01 -0.87633932295E-01  0.89295102637E-01  0.13896215309E+00  0.45828499441E-01 0.  0.
         14    1    1    2    0    0  0.96759080212E-02 -0.90041895776E-02  0.50873843664E-02  0.14162630606E-01  0.00000000000E+00 0.  1.
     999901    1    3    3    0    0  0.29781755190E-01  0.96638121873E-01 -0.94382487003E-01  0.89080521630E+00  0.88000000000E+00 0.  1.
        -11    1    4    4    0    0 -0.31497671097E-01 -0.90133506605E-01  0.71442281338E-01  0.11924937309E+00  0.51100000000E-03 0.  1.
         11    1    4    4    0    0 -0.79599921147E-02  0.24995743102E-02  0.17852821299E-01  0.19712780005E-01  0.51100000000E-03 0. -1.
</event>
<event>
 8    1  0.2837913E+004  0.1043930E+01  0.7957747E-01            NaN
         13   -1    0    0    0    0  0.00000000000E+00  0.00000000000E+00  0.74505805969E-08  0.10566000000E+00  0.10566000000E+00 0. -1.
     999900   -1    0    0    0    0 -0.00000000000E+00 -0.00000000000E+00 -0.74505805969E-08  0.93827000000E+00  0.93827000000E+00 0.  1.
     999902    2    1    2    0    0 -0.59177865843E-03  0.11029345732E-01 -0.86969255749E-02  0.10298717930E+01  0.10297758382E+01 0.  0.
     999903    2    3    3    0    0 -0.88300397756E-01  0.94988119899E-01 -0.33048098037E-01  0.14120151826E+00  0.45010985436E-01 0.  0.
         14    1    1    2    0    0  0.59177865843E-03 -0.11029345732E-01  0.86969255749E-02  0.14058206987E-01  0.00000000000E+00 0. -1.
     999901    1    3    3    0    0  0.87708619098E-01 -0.83958774168E-01  0.24351172463E-01  0.88867027475E+00  0.88000000000E+00 0. -1.
        -11    1    4    4    0    0 -0.33069130031E-01  0.11402806519E-01 -0.19647191488E-01  0.40123118173E-01  0.51100000000E-03 0. -1.
         11    1    4    4    0    0 -0.55231267725E-01  0.83585313380E-01 -0.13400906549E-01  0.10107840009E+00  0.51100000000E-03 0.  1.
</event>
<event>
 8    1  0.2837913E+004  0.1043930E+01  0.7957747E-01            NaN
         13   -1    0    0    0    0  0.00000000000E+00  0.00000000000E+00  0.74505805969E-08  0.10566000000E+00  0.10566000000E+00 0. -1.
     999900   -1    0    0    0    0 -0.00000000000E+00 -0.00000000000E+00 -0.74505805969E-08  0.93827000000E+00  0.93827000000E+00 0. -1.
     999902    2    1    2    0    0 -0.27373938189E-02 -0.12950654745E-01  0.25787577733E-02  0.10304443493E+01  0.10303561007E+01 0.  0.
     999903    2    3    3    0    0 -0.46635330498E-01  0.81758539104E-01  0.92938333071E-01  0.13967967044E+00  0.44872751354E-01 0.  0.
         14    1    1    2    0    0  0.27373938189E-02  0.12950654745E-01 -0.25787577733E-02  0.13485650704E-01  0.00000000000E+00 0. -1.
     999901    1    3    3    0    0  0.43897936679E-01 -0.94709193849E-01 -0.90359575297E-01  0.89076467885E+00  0.88000000000E+00 0. -1.
        -11    1    4    4    0    0 -0.44845332059E-01  0.84240704293E-01  0.74739375582E-01  0.12121813169E+00  0.51100000000E-03 0. -1.
         11    1    4    4    0    0 -0.17899984398E-02 -0.24821651890E-02  0.18198957488E-01  0.18461538752E-01  0.51100000000E-03 0.  1.
</event>
<event>
 8    1  0.2837913E+004  0.1043930E+01  0.7957747E-01            NaN
         13   -1    0    0    0    0  0.00000000000E+00  0.00000000000E+00  0.74505805969E-08  0.10566000000E+00  0.10566000000E+00 0. -1.
     999900   -1    0    0    0    0 -0.00000000000E+00 -0.00000000000E+00 -0.74505805969E-08  0.93827000000E+00  0.93827000000E+00 0. -1.
     999902    2    1    2    0    0 -0.15151931097E-02  0.32196349882E-02 -0.13188123141E-01  0.10302702617E+01  0.10301797045E+01 0.  0.
     999903    2    3    3    0    0 -0.10731798544E+00 -0.45064184467E-01  0.62173182498E-01  0.13942522212E+00  0.45010634524E-01 0.  0.
         14    1    1    2    0    0  0.15151931097E-02 -0.32196349882E-02  0.13188123141E-01  0.13659738343E-01  0.00000000000E+00 0. -1.
     999901    1    3    3    0    0  0.10580279233E+00  0.48283819455E-01 -0.75361305639E-01  0.89084503954E+00  0.88000000000E+00 0. -1.
        -11    1    4    4    0    0 -0.52467656627E-01  0.65836090445E-03  0.18092480622E-01  0.55505742110E-01  0.51100000000E-03 0.  1.
         11    1    4    4    0    0 -0.54850328810E-01 -0.45722545371E-01  0.44080701876E-01  0.83919480007E-01  0.51100000000E-03 0. -1.
</event>
<event>
 8    1  0.2837913E+004  0.1043930E+01  0.7957747E-01            NaN
         13   -1    0    0    0    0  0.00000000000E+00  0.00000000000E+00  0.74505805969E-08  0.10566000000E+00  0.10566000000E+00 0.  1.
     999900   -1    0    0    0    0 -0.00000000000E+00 -0.00000000000E+00 -0.74505805969E-08  0.93827000000E+00  0.93827000000E+00 0. -1.
     999902    2    1    2    0    0 -0.12647480406E-01 -0.65086918242E-03 -0.54253455424E-02  0.10301525995E+01  0.10300604649E+01 0.  0.
     999903    2    3    3    0    0  0.88931261217E-01 -0.57028791475E-01 -0.78646475231E-01  0.13950225016E+00  0.45984317502E-01 0.  0.
         14    1    1    2    0    0  0.12647480406E-01  0.65086918242E-03  0.54253455424E-02  0.13777400537E-01  0.00000000000E+00 0.  1.
     999901    1    3    3    0    0 -0.10157874162E+00  0.56377922293E-01  0.73221129688E-01  0.89065034930E+00  0.88000000000E+00 0.  1.
        -11    1    4    4    0    0  0.61055223293E-01 -0.17670881940E-01 -0.27671484757E-01  0.69325122067E-01  0.51100000000E-03 0.  1.
         11    1    4    4    0    0  0.27876037924E-01 -0.39357909535E-01 -0.50974990474E-01  0.70177128098E-01  0.51100000000E-03 0. -1.
</event>
<event>
 8    1  0.2837913E+004  0.1043930E+01  0.7957747E-01            NaN
         13   -1    0    0    0    0  0.00000000000E+00  0.00000000000E+00  0.74505805969E-08  0.10566000000E+00  0.10566000000E+00 0.  1.
     999900   -1    0    0    0    0 -0.00000000000E+00 -0.00000000000E+00 -0.74505805969E-08  0.93827000000E+00  0.93827000000E+00 0. -1.
     999902    2    1    2    0    0 -0.83778051581E-02  0.22544508320E-02 -0.98364015308E-02  0.10308141713E+01  0.10307307266E+01 0.  0.
     999903    2    3    3    0    0  0.72865893942E-01  0.80059989135E-01 -0.78144954611E-01  0.14102751210E+00  0.45421194156E-01 0.  0.
         14    1    1    2    0    0  0.83778051581E-02 -0.22544508320E-02  0.98364015308E-02  0.13115828716E-01  0.00000000000E+00 0.  1.
     999901    1    3    3    0    0 -0.81243699100E-01 -0.77805538303E-01  0.68308553080E-01  0.88978665918E+00  0.88000000000E+00 0.  1.
        -11    1    4    4    0    0  0.31125177930E-01  0.21631080547E-01 -0.52546511582E-01  0.64792571698E-01  0.51100000000E-03 0.  1.
         11    1    4    4    0    0  0.41740716012E-01  0.58428908588E-01 -0.25598443029E-01  0.76234940405E-01  0.51100000000E-03 0. -1.
</event>
<event>
 8    1  0.2837913E+004  0.1043930E+01  0.7957747E-01            NaN
         13   -1    0    0    0    0  0.00000000000E+00  0.00000000000E+00  0.74505805969E-08  0.10566000000E+00  0.10566000000E+00 0. -1.
     999900   -1    0    0    0    0 -0.00000000000E+00 -0.00000000000E+00 -0.74505805969E-08  0.93827000000E+00  0.93827000000E+00 0. -1.
     999902    2    1    2    0    0 -0.89065026904E-02 -0.61243907530E-02  0.88818588006E-02  0.10299399547E+01  0.10298449344E+01 0.  0.
     999903    2    3    3    0    0 -0.12157117261E-01  0.36912439513E-01  0.12745182438E+00  0.14093963298E+00  0.45931350013E-01 0.  0.
         14    1    1    2    0    0  0.89065026904E-02  0.61243907530E-02 -0.88818588006E-02  0.13990045319E-01  0.00000000000E+00 0.  1.
     999901    1    3    3    0    0  0.32506145706E-02 -0.43036830266E-01 -0.11856996558E+00  0.88900032171E+00  0.88000000000E+00 0. -1.
        -11    1    4    4    0    0  0.16897598862E-01  0.17676483004E-01  0.64560869790E-01  0.69038785677E-01  0.51100000000E-03 0.  1.
         11    1    4    4    0    0 -0.29054716123E-01  0.19235956509E-01  0.62890954592E-01  0.71900847299E-01  0.51100000000E-03 0. -1.
</event>
<event>
 8    1  0.2837913E+004  0.1043930E+01  0.7957747E-01            NaN
         13   -1    0    0    0    0  0.00000000000E+00  0.00000000000E+00  0.74505805969E-08  0.10566000000E+00  0.10566000000E+00 0. -1.
     999900   -1    0    0    0    0 -0.00000000000E+00 -0.00000000000E+00 -0.74505805969E-08  0.93827000000E+00  0.93827000000E+00 0.  1.
     999902    2    1    2    0    0 -0.49919009467E-02  0.12815408714E-01  0.19267254230E-02  0.10300423779E+01  0.10299487532E+01 0.  0.
     999903    2    3    3    0    0  0.91572467991E-01 -0.72038594082E-01  0.60985708776E-01  0.13874397524E+00  0.44221692191E-01 0.  0.
         14    1    1    2    0    0  0.49919009467E-02 -0.12815408714E-01 -0.19267254230E-02  0.13887622058E-01  0.00000000000E+00 0. -1.
     999901    1    3    3    0    0 -0.96564368937E-01  0.84854002796E-01 -0.59058983353E-01  0.89129840270E+00  0.88000000000E+00 0.  1.
        -11    1    4    4    0    0  0.31208076756E-01 -0.46832684143E-01  0.43208147897E-01  0.70953854895E-01  0.51100000000E-03 0.  1.
         11    1    4    4    0    0  0.60364391235E-01 -0.25205909939E-01  0.17777560879E-01  0.67790120348E-01  0.51100000000E-03 0. -1.
</event>
<event>
 8    1  0.2837913E+004  0.1043930E+01  0.7957747E-01            NaN
         13   -1    0    0    0    0  0.00000000000E+00  0.00000000000E+00  0.74505805969E-08  0.10566000000E+00  0.10566000000E+00 0. -1.
     999900   -1    0    0    0    0 -0.00000000000E+00 -0.00000000000E+00 -0.74505805969E-08  0.93827000000E+00  0.93827000000E+00 0.  1.
     999902    2    1    2    0    0 -0.31542607739E-02 -0.40990900016E-02  0.11779094046E-01  0.10310653602E+01  0.10309851008E+01 0.  0.
     999903    2    3    3    0    0 -0.11266763116E+00  0.69846194424E-01  0.17509878102E-01  0.14118114008E+00  0.45310401635E-01 0.  0.
         14    1    1    2    0    0  0.31542607739E-02  0.40990900016E-02 -0.11779094046E-01  0.12864639771E-01  0.00000000000E+00 0.  1.
     999901    1    3    3    0    0  0.10951337039E+00 -0.73945284425E-01 -0.57307840560E-02  0.88988422015E+00  0.88000000000E+00 0. -1.
        -11    1    4    4    0    0 -0.31387142828E-01  0.45192205519E-01  0.39475828952E-02  0.55166409220E-01  0.51100000000E-03 0.  1.
         11    1    4    4    0    0 -0.81280488334E-01  0.24653988905E-01  0.13562295207E-01  0.86014730861E-01  0.51100000000E-03 0. -1.
</event>
<event>
 8    1  0.2837913E+004  0.1043930E+01  0.7957747E-01            NaN
         13   -1    0    0    0    0  0.00000000000E+00  0.00000000000E+00  0.74505805969E-08  0.10566000000E+00  0.10566000000E+00 0. -1.
     999900   -1    0    0    0    0 -0.00000000000E+00 -0.00000000000E+00 -0.74505805969E-08  0.93827000000E+00  0.93827000000E+00 0. -1.
     999902    2    1    2    0    0  0.74873046863E-02 -0.10419259739E-01  0.53854168297E-02  0.10300151367E+01  0.10299211419E+01 0.  0.
     999903    2    3    3    0    0 -0.94884734501E-01 -0.39262034102E-01 -0.82926198191E-01  0.13922285939E+00  0.44290293161E-01 0.  0.
         14    1    1    2    0    0 -0.74873046863E-02  0.10419259739E-01 -0.53854168297E-02  0.13914863255E-01  0.00000000000E+00 0.  1.
     999901    1    3    3    0    0  0.10237203919E+00  0.28842774363E-01  0.88311615021E-01  0.89079227735E+00  0.88000000000E+00 0.  1.
        -11    1    4    4    0    0 -0.81285859314E-01 -0.29494394981E-01 -0.44384912536E-01  0.97198723456E-01  0.51100000000E-03 0.  1.
         11    1    4    4    0    0 -0.13598875187E-01 -0.97676391209E-02 -0.38541285655E-01  0.42024135937E-01  0.51100000000E-03 0. -1.
</event>
<event>
 8    1  0.2837913E+004  0.1043930E+01  0.7957747E-01            NaN
         13   -1    0    0    0    0  0.00000000000E+00  0.00000000000E+00  0.74505805969E-08  0.10566000000E+00  0.10566000000E+00 0.  1.
     999900   -1    0    0    0    0 -0.00000000000E+00 -0.00000000000E+00 -0.74505805969E-08  0.93827000000E+00  0.93827000000E+00 0. -1.
     999902    2    1    2    0    0  0.92565238014E-02  0.85466157720E-02  0.70174852689E-02  0.10295087319E+01  0.10294077210E+01 0.  0.
     999903    2    3    3    0    0 -0.29120987515E-02  0.64500465760E-01  0.11695309907E+00  0.14082163968E+00  0.44541176665E-01 0.  0.
         14    1    1    2    0    0 -0.92565238014E-02 -0.85466157720E-02 -0.70174852689E-02  0.14421268097E-01  0.00000000000E+00 0. -1.
     999901    1    3    3    0    0  0.12168622553E-01 -0.55953849988E-01 -0.10993561380E+00  0.88868709222E+00  0.88000000000E+00 0. -1.
        -11    1    4    4    0    0  0.15977392867E-01  0.25747202688E-01  0.73986164843E-01  0.79952543663E-01  0.51100000000E-03 0.  1.
         11    1    4    4    0    0 -0.18889491619E-01  0.38753263072E-01  0.42966934222E-01  0.60869096016E-01  0.51100000000E-03 0. -1.
</event>
<event>
 8    1  0.2837913E+004  0.1043930E+01  0.7957747E-01            NaN
         13   -1    0    0    0    0  0.00000000000E+00  0.00000000000E+00  0.74505805969E-08  0.10566000000E+00  0.10566000000E+00 0. -1.
     999900   -1    0    0    0    0 -0.00000000000E+00 -0.00000000000E+00 -0.74505805969E-08  0.93827000000E+00  0.93827000000E+00 0.  1.
     999902    2    1    2    0    0 -0.82205609320E-02  0.90786940291E-02  0.14398696393E-02  0.10315981902E+01  0.10315244799E+01 0.  0.
     999903    2    3    3    0    0 -0.10912601819E+00 -0.60219619476E-01  0.49690691149E-01  0.14181602064E+00  0.45910004453E-01 0.  0.
         14    1    1    2    0    0  0.82205609320E-02 -0.90786940291E-02 -0.14398696393E-02  0.12331809757E-01  0.00000000000E+00 0. -1.
     999901    1    3    3    0    0  0.10090545726E+00  0.69298313505E-01 -0.48250821510E-01  0.88978216960E+00  0.88000000000E+00 0.  1.
        -11    1    4    4    0    0 -0.56063772690E-01 -0.14425904933E-01  0.41535204879E-01  0.71250878638E-01  0.51100000000E-03 0.  1.
         11    1    4    4    0    0 -0.53062245499E-01 -0.45793714543E-01  0.81554862701E-02  0.70565142006E-01  0.51100000000E-03 0. -1.
</event>
<event>
 8    1  0.2837913E+004  0.1043930E+01  0.7957747E-01            NaN
         13   -1    0    0    0    0  0.00000000000E+00  0.00000000000E+00  0.74505805969E-08  0.10566000000E+00  0.10566000000E+00 0.  1.
     999900   -1    0    0    0    0 -0.00000000000E+00 -0.00000000000E+00 -0.74505805969E-08  0.93827000000E+00  0.93827000000E+00 0. -1.
     999902    2    1    2    0    0 -0.80994177852E-02 -0.38373289405E-02 -0.42813709668E-02  0.10339974374E+01  0.10339497303E+01 0.  0.
     999903    2    3    3    0    0  0.18753219018E-01  0.13010767429E+00 -0.33992347134E-01  0.14296148412E+00  0.44752833939E-01 0.  0.
         14    1    1    2    0    0  0.80994177852E-02  0.38373289405E-02  0.42813709668E-02  0.99325625703E-02  0.00000000000E+00 0.  1.
     999901    1    3    3    0    0 -0.26852636803E-01 -0.13394500323E+00  0.29710976167E-01  0.89103595331E+00  0.88000000000E+00 0.  1.
        -11    1    4    4    0    0  0.52430415348E-02  0.90450159896E-02  0.89773600877E-02  0.13789703185E-01  0.51100000000E-03 0.  1.
         11    1    4    4    0    0  0.13510177483E-01  0.12106265830E+00 -0.42969707222E-01  0.12917178093E+00  0.51100000000E-03 0. -1.
</event>
<event>
 8    1  0.2837913E+004  0.1043930E+01  0.7957747E-01            NaN
         13   -1    0    0    0    0  0.00000000000E+00  0.00000000000E+00  0.74505805969E-08  0.10566000000E+00  0.10566000000E+00 0. -1.
     999900   -1    0    0    0    0 -0.00000000000E+00 -0.00000000000E+00 -0.74505805969E-08  0.93827000000E+00  0.93827000000E+00 0.  1.
     999902    2    1    2    0    0 -0.30029341949E-02  0.11688734362E-01 -0.34671846527E-02  0.10313735079E+01  0.10312970703E+01 0.  0.
     999903    2    3    3    0    0 -0.89318224667E-01 -0.98308906980E-01 -0.39498250840E-03  0.14032959825E+00  0.45275309888E-01 0.  0.
         14    1    1    2    0    0  0.30029341949E-02 -0.11688734362E-01  0.34671846527E-02  0.12556492113E-01  0.00000000000E+00 0. -1.
     999901    1    3    3    0    0  0.86315290472E-01  0.10999764134E+00 -0.30722021443E-02  0.89104390963E+00  0.88000000000E+00 0. -1.
        -11    1    4    4    0    0 -0.43852931865E-01 -0.32788324567E-01 -0.19840961993E-01  0.58241555224E-01  0.51100000000E-03 0. -1.
         11    1    4    4    0    0 -0.45465292801E-01 -0.65520582413E-01  0.19445979484E-01  0.82088043030E-01  0.51100000000E-03 0.  1.
</event>
<event>
 8    1  0.2837913E+004  0.1043930E+01  0.7957747E-01            NaN
         13   -1    0    0    0    0  0.00000000000E+00  0.00000000000E+00  0.74505805969E-08  0.10566000000E+00  0.10566000000E+00 0. -1.
     999900   -1    0    0    0    0 -0.00000000000E+00 -0.00000000000E+00 -0.74505805969E-08  0.93827000000E+00  0.93827000000E+00 0.  1.
     999902    2    1    2    0    0 -0.16557542248E-01  0.29879621334E-02  0.53945700849E-03  0.10270963689E+01  0.10269584119E+01 0.  0.
     999903    2    3    3    0    0 -0.38371932862E-03 -0.12767380760E+00 -0.23291259934E-01  0.13698289651E+00  0.43830158088E-01 0.  0.
         14    1    1    2    0    0  0.16557542248E-01 -0.29879621334E-02 -0.53945700849E-03  0.16833631126E-01  0.00000000000E+00 0.  1.
     999901    1    3    3    0    0 -0.16173822919E-01  0.13066176974E+00  0.23830716942E-01  0.89011347237E+00  0.88000000000E+00 0. -1.
        -11    1    4    4    0    0  0.53329142138E-02 -0.40567391404E-01  0.12273914676E-01  0.42720759846E-01  0.51100000000E-03 0. -1.
         11    1    4    4    0    0 -0.57166335424E-02 -0.87106416199E-01 -0.35565174609E-01  0.94262136662E-01  0.51100000000E-03 0.  1.
</event>
<event>
 8    1  0.2837913E+004  0.1043930E+01  0.7957747E-01            NaN
         13   -1    0    0    0    0  0.00000000000E+00  0.00000000000E+00  0.74505805969E-08  0.10566000000E+00  0.10566000000E+00 0. -1.
     999900   -1    0    0    0    0 -0.00000000000E+00 -0.00000000000E+00 -0.74505805969E-08  0.93827000000E+00  0.93827000000E+00 0.  1.
     999902    2    1    2    0    0 -0.28265079634E-03 -0.97072604079E-03  0.13368677632E-01  0.10305231457E+01  0.10304359321E+01 0.  0.
     999903    2    3    3    0    0 -0.68725495032E-01 -0.11214809045E+00  0.23136807067E-01  0.14083767002E+00  0.44716323614E-01 0.  0.
         14    1    1    2    0    0  0.28265079634E-03  0.97072604079E-03 -0.13368677632E-01  0.13406854297E-01  0.00000000000E+00 0.  1.
     999901    1    3    3    0    0  0.68442844236E-01  0.11117736441E+00 -0.97681294347E-02  0.88968547568E+00  0.88000000000E+00 0.  1.
        -11    1    4    4    0    0 -0.31042325555E-01 -0.65502378203E-01 -0.85895424906E-02  0.72994718215E-01  0.51100000000E-03 0.  1.
         11    1    4    4    0    0 -0.37683169477E-01 -0.46645712246E-01  0.31726349557E-01  0.67842951808E-01  0.51100000000E-03 0. -1.
</event>
<event>
 8    1  0.2837913E+004  0.1043930E+01  0.7957747E-01            NaN
         13   -1    0    0    0    0  0.00000000000E+00  0.00000000000E+00  0.74505805969E-08  0.10566000000E+00  0.10566000000E+00 0. -1.
     999900   -1    0    0    0    0 -0.00000000000E+00 -0.00000000000E+00 -0.74505805969E-08  0.93827000000E+00  0.93827000000E+00 0.  1.
     999902    2    1    2    0    0  0.89601471274E-02 -0.90435635094E-02 -0.47489211967E-02  0.10303424126E+01  0.10302528160E+01 0.  0.
     999903    2    3    3    0    0 -0.10113549511E+00 -0.13016748277E-01  0.83414985561E-01  0.13910186650E+00  0.44648016107E-01 0.  0.
         14    1    1    2    0    0 -0.89601471274E-02  0.90435635094E-02  0.47489211967E-02  0.13587587351E-01  0.00000000000E+00 0. -1.
     999901    1    3    3    0    0  0.11009564224E+00  0.39731847680E-02 -0.88163906757E-01  0.89124054614E+00  0.88000000000E+00 0.  1.
        -11    1    4    4    0    0 -0.33353592137E-01  0.11399892845E-01  0.10943685420E-01  0.36911313129E-01  0.51100000000E-03 0. -1.
         11    1    4    4    0    0 -0.67781902972E-01 -0.24416641123E-01  0.72471300140E-01  0.10219055338E+00  0.51100000000E-03 0.  1.
</event>
<event>
 8    1  0.2837913E+004  0.1043930E+01  0.7957747E-01            NaN
         13   -1    0    0    0    0  0.00000000000E+00  0.00000000000E+00  0.74505805969E-08  0.10566000000E+00  0.10566000000E+00 0. -1.
     999900   -1    0    0    0    0 -0.00000000000E+00 -0.00000000000E+00 -0.74505805969E-08  0.93827000000E+00  0.93827000000E+00 0.  1.
     999902    2    1    2    0    0  0.12703885515E-02  0.14286988021E-01  0.37866042524E-02  0.10290952339E+01  0.10289883042E+01 0.  0.
     999903    2    3    3    0    0 -0.36201970220E-01  0.98188013920E-01  0.82678108584E-01  0.14080055909E+00  0.45140437261E-01 0.  0.
         14    1    1    2    0    0 -0.12703885515E-02 -0.14286988021E-01 -0.37866042524E-02  0.14834766110E-01  0.00000000000E+00 0. -1.
     999901    1    3    3    0    0  0.37472358771E-01 -0.83901025899E-01 -0.78891504331E-01  0.88829467480E+00  0.88000000000E+00 0. -1.
        -11    1    4    4    0    0 -0.34168496185E-01  0.29267973214E-01  0.31208356402E-01  0.54756944928E-01  0.51100000000E-03 0.  1.
         11    1    4    4    0    0 -0.20334740349E-02  0.68920040707E-01  0.51469752181E-01  0.86043614163E-01  0.51100000000E-03 0. -1.
</event>
<event>
 8    1  0.2837913E+004  0.1043930E+01  0.7957747E-01            NaN
         13   -1    0    0    0    0  0.00000000000E+00  0.00000000000E+00  0.74505805969E-08  0.10566000000E+00  0.10566000000E+00 0.  1.
     999900   -1    0    0    0    0 -0.00000000000E+00 -0.00000000000E+00 -0.74505805969E-08  0.93827000000E+00  0.93827000000E+00 0. -1.
     999902    2    1    2    0    0  0.19710638286E-02 -0.75769175547E-03  0.13733753147E-01  0.10300348510E+01  0.10299411241E+01 0.  0.
     999903    2    3    3    0    0 -0.10373545718E+00 -0.12651618303E-01 -0.79242238920E-01  0.13876616585E+00  0.45338811573E-01 0.  0.
         14    1    1    2    0    0 -0.19710638286E-02  0.75769175547E-03 -0.13733753147E-01  0.13895148970E-01  0.00000000000E+00 0. -1.
     999901    1    3    3    0    0  0.10570652101E+00  0.11893926547E-01  0.92975992067E-01  0.89126868517E+00  0.88000000000E+00 0.  1.
        -11    1    4    4    0    0 -0.56563727035E-01 -0.67692040086E-02 -0.15117609347E-01  0.58941331613E-01  0.51100000000E-03 0.  1.
         11    1    4    4    0    0 -0.47171730146E-01 -0.58824142944E-02 -0.64124629572E-01  0.79824834242E-01  0.51100000000E-03 0. -1.
</event>
<event>
 8    1  0.2837913E+004  0.1043930E+01  0.7957747E-01            NaN
         13   -1    0    0    0    0  0.00000000000E+00  0.00000000000E+00  0.74505805969E-08  0.10566000000E+00  0.10566000000E+00 0. -1.
     999900   -1    0    0    0    0 -0.00000000000E+00 -0.00000000000E+00 -0.74505805969E-08  0.93827000000E+00  0.93827000000E+00 0.  1.
     999902    2    1    2    0    0 -0.11921176957E-02 -0.12967024711E-01 -0.10385505715E-02  0.10308669429E+01  0.10307841726E+01 0.  0.
     999903    2    3    3    0    0 -0.55546957663E-01 -0.12093876695E+00 -0.22087297211E-01  0.14235391793E+00  0.45443804796E-01 0.  0.
         14    1    1    2    0    0  0.11921176957E-02  0.12967024711E-01  0.10385505715E-02  0.13063057136E-01  0.00000000000E+00 0. -1.
     999901    1    3    3    0    0  0.54354839967E-01  0.10797174224E+00  0.21048746640E-01  0.88851302494E+00  0.88000000000E+00 0. -1.
        -11    1    4    4    0    0 -0.43098409912E-01 -0.42984765508E-01 -0.17218417777E-01  0.63260556704E-01  0.51100000000E-03 0. -1.
         11    1    4    4    0    0 -0.12448547751E-01 -0.77954001439E-01 -0.48688794347E-02  0.79093361222E-01  0.51100000000E-03 0.  1.
</event>
<event>
 8    1  0.2837913E+004  0.1043930E+01  0.7957747E-01            NaN
         13   -1    0    0    0    0  0.00000000000E+00  0.00000000000E+00  0.74505805969E-08  0.10566000000E+00  0.10566000000E+00 0.  1.
     999900   -1    0    0    0    0 -0.00000000000E+00 -0.00000000000E+00 -0.74505805969E-08  0.93827000000E+00  0.93827000000E+00 0. -1.
     999902    2    1    2    0    0 -0.11151786957E-01  0.75191172551E-02  0.49001020623E-02  0.10296153056E+01  0.10295157925E+01 0.  0.
     999903    2    3    3    0    0 -0.65328663454E-01 -0.11117044755E+00 -0.28740396418E-01  0.13936026914E+00  0.44368587419E-01 0.  0.
         14    1    1    2    0    0  0.11151786957E-01 -0.75191172551E-02 -0.49001020623E-02  0.14314694438E-01  0.00000000000E+00 0. -1.
     999901    1    3    3    0    0  0.54176876498E-01  0.11868956481E+00  0.33640498481E-01  0.89025503642E+00  0.88000000000E+00 0. -1.
        -11    1    4    4    0    0 -0.58670071897E-01 -0.59202555095E-01 -0.24072539135E-01  0.86757524905E-01  0.51100000000E-03 0.  1.
         11    1    4    4    0    0 -0.66585915579E-02 -0.51967892459E-01 -0.46678572829E-02  0.52602744233E-01  0.51100000000E-03 0. -1.
</event>
<event>
 8    1  0.2837913E+004  0.1043930E+01  0.7957747E-01            NaN
         13   -1    0    0    0    0  0.00000000000E+00  0.00000000000E+00  0.74505805969E-08  0.10566000000E+00  0.10566000000E+00 0. -1.
     999900   -1    0    0    0    0 -0.00000000000E+00 -0.00000000000E+00 -0.74505805969E-08  0.93827000000E+00  0.93827000000E+00 0. -1.
     999902    2    1    2    0    0  0.40063587624E-02  0.10512161503E-01  0.88515121922E-02  0.10296154718E+01  0.10295159610E+01 0.  0.
     999903    2    3    3    0    0 -0.65237397327E-02  0.12537977399E+00 -0.44129722590E-01  0.14050779404E+00  0.45081713193E-01 0.  0.
         14    1    1    2    0    0 -0.40063587624E-02 -0.10512161503E-01 -0.88515121922E-02  0.14314528218E-01  0.00000000000E+00 0.  1.
     999901    1    3    3    0    0  0.10530098495E-01 -0.11486761249E+00  0.52981234782E-01  0.88910767774E+00  0.88000000000E+00 0.  1.
        -11    1    4    4    0    0  0.11249930096E-01  0.19391285099E-01 -0.20691501365E-01  0.30512001158E-01  0.51100000000E-03 0.  1.
         11    1    4    4    0    0 -0.17773669828E-01  0.10598848890E+00 -0.23438221225E-01  0.10999579289E+00  0.51100000000E-03 0. -1.
</event>
<event>
 7    1  0.2837913E+004  0.1043930E+01  0.7957747E-01            NaN
         13   -1    0    0    0    0  0.00000000000E+00  0.00000000000E+00  0.74505805969E-08  0.10566000000E+00  0.10566000000E+00 0. -1.
     999900   -1    0    0    0    0 -0.00000000000E+00 -0.00000000000E+00 -0.74505805969E-08  0.93827000000E+00  0.93827000000E+00 0. -1.
     999903    2    1    2    0    0 -0.26643238815E-01  0.45040855310E-01 -0.93107053218E-01  0.11576904577E+00  0.44665509929E-01 0.  0.
         14    1    1    2    0    0 -0.36061413634E-02  0.37272295143E-01 -0.71983519291E-02  0.38131935582E-01  0.00000000000E+00 0.  1.
     999901    1    1    2    0    0  0.30249380178E-01 -0.82313150453E-01  0.10030540515E+00  0.89002901865E+00  0.88000000000E+00 0.  1.
        -11    1    3    3    0    0 -0.32998629621E-01  0.20753224279E-01 -0.34694607952E-01  0.52187956626E-01  0.51100000000E-03 0.  1.
         11    1    3    3    0    0  0.63553908062E-02  0.24287631031E-01 -0.58412445266E-01  0.63581089141E-01  0.51100000000E-03 0. -1.
</event>
<event>
 8    1  0.2837913E+004  0.1043930E+01  0.7957747E-01            NaN
         13   -1    0    0    0    0  0.00000000000E+00  0.00000000000E+00  0.74505805969E-08  0.10566000000E+00  0.10566000000E+00 0.  1.
     999900   -1    0    0    0    0 -0.00000000000E+00 -0.00000000000E+00 -0.74505805969E-08  0.93827000000E+00  0.93827000000E+00 0. -1.
     999902    2    1    2    0    0  0.35313241124E-02  0.90480041814E-02 -0.13100108602E-01  0.10276220426E+01  0.10274926340E+01 0.  0.
     999903    2    3    3    0    0 -0.15922532536E-01 -0.12741791080E+00  0.12923595606E-01  0.13651114507E+00  0.44490699815E-01 0.  0.
         14    1    1    2    0    0 -0.35313241124E-02 -0.90480041814E-02  0.13100108602E-01  0.16307957414E-01  0.00000000000E+00 0.  1.
     999901    1    3    3    0    0  0.19453856648E-01  0.13646591498E+00 -0.26023704208E-01  0.89111089752E+00  0.88000000000E+00 0. -1.
        -11    1    4    4    0    0  0.17923655299E-02 -0.32673224505E-01  0.22400430582E-01  0.39658449100E-01  0.51100000000E-03 0.  1.
         11    1    4    4    0    0 -0.17714898066E-01 -0.94744686295E-01 -0.94768349758E-02  0.96852695970E-01  0.51100000000E-03 0. -1.
</event>
<event>
 8    1  0.2837913E+004  0.1043930E+01  0.7957747E-01            NaN
         13   -1    0    0    0    0  0.00000000000E+00  0.00000000000E+00  0.74505805969E-08  0.10566000000E+00  0.10566000000E+00 0.  1.
     999900   -1    0    0    0    0 -0.00000000000E+00 -0.00000000000E+00 -0.74505805969E-08  0.93827000000E+00  0.93827000000E+00 0. -1.
     999902    2    1    2    0    0  0.12551735549E-01 -0.46253172064E-02 -0.38018774983E-02  0.10300233866E+01  0.10299295039E+01 0.  0.
     999903    2    3    3    0    0  0.86551512676E-01 -0.41906609483E-01  0.92496594219E-01  0.14090064059E+00  0.45277392938E-01 0.  0.
         14    1    1    2    0    0 -0.12551735549E-01  0.46253172064E-02  0.38018774983E-02  0.13906613429E-01  0.00000000000E+00 0.  1.
     999901    1    3    3    0    0 -0.73999777127E-01  0.37281292277E-01 -0.96298471717E-01  0.88912274598E+00  0.88000000000E+00 0. -1.
        -11    1    4    4    0    0  0.33218893069E-01 -0.29194043321E-01  0.67365574778E-01  0.80586405853E-01  0.51100000000E-03 0. -1.
         11    1    4    4    0    0  0.53332619607E-01 -0.12712566162E-01  0.25131019441E-01  0.60314234736E-01  0.51100000000E-03 0.  1.
</event>
<event>
 8    1  0.2837913E+004  0.1043930E+01  0.7957747E-01            NaN
         13   -1    0    0    0    0  0.00000000000E+00  0.00000000000E+00  0.74505805969E-08  0.10566000000E+00  0.10566000000E+00 0.  1.
     999900   -1    0    0    0    0 -0.00000000000E+00 -0.00000000000E+00 -0.74505805969E-08  0.93827000000E+00  0.93827000000E+00 0.  1.
     999902    2    1    2    0    0  0.10781331308E-01 -0.75219720695E-02 -0.69147492674E-02  0.10290763497E+01  0.10289691456E+01 0.  0.
     999903    2    3    3    0    0  0.79258870824E-01  0.10474197423E+00 -0.95349636272E-02  0.13930152846E+00  0.45399895703E-01 0.  0.
         14    1    1    2    0    0 -0.10781331308E-01  0.75219720695E-02  0.69147492674E-02  0.14853650259E-01  0.00000000000E+00 0.  1.
     999901    1    3    3    0    0 -0.68477539515E-01 -0.11226394630E+00  0.26202143598E-02  0.88977482128E+00  0.88000000000E+00 0. -1.
        -11    1    4    4    0    0  0.54177238951E-01  0.35885350640E-01  0.25072764326E-02  0.65034446004E-01  0.51100000000E-03 0. -1.
         11    1    4    4    0    0  0.25081631872E-01  0.68856623595E-01 -0.12042240060E-01  0.74267082458E-01  0.51100000000E-03 0.  1.
</event>
<event>
 8    1  0.2837913E+004  0.1043930E+01  0.7957747E-01            NaN
         13   -1    0    0    0    0  0.00000000000E+00  0.00000000000E+00  0.74505805969E-08  0.10566000000E+00  0.10566000000E+00 0. -1.
     999900   -1    0    0    0    0 -0.00000000000E+00 -0.00000000000E+00 -0.74505805969E-08  0.93827000000E+00  0.93827000000E+00 0. -1.
     999902    2    1    2    0    0 -0.39931838799E-02  0.84335857128E-02 -0.10696076345E-01  0.10297357429E+01  0.10296379088E+01 0.  0.
     999903    2    3    3    0    0 -0.57160507590E-01 -0.47719516871E-01 -0.11061305913E+00  0.14071193068E+00  0.44945774748E-01 0.  0.
         14    1    1    2    0    0  0.39931838799E-02 -0.84335857128E-02  0.10696076345E-01  0.14194257101E-01  0.00000000000E+00 0.  1.
     999901    1    3    3    0    0  0.53167323710E-01  0.56153102584E-01  0.99916982785E-01  0.88902381222E+00  0.88000000000E+00 0.  1.
        -11    1    4    4    0    0 -0.33142151545E-01 -0.12061374296E-01 -0.81448082747E-01  0.88757705373E-01  0.51100000000E-03 0.  1.
         11    1    4    4    0    0 -0.24018356045E-01 -0.35658142575E-01 -0.29164976383E-01  0.51954225309E-01  0.51100000000E-03 0. -1.
</event>
<event>
 8    1  0.2837913E+004  0.1043930E+01  0.7957747E-01            NaN
         13   -1    0    0    0    0  0.00000000000E+00  0.00000000000E+00  0.74505805969E-08  0.10566000000E+00  0.10566000000E+00 0. -1.
     999900   -1    0    0    0    0 -0.00000000000E+00 -0.00000000000E+00 -0.74505805969E-08  0.93827000000E+00  0.93827000000E+00 0.  1.
     999902    2    1    2    0    0 -0.34854875262E-02  0.12000982355E-01 -0.86612223000E-02  0.10287251004E+01  0.10286127275E+01 0.  0.
     999903    2    3    3    0    0  0.29205706502E-01 -0.11876402677E+00 -0.44418347854E-01  0.13774430720E+00  0.45195543951E-01 0.  0.
         14    1    1    2    0    0  0.34854875262E-02 -0.12000982355E-01  0.86612223000E-02  0.15204899622E-01  0.00000000000E+00 0. -1.
     999901    1    3    3    0    0 -0.32691194028E-01  0.13076500913E+00  0.35757125554E-01  0.89098079318E+00  0.88000000000E+00 0.  1.
        -11    1    4    4    0    0  0.25445384264E-01 -0.93446156140E-01 -0.13791632408E-01  0.97826999970E-01  0.51100000000E-03 0. -1.
         11    1    4    4    0    0  0.37603222383E-02 -0.25317870634E-01 -0.30626715445E-01  0.39917307233E-01  0.51100000000E-03 0.  1.
</event>
<event>
 8    1  0.2837913E+004  0.1043930E+01  0.7957747E-01            NaN
         13   -1    0    0    0    0  0.00000000000E+00  0.00000000000E+00  0.74505805969E-08  0.10566000000E+00  0.10566000000E+00 0. -1.
     999900   -1    0    0    0    0 -0.00000000000E+00 -0.00000000000E+00 -0.74505805969E-08  0.93827000000E+00  0.93827000000E+00 0. -1.
     999902    2    1    2    0    0 -0.95382657381E-02 -0.70858076447E-02  0.30694287232E-02  0.10316577314E+01  0.10315847354E+01 0.  0.
     999903    2    3    3    0    0 -0.13375723713E+00  0.14683579841E-01 -0.13911438407E-01  0.14250498362E+00  0.44805537996E-01 0.  0.
         14    1    1    2    0    0  0.95382657381E-02  0.70858076447E-02 -0.30694287232E-02  0.12272268574E-01  0.00000000000E+00 0.  1.
     999901    1    3    3    0    0  0.12421897139E+00 -0.21769387486E-01  0.16980867130E-01  0.88915274781E+00  0.88000000000E+00 0. -1.
        -11    1    4    4    0    0 -0.82627668953E-01 -0.11218857508E-01  0.55380300843E-03  0.83389221481E-01  0.51100000000E-03 0.  1.
         11    1    4    4    0    0 -0.51129568180E-01  0.25902437349E-01 -0.14465241415E-01  0.59115762137E-01  0.51100000000E-03 0. -1.
</event>
<event>
 8    1  0.2837913E+004  0.1043930E+01  0.7957747E-01            NaN
         13   -1    0    0    0    0  0.00000000000E+00  0.00000000000E+00  0.74505805969E-08  0.10566000000E+00  0.10566000000E+00 0. -1.
     999900   -1    0    0    0    0 -0.00000000000E+00 -0.00000000000E+00 -0.74505805969E-08  0.93827000000E+00  0.93827000000E+00 0. -1.
     999902    2    1    2    0    0  0.12829057464E-01  0.31321458565E-02 -0.51644019414E-02  0.10297502221E+01  0.10296525889E+01 0.  0.
     999903    2    3    3    0    0 -0.30623874339E-02 -0.10547792673E+00 -0.79774154329E-01  0.13979780709E+00  0.45216589022E-01 0.  0.
         14    1    1    2    0    0 -0.12829057464E-01 -0.31321458565E-02  0.51644019414E-02  0.14179777872E-01  0.00000000000E+00 0. -1.
     999901    1    3    3    0    0  0.15891444898E-01  0.10861007259E+00  0.74609752388E-01  0.88995241504E+00  0.88000000000E+00 0. -1.
        -11    1    4    4    0    0 -0.17675567579E-01 -0.30467560968E-01 -0.41151978477E-01  0.54170512404E-01  0.51100000000E-03 0. -1.
         11    1    4    4    0    0  0.14613180145E-01 -0.75010365763E-01 -0.38622175852E-01  0.85627294682E-01  0.51100000000E-03 0.  1.
</event>
<event>
 8    1  0.2837913E+004  0.1043930E+01  0.7957747E-01            NaN
         13   -1    0    0    0    0  0.00000000000E+00  0.00000000000E+00  0.74505805969E-08  0.10566000000E+00  0.10566000000E+00 0. -1.
     999900   -1    0    0    0    0 -0.00000000000E+00 -0.00000000000E+00 -0.74505805969E-08  0.93827000000E+00  0.93827000000E+00 0. -1.
     999902    2    1    2    0    0  0.11559808598E-01 -0.69653525608E-02  0.13831299123E-02  0.10303631890E+01  0.10302738679E+01 0.  0.
     999903    2    3    3    0    0 -0.51430489627E-01  0.45512884274E-01  0.11265097958E+00  0.13957574112E+00  0.45548067032E-01 0.  0.
         14    1    1    2    0    0 -0.11559808598E-01  0.69653525608E-02 -0.13831299123E-02  0.13566810955E-01  0.00000000000E+00 0.  1.
     999901    1    3    3    0    0  0.62990298225E-01 -0.52478236834E-01 -0.11126784967E+00  0.89078744793E+00  0.88000000000E+00 0.  1.
        -11    1    4    4    0    0 -0.24286534468E-01  0.75379101610E-02  0.10986258122E-01  0.27705862820E-01  0.51100000000E-03 0.  1.
         11    1    4    4    0    0 -0.27143955159E-01  0.37974974113E-01  0.10166472146E+00  0.11186987830E+00  0.51100000000E-03 0. -1.
</event>
<event>
 8    1  0.2837913E+004  0.1043930E+01  0.7957747E-01            NaN
         13   -1    0    0    0    0  0.00000000000E+00  0.00000000000E+00  0.74505805969E-08  0.10566000000E+00  0.10566000000E+00 0. -1.
     999900   -1    0    0    0    0 -0.00000000000E+00 -0.00000000000E+00 -0.74505805969E-08  0.93827000000E+00  0.93827000000E+00 0. -1.
     999902    2    1    2    0    0  0.11044258102E-01 -0.39439582720E-02 -0.72782804224E-02  0.10301276882E+01  0.10300352180E+01 0.  0.
     999903    2    3    3    0    0  0.14062492296E-01 -0.10408271769E+00 -0.83426154100E-01  0.14117584504E+00  0.44042368500E-01 0.  0.
         14    1    1    2    0    0 -0.11044258102E-01  0.39439582720E-02  0.72782804224E-02  0.13802311755E-01  0.00000000000E+00 0.  1.
     999901    1    3    3    0    0 -0.30182341939E-02  0.10013875942E+00  0.76147873677E-01  0.88895184321E+00  0.88000000000E+00 0.  1.
        -11    1    4    4    0    0  0.35809650557E-02 -0.68356257755E-01 -0.27028630169E-01  0.73594899652E-01  0.51100000000E-03 0. -1.
         11    1    4    4    0    0  0.10481527240E-01 -0.35726459935E-01 -0.56397523931E-01  0.67580945387E-01  0.51100000000E-03 0.  1.
</event>
<event>
 8    1  0.2837913E+004  0.1043930E+01  0.7957747E-01            NaN
         13   -1    0    0    0    0  0.00000000000E+00  0.00000000000E+00  0.74505805969E-08  0.10566000000E+00  0.10566000000E+00 0.  1.
     999900   -1    0    0    0    0 -0.00000000000E+00 -0.00000000000E+00 -0.74505805969E-08  0.93827000000E+00  0.93827000000E+00 0.  1.
     999902    2    1    2    0    0 -0.88766807590E-02 -0.80356955676E-03 -0.99797896834E-02  0.10305495147E+01  0.10304626460E+01 0.  0.
     999903    2    3    3    0    0  0.34628005773E-01 -0.11051374227E+00 -0.66187720947E-01  0.14089322639E+00  0.45361887366E-01 0.  0.
         14    1    1    2    0    0  0.88766807590E-02  0.80356955676E-03  0.99797896834E-02  0.13380485322E-01  0.00000000000E+00 0.  1.
     999901    1    3    3    0    0 -0.43504686532E-01  0.10971017271E+00  0.56207931263E-01  0.88965628828E+00  0.88000000000E+00 0. -1.
        -11    1    4    4    0    0  0.34578576864E-01 -0.39481679847E-01 -0.36366599518E-01  0.63853517546E-01  0.51100000000E-03 0. -1.
         11    1    4    4    0    0  0.49428909125E-04 -0.71032062422E-01 -0.29821121429E-01  0.77039708848E-01  0.51100000000E-03 0.  1.
</event>
<event>
 8    1  0.2837913E+004  0.1043930E+01  0.7957747E-01            NaN
         13   -1    0    0    0    0  0.00000000000E+00  0.00000000000E+00  0.74505805969E-08  0.10566000000E+00  0.10566000000E+00 0.  1.
     999900   -1    0    0    0    0 -0.00000000000E+00 -0.00000000000E+00 -0.74505805969E-08  0.93827000000E+00  0.93827000000E+00 0.  1.
     999902    2    1    2    0    0 -0.11820106890E-01 -0.68629544481E-03  0.63276167885E-02  0.10305052221E+01  0.10304177735E+01 0.  0.
     999903    2    3    3    0    0  0.12897214402E+00 -0.52576901547E-02  0.23450073851E-01  0.13913743372E+00  0.46345034908E-01 0.  0.
         14    1    1    2    0    0  0.11820106890E-01  0.68629544481E-03 -0.63276167885E-02  0.13424777933E-01  0.00000000000E+00 0. -1.
     999901    1    3    3    0    0 -0.14079225091E+00  0.45713947099E-02 -0.17122457062E-01  0.89136778835E+00  0.88000000000E+00 0.  1.
        -11    1    4    4    0    0  0.19815291560E-01 -0.18270205622E-01  0.80451932509E-02  0.28132409220E-01  0.51100000000E-03 0. -1.
         11    1    4    4    0    0  0.10915685246E+00  0.13012515467E-01  0.15404880600E-01  0.11100502450E+00  0.51100000000E-03 0.  1.
</event>
<event>
 8    1  0.2837913E+004  0.1043930E+01  0.7957747E-01            NaN
         13   -1    0    0    0    0  0.00000000000E+00  0.00000000000E+00  0.74505805969E-08  0.10566000000E+00  0.10566000000E+00 0. -1.
     999900   -1    0    0    0    0 -0.00000000000E+00 -0.00000000000E+00 -0.74505805969E-08  0.93827000000E+00  0.93827000000E+00 0. -1.
     999902    2    1    2    0    0 -0.37256203480E-02 -0.80141318535E-02 -0.10861837737E-01  0.10299269262E+01  0.10298317276E+01 0.  0.
     999903    2    3    3    0    0 -0.11060971105E+00  0.20978275133E-01  0.68712247938E-01  0.13942324648E+00  0.45198146390E-01 0.  0.
         14    1    1    2    0    0  0.37256203480E-02  0.80141318535E-02  0.10861837737E-01  0.14003073783E-01  0.00000000000E+00 0. -1.
     999901    1    3    3    0    0  0.10688409070E+00 -0.28992406987E-01 -0.79574085676E-01  0.89050367973E+00  0.88000000000E+00 0. -1.
        -11    1    4    4    0    0 -0.39163701935E-01  0.29918571548E-01  0.26565242051E-01  0.55990085542E-01  0.51100000000E-03 0. -1.
         11    1    4    4    0    0 -0.71446009115E-01 -0.89402964152E-02  0.42147005887E-01  0.83433160941E-01  0.51100000000E-03 0.  1.
</event>
<event>
 8    1  0.2837913E+004  0.1043930E+01  0.7957747E-01            NaN
         13   -1    0    0    0    0  0.00000000000E+00  0.00000000000E+00  0.74505805969E-08  0.10566000000E+00  0.10566000000E+00 0. -1.
     999900   -1    0    0    0    0 -0.00000000000E+00 -0.00000000000E+00 -0.74505805969E-08  0.93827000000E+00  0.93827000000E+00 0.  1.
     999902    2    1    2    0    0  0.40615794040E-02  0.10088147488E-01  0.12335603914E-02  0.10329851922E+01  0.10329272087E+01 0.  0.
     999903    2    3    3    0    0 -0.17816127927E-01 -0.59579524372E-01  0.12012590908E+00  0.14199270671E+00  0.43180557997E-01 0.  0.
         14    1    1    2    0    0 -0.40615794040E-02 -0.10088147488E-01 -0.12335603914E-02  0.10944807821E-01  0.00000000000E+00 0.  1.
     999901    1    3    3    0    0  0.21877707331E-01  0.69667671859E-01 -0.11889234869E+00  0.89099248547E+00  0.88000000000E+00 0.  1.
        -11    1    4    4    0    0 -0.18632631086E-01 -0.53776188125E-01  0.64353577929E-01  0.85910985699E-01  0.51100000000E-03 0.  1.
         11    1    4    4    0    0  0.81650315820E-03 -0.58033362462E-02  0.55772331150E-01  0.56081721015E-01  0.51100000000E-03 0. -1.
</event>
<event>
 8    1  0.2837913E+004  0.1043930E+01  0.7957747E-01            NaN
         13   -1    0    0    0    0  0.00000000000E+00  0.00000000000E+00  0.74505805969E-08  0.10566000000E+00  0.10566000000E+00 0. -1.
     999900   -1    0    0    0    0 -0.00000000000E+00 -0.00000000000E+00 -0.74505805969E-08  0.93827000000E+00  0.93827000000E+00 0.  1.
     999902    2    1    2    0    0 -0.78117797858E-02  0.31999622744E-02  0.74595499734E-02  0.10326646306E+01  0.10326031816E+01 0.  0.
     999903    2    3    3    0    0  0.12640138767E+00 -0.16701337406E-01 -0.38716813919E-01  0.14106971550E+00  0.46318759417E-01 0.  0.
         14    1    1    2    0    0  0.78117797858E-02 -0.31999622744E-02 -0.74595499734E-02  0.11265369403E-01  0.00000000000E+00 0.  1.
     999901    1    3    3    0    0 -0.13421316746E+00  0.19901299681E-01  0.46176363892E-01  0.89159491510E+00  0.88000000000E+00 0. -1.
        -11    1    4    4    0    0  0.10878946157E+00 -0.13874059189E-01 -0.13966913539E-01  0.11055755181E+00  0.51100000000E-03 0. -1.
         11    1    4    4    0    0  0.17611926101E-01 -0.28272782172E-02 -0.24749900380E-01  0.30512163688E-01  0.51100000000E-03 0.  1.
</event>
<event>
 8    1  0.2837913E+004  0.1043930E+01  0.7957747E-01            NaN
         13   -1    0    0    0    0  0.00000000000E+00  0.00000000000E+00  0.74505805969E-08  0.10566000000E+00  0.10566000000E+00 0.  1.
     999900   -1    0    0    0    0 -0.00000000000E+00 -0.00000000000E+00 -0.74505805969E-08  0.93827000000E+00  0.93827000000E+00 0.  1.
     999902    2    1    2    0    0 -0.99408553173E-02 -0.27387879618E-02 -0.92555159851E-02  0.10300740937E+01  0.10299808990E+01 0.  0.
     999903    2    3    3    0    0  0.87191789710E-01  0.41884506154E-01  0.87650642569E-01  0.13832480566E+00  0.45764578769E-01 0.  0.
         14    1    1    2    0    0  0.99408553173E-02  0.27387879618E-02  0.92555159851E-02  0.13855906325E-01  0.00000000000E+00 0.  1.
     999901    1    3    3    0    0 -0.97132645027E-01 -0.44623294115E-01 -0.96906158554E-01  0.89174928801E+00  0.88000000000E+00 0.  1.
        -11    1    4    4    0    0  0.60684760138E-01  0.48984797675E-01  0.53804023274E-01  0.94748533274E-01  0.51100000000E-03 0. -1.
         11    1    4    4    0    0  0.26507029572E-01 -0.71002915211E-02  0.33846619295E-01  0.43576272387E-01  0.51100000000E-03 0.  1.
</event>
<event>
 8    1  0.2837913E+004  0.1043930E+01  0.7957747E-01            NaN
         13   -1    0    0    0    0  0.00000000000E+00  0.00000000000E+00  0.74505805969E-08  0.10566000000E+00  0.10566000000E+00 0. -1.
     999900   -1    0    0    0    0 -0.00000000000E+00 -0.00000000000E+00 -0.74505805969E-08  0.93827000000E+00  0.93827000000E+00 0.  1.
     999902    2    1    2    0    0  0.68891454338E-03 -0.10621685925E-01  0.89882673139E-02  0.10299986051E+01  0.10299043852E+01 0.  0.
     999903    2    3    3    0    0 -0.28478821396E-01  0.73371458277E-01 -0.10350180234E+00  0.13839352386E+00  0.47389135882E-01 0.  0.
         14    1    1    2    0    0 -0.68891454338E-03  0.10621685925E-01 -0.89882673139E-02  0.13931394921E-01  0.00000000000E+00 0.  1.
     999901    1    3    3    0    0  0.29167735940E-01 -0.83993144202E-01  0.11249006965E+00  0.89160508122E+00  0.88000000000E+00 0. -1.
        -11    1    4    4    0    0 -0.83857796687E-02 -0.17806837390E-02 -0.30590734618E-01  0.31773358348E-01  0.51100000000E-03 0.  1.
         11    1    4    4    0    0 -0.20093041728E-01  0.75152142016E-01 -0.72911067722E-01  0.10662016551E+00  0.51100000000E-03 0. -1.
</event>
<event>
 8    1  0.2837913E+004  0.1043930E+01  0.7957747E-01            NaN
         13   -1    0    0    0    0  0.00000000000E+00  0.00000000000E+00  0.74505805969E-08  0.10566000000E+00  0.10566000000E+00 0.  1.
     999900   -1    0    0    0    0 -0.00000000000E+00 -0.00000000000E+00 -0.74505805969E-08  0.93827000000E+00  0.93827000000E+00 0. -1.
     999902    2    1    2    0    0  0.86864059701E-04  0.97405880221E-02 -0.95993516230E-02  0.10302539570E+01  0.10301631821E+01 0.  0.
     999903    2    3    3    0    0  0.60807364524E-01  0.11491003300E+00  0.30833364039E-01  0.14099449215E+00  0.45021097454E-01 0.  0.
         14    1    1    2    0    0 -0.86864059701E-04 -0.97405880221E-02  0.95993516230E-02  0.13676042994E-01  0.00000000000E+00 0.  1.
     999901    1    3    3    0    0 -0.60720500465E-01 -0.10516944498E+00 -0.40432715662E-01  0.88925946485E+00  0.88000000000E+00 0. -1.
        -11    1    4    4    0    0  0.51395161209E-01  0.53173968201E-01  0.75279931794E-02  0.74336164095E-01  0.51100000000E-03 0. -1.
         11    1    4    4    0    0  0.94122033150E-02  0.61736064797E-01  0.23305370860E-01  0.66658328060E-01  0.51100000000E-03 0.  1.
</event>
<event>
 8    1  0.2837913E+004  0.1043930E+01  0.7957747E-01            NaN
         13   -1    0    0    0    0  0.00000000000E+00  0.00000000000E+00  0.74505805969E-08  0.10566000000E+00  0.10566000000E+00 0.  1.
     999900   -1    0    0    0    0 -0.00000000000E+00 -0.00000000000E+00 -0.74505805969E-08  0.93827000000E+00  0.93827000000E+00 0.  1.
     999902    2    1    2    0    0  0.13809355889E-01  0.33403463404E-02  0.13035379282E-02  0.10296627145E+01  0.10295638641E+01 0.  0.
     999903    2    3    3    0    0  0.29816863630E-01 -0.99957600071E-01  0.81743872352E-01  0.13983275693E+00  0.44615827612E-01 0.  0.
         14    1    1    2    0    0 -0.13809355889E-01 -0.33403463404E-02 -0.13035379282E-02  0.14267285477E-01  0.00000000000E+00 0.  1.
     999901    1    3    3    0    0 -0.16007507741E-01  0.10329794641E+00 -0.80440334424E-01  0.88982995760E+00  0.88000000000E+00 0.  1.
        -11    1    4    4    0    0  0.37562038942E-01 -0.62708141983E-01  0.66571072486E-01  0.98869543609E-01  0.51100000000E-03 0. -1.
         11    1    4    4    0    0 -0.77451753116E-02 -0.37249458088E-01  0.15172799866E-01  0.40963213316E-01  0.51100000000E-03 0.  1.
</event>
<event>
 8    1  0.2837913E+004  0.1043930E+01  0.7957747E-01            NaN
         13   -1    0    0    0    0  0.00000000000E+00  0.00000000000E+00  0.74505805969E-08  0.10566000000E+00  0.10566000000E+00 0.  1.
     999900   -1    0    0    0    0 -0.00000000000E+00 -0.00000000000E+00 -0.74505805969E-08  0.93827000000E+00  0.93827000000E+00 0. -1.
     999902    2    1    2    0    0 -0.13669803710E-01  0.25943529775E-02 -0.41585385168E-02  0.10294080289E+01  0.10293055923E+01 0.  0.
     999903    2    3    3    0    0 -0.15226433678E-01 -0.12597227187E+00  0.35823447815E-01  0.13916628686E+00  0.44531768682E-01 0.  0.
         14    1    1    2    0    0  0.13669803710E-01 -0.25943529775E-02  0.41585385168E-02  0.14521971059E-01  0.00000000000E+00 0.  1.
     999901    1    3    3    0    0  0.15566299681E-02  0.12856662484E+00 -0.39981986331E-01  0.89024174209E+00  0.88000000000E+00 0. -1.
        -11    1    4    4    0    0  0.22498856456E-03 -0.88261221452E-01  0.56273836841E-02  0.88442198074E-01  0.51100000000E-03 0. -1.
         11    1    4    4    0    0 -0.15451422243E-01 -0.37711050415E-01  0.30196064130E-01  0.50724088781E-01  0.51100000000E-03 0.  1.
</event>
<event>
 8    1  0.2837913E+004  0.1043930E+01  0.7957747E-01            NaN
         13   -1    0    0    0    0  0.00000000000E+00  0.00000000000E+00  0.74505805969E-08  0.10566000000E+00  0.10566000000E+00 0. -1.
     999900   -1    0    0    0    0 -0.00000000000E+00 -0.00000000000E+00 -0.74505805969E-08  0.93827000000E+00  0.93827000000E+00 0.  1.
     999902    2    1    2    0    0  0.94335436084E-02  0.97947582965E-03 -0.98135958163E-02  0.10302823709E+01  0.10301919753E+01 0.  0.
     999903    2    3    3    0    0  0.14093696295E-01  0.13192867965E+00 -0.14883649738E-01  0.14056605853E+00  0.43971411060E-01 0.  0.
         14    1    1    2    0    0 -0.94335436084E-02 -0.97947582965E-03  0.98135958163E-02  0.13647629126E-01  0.00000000000E+00 0.  1.
     999901    1    3    3    0    0 -0.46601526870E-02 -0.13094920382E+00  0.50700539220E-02  0.88971631234E+00  0.88000000000E+00 0.  1.
        -11    1    4    4    0    0 -0.32836349149E-02  0.11639357842E+00 -0.13290893937E-01  0.11719708332E+00  0.51100000000E-03 0. -1.
         11    1    4    4    0    0  0.17377331210E-01  0.15535101229E-01 -0.15927558014E-02  0.23368975207E-01  0.51100000000E-03 0.  1.
</event>
<event>
 8    1  0.2837913E+004  0.1043930E+01  0.7957747E-01            NaN
         13   -1    0    0    0    0  0.00000000000E+00  0.00000000000E+00  0.74505805969E-08  0.10566000000E+00  0.10566000000E+00 0.  1.
     999900   -1    0    0    0    0 -0.00000000000E+00 -0.00000000000E+00 -0.74505805969E-08  0.93827000000E+00  0.93827000000E+00 0. -1.
     999902    2    1    2    0    0  0.11307428170E-01 -0.61601801558E-02 -0.65991507565E-02  0.10294609108E+01  0.10293592241E+01 0.  0.
     999903    2    3    3    0    0  0.54590580483E-01  0.12012402807E+00 -0.18990915360E-02  0.13938045204E+00  0.44870817528E-01 0.  0.
         14    1    1    2    0    0 -0.11307428170E-01  0.61601801558E-02  0.65991507565E-02  0.14469089193E-01  0.00000000000E+00 0.  1.
     999901    1    3    3    0    0 -0.43283152314E-01 -0.12628420822E+00 -0.47000592205E-02  0.89008045877E+00  0.88000000000E+00 0.  1.
        -11    1    4    4    0    0  0.25329080748E-01  0.73920507326E-01 -0.21889281347E-01  0.81149279071E-01  0.51100000000E-03 0. -1.
         11    1    4    4    0    0  0.29261499736E-01  0.46203520742E-01  0.19990189811E-01  0.58231172969E-01  0.51100000000E-03 0.  1.
</event>
<event>
 7    1  0.2837913E+004  0.1043930E+01  0.7957747E-01            NaN
         13   -1    0    0    0    0  0.00000000000E+00  0.00000000000E+00  0.74505805969E-08  0.10566000000E+00  0.10566000000E+00 0. -1.
     999900   -1    0    0    0    0 -0.00000000000E+00 -0.00000000000E+00 -0.74505805969E-08  0.93827000000E+00  0.93827000000E+00 0.  1.
     999903    2    1    2    0    0 -0.11562190103E-01  0.63877515753E-01 -0.50684810064E-01  0.93312420528E-01  0.43866121265E-01 0.  0.
         14    1    1    2    0    0  0.23944492118E-01 -0.62573491708E-01  0.20295801791E-01  0.70005000805E-01  0.00000000000E+00 0.  1.
     999901    1    1    2    0    0 -0.12382302015E-01 -0.13040240449E-02  0.30389008273E-01  0.88061257867E+00  0.88000000000E+00 0. -1.
        -11    1    3    3    0    0 -0.22744679322E-01  0.15823725900E-01 -0.10344611211E-01  0.29580108873E-01  0.51100000000E-03 0.  1.
         11    1    3    3    0    0  0.11182489219E-01  0.48053789854E-01 -0.40340198853E-01  0.63732311655E-01  0.51100000000E-03 0. -1.
</event>
<event>
 8    1  0.2837913E+004  0.1043930E+01  0.7957747E-01            NaN
         13   -1    0    0    0    0  0.00000000000E+00  0.00000000000E+00  0.74505805969E-08  0.10566000000E+00  0.10566000000E+00 0. -1.
     999900   -1    0    0    0    0 -0.00000000000E+00 -0.00000000000E+00 -0.74505805969E-08  0.93827000000E+00  0.93827000000E+00 0. -1.
     999902    2    1    2    0    0  0.12010334383E-01 -0.19782977653E-02  0.85746562472E-02  0.10290408589E+01  0.10289331381E+01 0.  0.
     999903    2    3    3    0    0 -0.43950880845E-01  0.49882793106E-01  0.11435514938E+00  0.13942816612E+00  0.44081065599E-01 0.  0.
         14    1    1    2    0    0 -0.12010334383E-01  0.19782977653E-02 -0.85746562472E-02  0.14889141137E-01  0.00000000000E+00 0.  1.
     999901    1    3    3    0    0  0.55961215228E-01 -0.51861090872E-01 -0.10578049313E+00  0.88961269274E+00  0.88000000000E+00 0. -1.
        -11    1    4    4    0    0  0.58883295205E-02  0.82371604420E-03  0.26356824424E-01  0.27023956916E-01  0.51100000000E-03 0.  1.
         11    1    4    4    0    0 -0.49839210365E-01  0.49059077062E-01  0.87998324953E-01  0.11240420921E+00  0.51100000000E-03 0. -1.
</event>
<event>
 8    1  0.2837913E+004  0.1043930E+01  0.7957747E-01            NaN
         13   -1    0    0    0    0  0.00000000000E+00  0.00000000000E+00  0.74505805969E-08  0.10566000000E+00  0.10566000000E+00 0.  1.
     999900   -1    0    0    0    0 -0.00000000000E+00 -0.00000000000E+00 -0.74505805969E-08  0.93827000000E+00  0.93827000000E+00 0. -1.
     999902    2    1    2    0    0  0.10918763613E-01 -0.17129916591E-02  0.92925498579E-02  0.10294902901E+01  0.10293890189E+01 0.  0.
     999903    2    3    3    0    0  0.36632680898E-01  0.35977382089E-01  0.12332088353E+00  0.14096103864E+00  0.45007207967E-01 0.  0.
         14    1    1    2    0    0 -0.10918763613E-01  0.17129916591E-02 -0.92925498579E-02  0.14439709904E-01  0.00000000000E+00 0. -1.
     999901    1    3    3    0    0 -0.25713917286E-01 -0.37690373748E-01 -0.11402833367E+00  0.88852925146E+00  0.88000000000E+00 0. -1.
        -11    1    4    4    0    0  0.32996434869E-01  0.86915160962E-02  0.36902328098E-01  0.50262810369E-01  0.51100000000E-03 0. -1.
         11    1    4    4    0    0  0.36362460289E-02  0.27285865992E-01  0.86418555428E-01  0.90698228270E-01  0.51100000000E-03 0.  1.
</event>
<event>
 8    1  0.2837913E+004  0.1043930E+01  0.7957747E-01            NaN
         13   -1    0    0    0    0  0.00000000000E+00  0.00000000000E+00  0.74505805969E-08  0.10566000000E+00  0.10566000000E+00 0. -1.
     999900   -1    0    0    0    0 -0.00000000000E+00 -0.00000000000E+00 -0.74505805969E-08  0.93827000000E+00  0.93827000000E+00 0.  1.
     999902    2    1    2    0    0  0.85197933113E-02  0.11734920380E-02  0.11113997507E-01  0.10298770678E+01  0.10297811855E+01 0.  0.
     999903    2    3    3    0    0  0.27360829811E-01 -0.12825320652E+00  0.21196615993E-01  0.14015356352E+00  0.44679132100E-01 0.  0.
         14    1    1    2    0    0 -0.85197933113E-02 -0.11734920380E-02 -0.11113997507E-01  0.14052932157E-01  0.00000000000E+00 0.  1.
     999901    1    3    3    0    0 -0.18841036500E-01  0.12942669856E+00 -0.10082618486E-01  0.88972350433E+00  0.88000000000E+00 0.  1.
        -11    1    4    4    0    0  0.96138165664E-03 -0.82994155142E-01  0.27359253435E-01  0.87394186946E-01  0.51100000000E-03 0. -1.
         11    1    4    4    0    0  0.26399448154E-01 -0.45259051381E-01 -0.61626374426E-02  0.52759376570E-01  0.51100000000E-03 0.  1.
</event>
<event>
 8    1  0.2837913E+004  0.1043930E+01  0.7957747E-01            NaN
         13   -1    0    0    0    0  0.00000000000E+00  0.00000000000E+00  0.74505805969E-08  0.10566000000E+00  0.10566000000E+00 0. -1.
     999900   -1    0    0    0    0 -0.00000000000E+00 -0.00000000000E+00 -0.74505805969E-08  0.93827000000E+00  0.93827000000E+00 0.  1.
     999902    2    1    2    0    0 -0.27212762161E-03 -0.14128329436E-01  0.10824862534E-01  0.10261293990E+01  0.10259749910E+01 0.  0.
     999903    2    3    3    0    0  0.53544918142E-01 -0.11304546346E+00  0.38532954864E-01  0.13852103257E+00  0.45353641393E-01 0.  0.
         14    1    1    2    0    0  0.27212762161E-03  0.14128329436E-01 -0.10824862534E-01  0.17800600972E-01  0.00000000000E+00 0.  1.
     999901    1    3    3    0    0 -0.53817045764E-01  0.98917134021E-01 -0.27708092330E-01  0.88760836645E+00  0.88000000000E+00 0. -1.
        -11    1    4    4    0    0  0.29879139149E-01 -0.46243240889E-01  0.39298164923E-01  0.67644712813E-01  0.51100000000E-03 0. -1.
         11    1    4    4    0    0  0.23665778993E-01 -0.66802222568E-01 -0.76521005946E-03  0.70876319761E-01  0.51100000000E-03 0.  1.
</event>
<event>
 8    1  0.2837913E+004  0.1043930E+01  0.7957747E-01            NaN
         13   -1    0    0    0    0  0.00000000000E+00  0.00000000000E+00  0.74505805969E-08  0.10566000000E+00  0.10566000000E+00 0.  1.
     999900   -1    0    0    0    0 -0.00000000000E+00 -0.00000000000E+00 -0.74505805969E-08  0.93827000000E+00  0.93827000000E+00 0.  1.
     999902    2    1    2    0    0  0.68377501151E-02 -0.25701145800E-03  0.25059051505E-01  0.10179535310E+01  0.10176220390E+01 0.  0.
     999903    2    3    3    0    0 -0.12525918260E-01 -0.80311846418E-01 -0.87307677075E-01  0.12699336914E+00  0.43563677836E-01 0.  0.
         14    1    1    2    0    0 -0.68377501151E-02  0.25701145800E-03 -0.25059051505E-01  0.25976469041E-01  0.00000000000E+00 0. -1.
     999901    1    3    3    0    0  0.19363668376E-01  0.80054834960E-01  0.11236672858E+00  0.89096016182E+00  0.88000000000E+00 0. -1.
        -11    1    4    4    0    0  0.14838006740E-01 -0.44430305199E-01 -0.39815171455E-01  0.61479488149E-01  0.51100000000E-03 0. -1.
         11    1    4    4    0    0 -0.27363925001E-01 -0.35881541219E-01 -0.47492505620E-01  0.65513880993E-01  0.51100000000E-03 0.  1.
</event>
<event>
 7    1  0.2837913E+004  0.1043930E+01  0.7957747E-01            NaN
         13   -1    0    0    0    0  0.00000000000E+00  0.00000000000E+00  0.74505805969E-08  0.10566000000E+00  0.10566000000E+00 0. -1.
     999900   -1    0    0    0    0 -0.00000000000E+00 -0.00000000000E+00 -0.74505805969E-08  0.93827000000E+00  0.93827000000E+00 0. -1.
     999902    2    1    2    0    0 -0.12003953812E-01 -0.10826655233E-01  0.63479310297E-02  0.10265631465E+01  0.10264162344E+01 0.  0.
         14    1    1    2    0    0  0.12003953812E-01  0.10826655233E-01 -0.63479310297E-02  0.17366853458E-01  0.00000000000E+00 0.  1.
     999901    1    3    3    0    0  0.83725245409E-01  0.66121079149E-01  0.22821486074E-01  0.88673712793E+00  0.88000000000E+00 0.  1.
        -11    1    3    3    0    0 -0.22020043696E-01 -0.46319646797E-01  0.15888139208E-01  0.53694376729E-01  0.51100000000E-03 0. -1.
         11    1    3    3    0    0 -0.73709155525E-01 -0.30628087584E-01 -0.32361694252E-01  0.86131641881E-01  0.51100000000E-03 0.  1.
</event>
<event>
 8    1  0.2837913E+004  0.1043930E+01  0.7957747E-01            NaN
         13   -1    0    0    0    0  0.00000000000E+00  0.00000000000E+00  0.74505805969E-08  0.10566000000E+00  0.10566000000E+00 0.  1.
     999900   -1    0    0    0    0 -0.00000000000E+00 -0.00000000000E+00 -0.74505805969E-08  0.93827000000E+00  0.93827000000E+00 0. -1.
     999902    2    1    2    0    0 -0.10361888753E-01  0.48589540379E-02 -0.79112966528E-02  0.10300171718E+01  0.10299232047E+01 0.  0.
     999903    2    3    3    0    0 -0.25644646177E-01  0.12820689941E+00  0.25563279387E-01  0.14065289014E+00  0.45112052918E-01 0.  0.
         14    1    1    2    0    0  0.10361888753E-01 -0.48589540379E-02  0.79112966528E-02  0.13912828167E-01  0.00000000000E+00 0.  1.
     999901    1    3    3    0    0  0.15282757424E-01 -0.12334794537E+00 -0.33474576040E-01  0.88936428169E+00  0.88000000000E+00 0. -1.
        -11    1    4    4    0    0 -0.19415245434E-02  0.35615440968E-01  0.27520737039E-01  0.45054203368E-01  0.51100000000E-03 0. -1.
         11    1    4    4    0    0 -0.23703121633E-01  0.92591458444E-01 -0.19574576517E-02  0.95598686777E-01  0.51100000000E-03 0.  1.
</event>
<event>
 8    1  0.2837913E+004  0.1043930E+01  0.7957747E-01            NaN
         13   -1    0    0    0    0  0.00000000000E+00  0.00000000000E+00  0.74505805969E-08  0.10566000000E+00  0.10566000000E+00 0. -1.
     999900   -1    0    0    0    0 -0.00000000000E+00 -0.00000000000E+00 -0.74505805969E-08  0.93827000000E+00  0.93827000000E+00 0.  1.
     999902    2    1    2    0    0 -0.27185494256E-02  0.88687758836E-02 -0.11497613174E-01  0.10291570245E+01  0.10290509901E+01 0.  0.
     999903    2    3    3    0    0 -0.32962249419E-02 -0.77781283956E-01 -0.11101088802E+00  0.13931914125E+00  0.32025187393E-01 0.  0.
         14    1    1    2    0    0  0.27185494256E-02 -0.88687758836E-02  0.11497613174E-01  0.14772975507E-01  0.00000000000E+00 0. -1.
     999901    1    3    3    0    0  0.57767551633E-03  0.86650059840E-01  0.99513274846E-01  0.88983788324E+00  0.88000000000E+00 0. -1.
        -11    1    4    4    0    0  0.34380181761E-02 -0.66587775038E-01 -0.71798294856E-01  0.97984733600E-01  0.51100000000E-03 0. -1.
         11    1    4    4    0    0 -0.67342431180E-02 -0.11193508918E-01 -0.39212593164E-01  0.41334407652E-01  0.51100000000E-03 0.  1.
</event>
<event>
 8    1  0.2837913E+004  0.1043930E+01  0.7957747E-01            NaN
         13   -1    0    0    0    0  0.00000000000E+00  0.00000000000E+00  0.74505805969E-08  0.10566000000E+00  0.10566000000E+00 0.  1.
     999900   -1    0    0    0    0 -0.00000000000E+00 -0.00000000000E+00 -0.74505805969E-08  0.93827000000E+00  0.93827000000E+00 0. -1.
     999902    2    1    2    0    0 -0.59439193587E-02  0.22010046562E-01  0.72999679028E-02  0.10199912895E+01  0.10197103358E+01 0.  0.
     999903    2    3    3    0    0 -0.86886407884E-01 -0.19382862463E-01  0.86322738076E-01  0.13178542513E+00  0.44618829389E-01 0.  0.
         14    1    1    2    0    0  0.59439193587E-02 -0.22010046562E-01 -0.72999679028E-02  0.23938710458E-01  0.00000000000E+00 0. -1.
     999901    1    3    3    0    0  0.80942488526E-01  0.41392909025E-01 -0.79022770173E-01  0.88820586441E+00  0.88000000000E+00 0. -1.
        -11    1    4    4    0    0 -0.55373595432E-01 -0.32836551979E-01  0.47526821524E-01  0.80022085090E-01  0.51100000000E-03 0.  1.
         11    1    4    4    0    0 -0.31512812452E-01  0.13453689516E-01  0.38795916552E-01  0.51763340042E-01  0.51100000000E-03 0. -1.
</event>
<event>
 8    1  0.2837913E+004  0.1043930E+01  0.7957747E-01            NaN
         13   -1    0    0    0    0  0.00000000000E+00  0.00000000000E+00  0.74505805969E-08  0.10566000000E+00  0.10566000000E+00 0. -1.
     999900   -1    0    0    0    0 -0.00000000000E+00 -0.00000000000E+00 -0.74505805969E-08  0.93827000000E+00  0.93827000000E+00 0. -1.
     999902    2    1    2    0    0 -0.12191135260E-02  0.10162588447E-01  0.96988806755E-02  0.10298291941E+01  0.10297326528E+01 0.  0.
     999903    2    3    3    0    0 -0.33627998217E-02 -0.58086368316E-01 -0.11657688473E+00  0.13819693555E+00  0.46074812365E-01 0.  0.
         14    1    1    2    0    0  0.12191135260E-02 -0.10162588447E-01 -0.96988806755E-02  0.14100805938E-01  0.00000000000E+00 0.  1.
     999901    1    3    3    0    0  0.21436862957E-02  0.68248956763E-01  0.12627576541E+00  0.89163225851E+00  0.88000000000E+00 0.  1.
        -11    1    4    4    0    0 -0.23936478793E-01 -0.32244926950E-01 -0.52440555575E-01  0.66052731367E-01  0.51100000000E-03 0. -1.
         11    1    4    4    0    0  0.20573678971E-01 -0.25841441366E-01 -0.64136329159E-01  0.72144204184E-01  0.51100000000E-03 0.  1.
</event>
<event>
 8    1  0.2837913E+004  0.1043930E+01  0.7957747E-01            NaN
         13   -1    0    0    0    0  0.00000000000E+00  0.00000000000E+00  0.74505805969E-08  0.10566000000E+00  0.10566000000E+00 0.  1.
     999900   -1    0    0    0    0 -0.00000000000E+00 -0.00000000000E+00 -0.74505805969E-08  0.93827000000E+00  0.93827000000E+00 0. -1.
     999902    2    1    2    0    0 -0.15759916321E-01  0.65001258162E-02 -0.27375321581E-02  0.10266638284E+01  0.10265186291E+01 0.  0.
     999903    2    3    3    0    0 -0.87224999546E-01  0.29017354143E-01  0.93149017904E-01  0.13828974385E+00  0.44688995619E-01 0.  0.
         14    1    1    2    0    0  0.15759916321E-01 -0.65001258162E-02  0.27375321581E-02  0.17266171561E-01  0.00000000000E+00 0. -1.
     999901    1    3    3    0    0  0.71465083225E-01 -0.22517228327E-01 -0.95886550062E-01  0.88837408459E+00  0.88000000000E+00 0. -1.
        -11    1    4    4    0    0 -0.28624463679E-01  0.21143166705E-01  0.11347677462E-01  0.37355378783E-01  0.51100000000E-03 0. -1.
         11    1    4    4    0    0 -0.58600535867E-01  0.78741874381E-02  0.81801340443E-01  0.10093436506E+00  0.51100000000E-03 0.  1.
</event>
<event>
 8    1  0.2837913E+004  0.1043930E+01  0.7957747E-01            NaN
         13   -1    0    0    0    0  0.00000000000E+00  0.00000000000E+00  0.74505805969E-08  0.10566000000E+00  0.10566000000E+00 0.  1.
     999900   -1    0    0    0    0 -0.00000000000E+00 -0.00000000000E+00 -0.74505805969E-08  0.93827000000E+00  0.93827000000E+00 0.  1.
     999902    2    1    2    0    0 -0.18999326178E-02 -0.72667731172E-02 -0.11498277574E-01  0.10301958774E+01  0.10301043247E+01 0.  0.
     999903    2    3    3    0    0 -0.51804161756E-01 -0.11538977618E+00  0.41462647959E-01  0.14059716143E+00  0.45276252112E-01 0.  0.
         14    1    1    2    0    0  0.18999326178E-02  0.72667731172E-02  0.11498277574E-01  0.13734122566E-01  0.00000000000E+00 0.  1.
     999901    1    3    3    0    0  0.49904229138E-01  0.10812300306E+00 -0.52960925533E-01  0.88959871600E+00  0.88000000000E+00 0.  1.
        -11    1    4    4    0    0 -0.21562465694E-01 -0.85367956033E-01  0.42924259786E-01  0.97956015860E-01  0.51100000000E-03 0. -1.
         11    1    4    4    0    0 -0.30241696062E-01 -0.30021820147E-01 -0.14616118273E-02  0.42641145573E-01  0.51100000000E-03 0.  1.
</event>
<event>
 8    1  0.2837913E+004  0.1043930E+01  0.7957747E-01            NaN
         13   -1    0    0    0    0  0.00000000000E+00  0.00000000000E+00  0.74505805969E-08  0.10566000000E+00  0.10566000000E+00 0.  1.
     999900   -1    0    0    0    0 -0.00000000000E+00 -0.00000000000E+00 -0.74505805969E-08  0.93827000000E+00  0.93827000000E+00 0. -1.
     999902    2    1    2    0    0  0.84292087887E-02  0.56456312871E-02  0.52501789725E-02  0.10325068178E+01  0.10324436254E+01 0.  0.
     999903    2    3    3    0    0  0.12428854697E+00 -0.53459497037E-01  0.82684396104E-02  0.14294180476E+00  0.45369942970E-01 0.  0.
         14    1    1    2    0    0 -0.84292087887E-02 -0.56456312871E-02 -0.52501789725E-02  0.11423182248E-01  0.00000000000E+00 0. -1.
     999901    1    3    3    0    0 -0.11585933818E+00  0.59105128324E-01 -0.30182606378E-02  0.88956501299E+00  0.88000000000E+00 0. -1.
        -11    1    4    4    0    0  0.23442399098E-01 -0.27637757121E-01 -0.91801361886E-02  0.37388871547E-01  0.51100000000E-03 0. -1.
         11    1    4    4    0    0  0.10084614787E+00 -0.25821739915E-01  0.17448575799E-01  0.10555293322E+00  0.51100000000E-03 0.  1.
</event>
<event>
 8    1  0.2837913E+004  0.1043930E+01  0.7957747E-01            NaN
         13   -1    0    0    0    0  0.00000000000E+00  0.00000000000E+00  0.74505805969E-08  0.10566000000E+00  0.10566000000E+00 0.  1.
     999900   -1    0    0    0    0 -0.00000000000E+00 -0.00000000000E+00 -0.74505805969E-08  0.93827000000E+00  0.93827000000E+00 0.  1.
     999902    2    1    2    0    0  0.11022302280E-01  0.76763765584E-02 -0.18944143521E-02  0.10303650927E+01  0.10302757968E+01 0.  0.
     999903    2    3    3    0    0  0.11781820972E-01  0.36132480182E-01 -0.12798031643E+00  0.14092258111E+00  0.45120339588E-01 0.  0.
         14    1    1    2    0    0 -0.11022302280E-01 -0.76763765584E-02  0.18944143521E-02  0.13564907311E-01  0.00000000000E+00 0. -1.
     999901    1    3    3    0    0 -0.75951869247E-03 -0.28456103624E-01  0.12608590207E+00  0.88944251158E+00  0.88000000000E+00 0. -1.
        -11    1    4    4    0    0  0.12376865291E-01  0.78648031416E-02 -0.10024408732E+00  0.10131228991E+00  0.51100000000E-03 0. -1.
         11    1    4    4    0    0 -0.59504431822E-03  0.28267677041E-01 -0.27736229107E-01  0.39610291202E-01  0.51100000000E-03 0.  1.
</event>
<event>
 8    1  0.2837913E+004  0.1043930E+01  0.7957747E-01            NaN
         13   -1    0    0    0    0  0.00000000000E+00  0.00000000000E+00  0.74505805969E-08  0.10566000000E+00  0.10566000000E+00 0.  1.
     999900   -1    0    0    0    0 -0.00000000000E+00 -0.00000000000E+00 -0.74505805969E-08  0.93827000000E+00  0.93827000000E+00 0.  1.
     999902    2    1    2    0    0 -0.11317719151E-01  0.30444251152E-02 -0.57992794976E-02  0.10308536498E+01  0.10307707099E+01 0.  0.
     999903    2    3    3    0    0 -0.40276452792E-01  0.19959838001E-01 -0.12670150282E+00  0.14195428148E+00  0.45575864586E-01 0.  0.
         14    1    1    2    0    0  0.11317719151E-01 -0.30444251152E-02  0.57992794976E-02  0.13076350169E-01  0.00000000000E+00 0.  1.
     999901    1    3    3    0    0  0.28958733642E-01 -0.16915412886E-01  0.12090222332E+00  0.88889936835E+00  0.88000000000E+00 0. -1.
        -11    1    4    4    0    0 -0.39274344236E-01 -0.34512855006E-02 -0.91841734973E-01  0.99947740798E-01  0.51100000000E-03 0. -1.
         11    1    4    4    0    0 -0.10021085562E-02  0.23411123502E-01 -0.34859767843E-01  0.42006540684E-01  0.51100000000E-03 0.  1.
</event>
<event>
 8    1  0.2837913E+004  0.1043930E+01  0.7957747E-01            NaN
         13   -1    0    0    0    0  0.00000000000E+00  0.00000000000E+00  0.74505805969E-08  0.10566000000E+00  0.10566000000E+00 0.  1.
     999900   -1    0    0    0    0 -0.00000000000E+00 -0.00000000000E+00 -0.74505805969E-08  0.93827000000E+00  0.93827000000E+00 0. -1.
     999902    2    1    2    0    0  0.30654633628E-02  0.12792669612E-01 -0.54979013758E-02  0.10296724974E+01  0.10295737834E+01 0.  0.
     999903    2    3    3    0    0  0.10886227554E+00 -0.53314381478E-01  0.50943472324E-01  0.13908351455E+00  0.45338376009E-01 0.  0.
         14    1    1    2    0    0 -0.30654633628E-02 -0.12792669612E-01  0.54979013758E-02  0.14257502620E-01  0.00000000000E+00 0.  1.
     999901    1    3    3    0    0 -0.10579681218E+00  0.66107051090E-01 -0.56441373700E-01  0.89058898283E+00  0.88000000000E+00 0. -1.
        -11    1    4    4    0    0  0.91514827847E-01 -0.24442303791E-01  0.29756181705E-01  0.99287871370E-01  0.51100000000E-03 0. -1.
         11    1    4    4    0    0  0.17347447694E-01 -0.28872077686E-01  0.21187290619E-01  0.39795643181E-01  0.51100000000E-03 0.  1.
</event>
<event>
 8    1  0.2837913E+004  0.1043930E+01  0.7957747E-01            NaN
         13   -1    0    0    0    0  0.00000000000E+00  0.00000000000E+00  0.74505805969E-08  0.10566000000E+00  0.10566000000E+00 0.  1.
     999900   -1    0    0    0    0 -0.00000000000E+00 -0.00000000000E+00 -0.74505805969E-08  0.93827000000E+00  0.93827000000E+00 0.  1.
     999902    2    1    2    0    0 -0.19758183286E-02  0.17833403778E-01  0.59217206956E-03  0.10259777072E+01  0.10258206329E+01 0.  0.
     999903    2    3    3    0    0 -0.47101541199E-01  0.72304141584E-01  0.96500650322E-01  0.13794514681E+00  0.47644978149E-01 0.  0.
         14    1    1    2    0    0  0.19758183286E-02 -0.17833403778E-01 -0.59217206956E-03  0.17952292782E-01  0.00000000000E+00 0. -1.
     999901    1    3    3    0    0  0.45125722870E-01 -0.54470737807E-01 -0.95908478252E-01  0.88803256041E+00  0.88000000000E+00 0.  1.
        -11    1    4    4    0    0 -0.56807548219E-01  0.57594187845E-01  0.77633608122E-01  0.11212237172E+00  0.51100000000E-03 0.  1.
         11    1    4    4    0    0  0.97060070200E-02  0.14709953739E-01  0.18867042200E-01  0.25822775096E-01  0.51100000000E-03 0. -1.
</event>
<event>
 8    1  0.2837913E+004  0.1043930E+01  0.7957747E-01            NaN
         13   -1    0    0    0    0  0.00000000000E+00  0.00000000000E+00  0.74505805969E-08  0.10566000000E+00  0.10566000000E+00 0.  1.
     999900   -1    0    0    0    0 -0.00000000000E+00 -0.00000000000E+00 -0.74505805969E-08  0.93827000000E+00  0.93827000000E+00 0. -1.
     999902    2    1    2    0    0 -0.73894125924E-02  0.10391848684E-01  0.50611856558E-02  0.10302110519E+01  0.10301197027E+01 0.  0.
     999903    2    3    3    0    0 -0.19281430148E-01 -0.16752656766E-01 -0.13109961897E+00  0.13924640107E+00  0.39370357634E-01 0.  0.
         14    1    1    2    0    0  0.73894125924E-02 -0.10391848684E-01 -0.50611856558E-02  0.13718948129E-01  0.00000000000E+00 0. -1.
     999901    1    3    3    0    0  0.11892017556E-01  0.27144505450E-01  0.13616080463E+00  0.89096465080E+00  0.88000000000E+00 0.  1.
        -11    1    4    4    0    0 -0.27734694872E-01  0.29993784317E-03 -0.72207066933E-01  0.77352601110E-01  0.51100000000E-03 0.  1.
         11    1    4    4    0    0  0.84532647241E-02 -0.17052594609E-01 -0.58892552036E-01  0.61893799962E-01  0.51100000000E-03 0. -1.
</event>
<event>
 8    1  0.2837913E+004  0.1043930E+01  0.7957747E-01            NaN
         13   -1    0    0    0    0  0.00000000000E+00  0.00000000000E+00  0.74505805969E-08  0.10566000000E+00  0.10566000000E+00 0. -1.
     999900   -1    0    0    0    0 -0.00000000000E+00 -0.00000000000E+00 -0.74505805969E-08  0.93827000000E+00  0.93827000000E+00 0.  1.
     999902    2    1    2    0    0  0.10036314334E-02 -0.70145490806E-02 -0.12044030716E-01  0.10299561011E+01  0.10298613015E+01 0.  0.
     999903    2    3    3    0    0 -0.83879051278E-01 -0.74642306798E-01  0.71228381236E-01  0.13938725028E+00  0.41810932067E-01 0.  0.
         14    1    1    2    0    0 -0.10036314334E-02  0.70145490806E-02  0.12044030716E-01  0.13973898910E-01  0.00000000000E+00 0. -1.
     999901    1    3    3    0    0  0.84882682711E-01  0.67627757717E-01 -0.83272411952E-01  0.89056885081E+00  0.88000000000E+00 0.  1.
        -11    1    4    4    0    0 -0.76484270696E-01 -0.44606992286E-01  0.57250284908E-01  0.10543947870E+00  0.51100000000E-03 0.  1.
         11    1    4    4    0    0 -0.73947805813E-02 -0.30035314511E-01  0.13978096328E-01  0.33947771585E-01  0.51100000000E-03 0. -1.
</event>
<event>
 8    1  0.2837913E+004  0.1043930E+01  0.7957747E-01            NaN
         13   -1    0    0    0    0  0.00000000000E+00  0.00000000000E+00  0.74505805969E-08  0.10566000000E+00  0.10566000000E+00 0.  1.
     999900   -1    0    0    0    0 -0.00000000000E+00 -0.00000000000E+00 -0.74505805969E-08  0.93827000000E+00  0.93827000000E+00 0. -1.
     999902    2    1    2    0    0 -0.17300945915E-02  0.13516503537E-01  0.15478499584E-04  0.10303032126E+01  0.10302130947E+01 0.  0.
     999903    2    3    3    0    0  0.30053923287E-01  0.49214905649E-01 -0.12029024564E+00  0.14083254588E+00  0.45152159861E-01 0.  0.
         14    1    1    2    0    0  0.17300945915E-02 -0.13516503537E-01 -0.15478499584E-04  0.13626787397E-01  0.00000000000E+00 0.  1.
     999901    1    3    3    0    0 -0.31784017879E-01 -0.35698402112E-01  0.12030572414E+00  0.88947066673E+00  0.88000000000E+00 0.  1.
        -11    1    4    4    0    0  0.31884679115E-01  0.11024626731E-01 -0.69504376530E-01  0.77261210414E-01  0.51100000000E-03 0.  1.
         11    1    4    4    0    0 -0.18307558281E-02  0.38190278918E-01 -0.50785869106E-01  0.63571335463E-01  0.51100000000E-03 0. -1.
</event>
<event>
 8    1  0.2837913E+004  0.1043930E+01  0.7957747E-01            NaN
         13   -1    0    0    0    0  0.00000000000E+00  0.00000000000E+00  0.74505805969E-08  0.10566000000E+00  0.10566000000E+00 0. -1.
     999900   -1    0    0    0    0 -0.00000000000E+00 -0.00000000000E+00 -0.74505805969E-08  0.93827000000E+00  0.93827000000E+00 0.  1.
     999902    2    1    2    0    0 -0.12289468344E-01 -0.21707518075E-02  0.54987418303E-02  0.10302925751E+01  0.10302023156E+01 0.  0.
     999903    2    3    3    0    0 -0.59153844900E-01  0.85563056126E-01 -0.80193193820E-01  0.14055295103E+00  0.50039681933E-01 0.  0.
         14    1    1    2    0    0  0.12289468344E-01  0.21707518075E-02 -0.54987418303E-02  0.13637424878E-01  0.00000000000E+00 0. -1.
     999901    1    3    3    0    0  0.46864376557E-01 -0.87733807934E-01  0.85691935650E-01  0.88973962409E+00  0.88000000000E+00 0.  1.
        -11    1    4    4    0    0 -0.23642401950E-01  0.11975039918E-01 -0.43595119662E-01  0.51021175313E-01  0.51100000000E-03 0.  1.
         11    1    4    4    0    0 -0.35511442951E-01  0.73588016209E-01 -0.36598074158E-01  0.89531775717E-01  0.51100000000E-03 0. -1.
</event>
<event>
 8    1  0.2837913E+004  0.1043930E+01  0.7957747E-01            NaN
         13   -1    0    0    0    0  0.00000000000E+00  0.00000000000E+00  0.74505805969E-08  0.10566000000E+00  0.10566000000E+00 0.  1.
     999900   -1    0    0    0    0 -0.00000000000E+00 -0.00000000000E+00 -0.74505805969E-08  0.93827000000E+00  0.93827000000E+00 0.  1.
     999902    2    1    2    0    0 -0.29991176948E-02  0.12634796461E-01  0.26703300194E-02  0.10306724191E+01  0.10305871492E+01 0.  0.
     999903    2    3    3    0    0  0.11871617298E+00 -0.62860492740E-02  0.59285994347E-01  0.14029163325E+00  0.45098437812E-01 0.  0.
         14    1    1    2    0    0  0.29991176948E-02 -0.12634796461E-01 -0.26703300194E-02  0.13257580886E-01  0.00000000000E+00 0.  1.
     999901    1    3    3    0    0 -0.12171529067E+00  0.18920845735E-01 -0.56615664328E-01  0.89038078586E+00  0.88000000000E+00 0. -1.
        -11    1    4    4    0    0  0.88285682288E-01  0.14909406744E-01  0.47615197032E-01  0.10141065139E+00  0.51100000000E-03 0. -1.
         11    1    4    4    0    0  0.30430490687E-01 -0.21195456018E-01  0.11670797315E-01  0.38880981858E-01  0.51100000000E-03 0.  1.
</event>
<event>
 8    1  0.2837913E+004  0.1043930E+01  0.7957747E-01            NaN
         13   -1    0    0    0    0  0.00000000000E+00  0.00000000000E+00  0.74505805969E-08  0.10566000000E+00  0.10566000000E+00 0.  1.
     999900   -1    0    0    0    0 -0.00000000000E+00 -0.00000000000E+00 -0.74505805969E-08  0.93827000000E+00  0.93827000000E+00 0. -1.
     999902    2    1    2    0    0 -0.76078141705E-02 -0.10353555860E-01 -0.27740758257E-02  0.10307857826E+01  0.10307019739E+01 0.  0.
     999903    2    3    3    0    0  0.43014018936E-01  0.44538985024E-01 -0.11705375133E+00  0.14026031675E+00  0.46232550656E-01 0.  0.
         14    1    1    2    0    0  0.76078141705E-02  0.10353555860E-01  0.27740758257E-02  0.13144217439E-01  0.00000000000E+00 0. -1.
     999901    1    3    3    0    0 -0.50621833106E-01 -0.54892540883E-01  0.11427967551E+00  0.89052546582E+00  0.88000000000E+00 0.  1.
        -11    1    4    4    0    0  0.40704956722E-01  0.11742910080E-01 -0.81354256813E-01  0.91725490794E-01  0.51100000000E-03 0.  1.
         11    1    4    4    0    0  0.23090622141E-02  0.32796074944E-01 -0.35699494522E-01  0.48534825951E-01  0.51100000000E-03 0. -1.
</event>
<event>
 8    1  0.2837913E+004  0.1043930E+01  0.7957747E-01            NaN
         13   -1    0    0    0    0  0.00000000000E+00  0.00000000000E+00  0.74505805969E-08  0.10566000000E+00  0.10566000000E+00 0.  1.
     999900   -1    0    0    0    0 -0.00000000000E+00 -0.00000000000E+00 -0.74505805969E-08  0.93827000000E+00  0.93827000000E+00 0. -1.
     999902    2    1    2    0    0 -0.38983865433E-02  0.12043183704E-01  0.10420026157E-01  0.10275344934E+01  0.10274036804E+01 0.  0.
     999903    2    3    3    0    0  0.12142383055E+00  0.26069361529E-01  0.40228217637E-01  0.13804535910E+00  0.44887118878E-01 0.  0.
         14    1    1    2    0    0  0.38983865433E-02 -0.12043183704E-01 -0.10420026157E-01  0.16395506594E-01  0.00000000000E+00 0. -1.
     999901    1    3    3    0    0 -0.12532221709E+00 -0.14026177824E-01 -0.29808191480E-01  0.88948913430E+00  0.88000000000E+00 0. -1.
        -11    1    4    4    0    0  0.65499790477E-01  0.36718554184E-01  0.24362710198E-01  0.78944775274E-01  0.51100000000E-03 0.  1.
         11    1    4    4    0    0  0.55924040068E-01 -0.10649192655E-01  0.15865507438E-01  0.59100583830E-01  0.51100000000E-03 0. -1.
</event>
<event>
 8    1  0.2837913E+004  0.1043930E+01  0.7957747E-01            NaN
         13   -1    0    0    0    0  0.00000000000E+00  0.00000000000E+00  0.74505805969E-08  0.10566000000E+00  0.10566000000E+00 0. -1.
     999900   -1    0    0    0    0 -0.00000000000E+00 -0.00000000000E+00 -0.74505805969E-08  0.93827000000E+00  0.93827000000E+00 0.  1.
     999902    2    1    2    0    0 -0.32111902626E-02 -0.10153234140E-01  0.90274082764E-02  0.10299695556E+01  0.10298749398E+01 0.  0.
     999903    2    3    3    0    0 -0.12436858485E-01 -0.59759207525E-01 -0.11733475395E+00  0.13951278432E+00  0.44390699153E-01 0.  0.
         14    1    1    2    0    0  0.32111902626E-02  0.10153234140E-01 -0.90274082764E-02  0.13960444355E-01  0.00000000000E+00 0.  1.
     999901    1    3    3    0    0  0.92256682220E-02  0.49605973384E-01  0.12636216223E+00  0.89045677132E+00  0.88000000000E+00 0. -1.
        -11    1    4    4    0    0 -0.23913409180E-01 -0.33925922476E-01 -0.94344634523E-01  0.10307274392E+00  0.51100000000E-03 0. -1.
         11    1    4    4    0    0  0.11476550696E-01 -0.25833285049E-01 -0.22990119430E-01  0.36440040405E-01  0.51100000000E-03 0.  1.
</event>
<event>
 7    1  0.2837913E+004  0.1043930E+01  0.7957747E-01            NaN
         13   -1    0    0    0    0  0.00000000000E+00  0.00000000000E+00  0.74505805969E-08  0.10566000000E+00  0.10566000000E+00 0.  1.
     999900   -1    0    0    0    0 -0.00000000000E+00 -0.00000000000E+00 -0.74505805969E-08  0.93827000000E+00  0.93827000000E+00 0. -1.
     999903    2    1    2    0    0  0.76876823812E-01 -0.19990663028E-01 -0.80296497002E-01  0.12381118310E+00  0.50714977884E-01 0.  0.
         14    1    1    2    0    0  0.13982049838E-01  0.21909157318E-01 -0.15509103989E-01  0.30266172514E-01  0.00000000000E+00 0. -1.
     999901    1    1    2    0    0 -0.90858873650E-01 -0.19184942899E-02  0.95805600992E-01  0.88985264439E+00  0.88000000000E+00 0.  1.
        -11    1    3    3    0    0  0.37033486100E-01 -0.28870217265E-01 -0.20107867280E-01  0.51083813338E-01  0.51100000000E-03 0.  1.
         11    1    3    3    0    0  0.39843337713E-01  0.88795542363E-02 -0.60188629722E-01  0.72727369761E-01  0.51100000000E-03 0. -1.
</event>
<event>
 8    1  0.2837913E+004  0.1043930E+01  0.7957747E-01            NaN
         13   -1    0    0    0    0  0.00000000000E+00  0.00000000000E+00  0.74505805969E-08  0.10566000000E+00  0.10566000000E+00 0. -1.
     999900   -1    0    0    0    0 -0.00000000000E+00 -0.00000000000E+00 -0.74505805969E-08  0.93827000000E+00  0.93827000000E+00 0.  1.
     999902    2    1    2    0    0 -0.10786318345E-02  0.16529594239E-02 -0.16730594879E-01  0.10270833823E+01  0.10269452107E+01 0.  0.
     999903    2    3    3    0    0  0.88258591187E-01 -0.34104063200E-01 -0.90822476269E-01  0.13874261948E+00  0.45256228501E-01 0.  0.
         14    1    1    2    0    0  0.10786318345E-02 -0.16529594239E-02  0.16730594879E-01  0.16846617657E-01  0.00000000000E+00 0. -1.
     999901    1    3    3    0    0 -0.89337223022E-01  0.35757022624E-01  0.74091881390E-01  0.88834076287E+00  0.88000000000E+00 0. -1.
        -11    1    4    4    0    0  0.40357473109E-01 -0.26507173185E-01 -0.18600549357E-01  0.51745506312E-01  0.51100000000E-03 0.  1.
         11    1    4    4    0    0  0.47901118078E-01 -0.75968900143E-02 -0.72221926912E-01  0.86997113164E-01  0.51100000000E-03 0. -1.
</event>
<event>
 8    1  0.2837913E+004  0.1043930E+01  0.7957747E-01            NaN
         13   -1    0    0    0    0  0.00000000000E+00  0.00000000000E+00  0.74505805969E-08  0.10566000000E+00  0.10566000000E+00 0.  1.
     999900   -1    0    0    0    0 -0.00000000000E+00 -0.00000000000E+00 -0.74505805969E-08  0.93827000000E+00  0.93827000000E+00 0. -1.
     999902    2    1    2    0    0 -0.15216879991E-01  0.55651250831E-02 -0.28603846609E-02  0.10274768588E+01  0.10273451171E+01 0.  0.
     999903    2    3    3    0    0 -0.75501851436E-01  0.10815337554E+00  0.31119030040E-02  0.13944853995E+00  0.45150073579E-01 0.  0.
         14    1    1    2    0    0  0.15216879991E-01 -0.55651250831E-02  0.28603846609E-02  0.16453141167E-01  0.00000000000E+00 0. -1.
     999901    1    3    3    0    0  0.60284971445E-01 -0.10258825045E+00 -0.59722876649E-02  0.88802831888E+00  0.88000000000E+00 0.  1.
        -11    1    4    4    0    0 -0.28772816784E-01  0.79583439847E-01  0.92367479721E-03  0.84631632264E-01  0.51100000000E-03 0.  1.
         11    1    4    4    0    0 -0.46729034652E-01  0.28569935691E-01  0.21882282068E-02  0.54816907689E-01  0.51100000000E-03 0. -1.
</event>
<event>
 8    1  0.2837913E+004  0.1043930E+01  0.7957747E-01            NaN
         13   -1    0    0    0    0  0.00000000000E+00  0.00000000000E+00  0.74505805969E-08  0.10566000000E+00  0.10566000000E+00 0. -1.
     999900   -1    0    0    0    0 -0.00000000000E+00 -0.00000000000E+00 -0.74505805969E-08  0.93827000000E+00  0.93827000000E+00 0. -1.
     999902    2    1    2    0    0  0.83053732073E-02  0.69462511932E-02  0.95684240824E-02  0.10294806274E+01  0.10293792196E+01 0.  0.
     999903    2    3    3    0    0 -0.39086535798E-01 -0.79382732528E-01  0.97785883430E-01  0.13960366588E+00  0.45800971877E-01 0.  0.
         14    1    1    2    0    0 -0.83053732073E-02 -0.69462511932E-02 -0.95684240824E-02  0.14449372622E-01  0.00000000000E+00 0.  1.
     999901    1    3    3    0    0  0.47391909005E-01  0.86328983721E-01 -0.88217459348E-01  0.88987696150E+00  0.88000000000E+00 0.  1.
        -11    1    4    4    0    0 -0.34331625376E-01 -0.58039992583E-01  0.96455561410E-01  0.11769128127E+00  0.51100000000E-03 0.  1.
         11    1    4    4    0    0 -0.47549104219E-02 -0.21342739945E-01  0.13303220202E-02  0.21912384607E-01  0.51100000000E-03 0. -1.
</event>
<event>
 8    1  0.2837913E+004  0.1043930E+01  0.7957747E-01            NaN
         13   -1    0    0    0    0  0.00000000000E+00  0.00000000000E+00  0.74505805969E-08  0.10566000000E+00  0.10566000000E+00 0. -1.
     999900   -1    0    0    0    0 -0.00000000000E+00 -0.00000000000E+00 -0.74505805969E-08  0.93827000000E+00  0.93827000000E+00 0.  1.
     999902    2    1    2    0    0 -0.38833594373E-02 -0.99318123209E-02  0.10242839242E-01  0.10291436167E+01  0.10290373883E+01 0.  0.
     999903    2    3    3    0    0 -0.28329283939E-01 -0.59095074425E-01  0.11637016625E+00  0.14106837261E+00  0.45425697647E-01 0.  0.
         14    1    1    2    0    0  0.38833594373E-02  0.99318123209E-02 -0.10242839242E-01  0.14786383338E-01  0.00000000000E+00 0.  1.
     999901    1    3    3    0    0  0.24445924502E-01  0.49163262104E-01 -0.10612732701E+00  0.88807524406E+00  0.88000000000E+00 0.  1.
        -11    1    4    4    0    0  0.17650696145E-02 -0.33898066753E-01  0.82539696126E-01  0.89248288263E-01  0.51100000000E-03 0.  1.
         11    1    4    4    0    0 -0.30094353554E-01 -0.25197007672E-01  0.33830470125E-01  0.51820084343E-01  0.51100000000E-03 0. -1.
</event>
<event>
 8    1  0.2837913E+004  0.1043930E+01  0.7957747E-01            NaN
         13   -1    0    0    0    0  0.00000000000E+00  0.00000000000E+00  0.74505805969E-08  0.10566000000E+00  0.10566000000E+00 0. -1.
     999900   -1    0    0    0    0 -0.00000000000E+00 -0.00000000000E+00 -0.74505805969E-08  0.93827000000E+00  0.93827000000E+00 0. -1.
     999902    2    1    2    0    0  0.37796346176E-02  0.73974228590E-02 -0.96668839141E-02  0.10311841714E+01  0.10311053967E+01 0.  0.
     999903    2    3    3    0    0  0.70336472541E-01  0.10396076649E+00 -0.50085749049E-01  0.14248401009E+00  0.45144773067E-01 0.  0.
         14    1    1    2    0    0 -0.37796346176E-02 -0.73974228590E-02  0.96668839141E-02  0.12745828628E-01  0.00000000000E+00 0. -1.
     999901    1    3    3    0    0 -0.66556837924E-01 -0.96563343627E-01  0.40418865135E-01  0.88870016128E+00  0.88000000000E+00 0.  1.
        -11    1    4    4    0    0 -0.51161540029E-02  0.19078742823E-01 -0.89656734720E-02  0.21698338215E-01  0.51100000000E-03 0. -1.
         11    1    4    4    0    0  0.75452626544E-01  0.84882023663E-01 -0.41120075577E-01  0.12078567187E+00  0.51100000000E-03 0.  1.
</event>
<event>
 8    1  0.2837913E+004  0.1043930E+01  0.7957747E-01            NaN
         13   -1    0    0    0    0  0.00000000000E+00  0.00000000000E+00  0.74505805969E-08  0.10566000000E+00  0.10566000000E+00 0.  1.
     999900   -1    0    0    0    0 -0.00000000000E+00 -0.00000000000E+00 -0.74505805969E-08  0.93827000000E+00  0.93827000000E+00 0.  1.
     999902    2    1    2    0    0 -0.37340816002E-02 -0.10165709194E-01 -0.80840569444E-02  0.10304156748E+01  0.10303270480E+01 0.  0.
     999903    2    3    3    0    0 -0.72701727795E-01 -0.55711810636E-01  0.96901589625E-01  0.14032974100E+00  0.43739811010E-01 0.  0.
         14    1    1    2    0    0  0.37340816002E-02  0.10165709194E-01  0.80840569444E-02  0.13514325196E-01  0.00000000000E+00 0.  1.
     999901    1    3    3    0    0  0.68967646195E-01  0.45546101441E-01 -0.10498564657E+00  0.89008593381E+00  0.88000000000E+00 0.  1.
        -11    1    4    4    0    0 -0.53592857108E-01 -0.14800402487E-01  0.44970576107E-01  0.71511258436E-01  0.51100000000E-03 0. -1.
         11    1    4    4    0    0 -0.19108870687E-01 -0.40911408149E-01  0.51931013519E-01  0.68818482559E-01  0.51100000000E-03 0.  1.
</event>
<event>
 8    1  0.2837913E+004  0.1043930E+01  0.7957747E-01            NaN
         13   -1    0    0    0    0  0.00000000000E+00  0.00000000000E+00  0.74505805969E-08  0.10566000000E+00  0.10566000000E+00 0.  1.
     999900   -1    0    0    0    0 -0.00000000000E+00 -0.00000000000E+00 -0.74505805969E-08  0.93827000000E+00  0.93827000000E+00 0. -1.
     999902    2    1    2    0    0  0.21991020689E-02 -0.77285687238E-03  0.11794924688E-01  0.10319069552E+01  0.10318369109E+01 0.  0.
     999903    2    3    3    0    0  0.36635022444E-01 -0.97595203236E-01  0.86659893209E-01  0.14276964136E+00  0.44791571066E-01 0.  0.
         14    1    1    2    0    0 -0.21991020689E-02  0.77285687238E-03 -0.11794924688E-01  0.12023044791E-01  0.00000000000E+00 0. -1.
     999901    1    3    3    0    0 -0.34435920375E-01  0.96822346364E-01 -0.74864968521E-01  0.88913731385E+00  0.88000000000E+00 0. -1.
        -11    1    4    4    0    0  0.85427477720E-02 -0.60652135105E-02  0.29384624307E-01  0.31200683023E-01  0.51100000000E-03 0. -1.
         11    1    4    4    0    0  0.28092274672E-01 -0.91529989726E-01  0.57275268903E-01  0.11156895834E+00  0.51100000000E-03 0.  1.
</event>
<event>
 8    1  0.2837913E+004  0.1043930E+01  0.7957747E-01            NaN
         13   -1    0    0    0    0  0.00000000000E+00  0.00000000000E+00  0.74505805969E-08  0.10566000000E+00  0.10566000000E+00 0. -1.
     999900   -1    0    0    0    0 -0.00000000000E+00 -0.00000000000E+00 -0.74505805969E-08  0.93827000000E+00  0.93827000000E+00 0.  1.
     999902    2    1    2    0    0 -0.62580395396E-02  0.14673228596E-01 -0.26917389808E-02  0.10277524799E+01  0.10276251495E+01 0.  0.
     999903    2    3    3    0    0  0.72910586853E-01 -0.96973393185E-01 -0.41487180289E-01  0.13632793136E+00  0.46306868598E-01 0.  0.
         14    1    1    2    0    0  0.62580395396E-02 -0.14673228596E-01  0.26917389808E-02  0.16177520052E-01  0.00000000000E+00 0.  1.
     999901    1    3    3    0    0 -0.79168626392E-01  0.11164662178E+00  0.38795441308E-01  0.89142454859E+00  0.88000000000E+00 0. -1.
        -11    1    4    4    0    0  0.49607765744E-01 -0.82316265229E-01 -0.48870176272E-01  0.10782139488E+00  0.51100000000E-03 0. -1.
         11    1    4    4    0    0  0.23302821108E-01 -0.14657127956E-01  0.73829959828E-02  0.28506536482E-01  0.51100000000E-03 0.  1.
</event>
<event>
 8    1  0.2837913E+004  0.1043930E+01  0.7957747E-01            NaN
         13   -1    0    0    0    0  0.00000000000E+00  0.00000000000E+00  0.74505805969E-08  0.10566000000E+00  0.10566000000E+00 0.  1.
     999900   -1    0    0    0    0 -0.00000000000E+00 -0.00000000000E+00 -0.74505805969E-08  0.93827000000E+00  0.93827000000E+00 0.  1.
     999902    2    1    2    0    0  0.16094917314E-01 -0.64469910456E-02 -0.12481344533E-01  0.10225666197E+01  0.10223434343E+01 0.  0.
     999903    2    3    3    0    0  0.34443953457E-01 -0.83416998388E-01  0.87397714736E-01  0.13338896835E+00  0.44827165730E-01 0.  0.
         14    1    1    2    0    0 -0.16094917314E-01  0.64469910456E-02  0.12481344533E-01  0.21363380309E-01  0.00000000000E+00 0.  1.
     999901    1    3    3    0    0 -0.18349036143E-01  0.76970007342E-01 -0.99879059269E-01  0.88917765134E+00  0.88000000000E+00 0.  1.
        -11    1    4    4    0    0  0.10591910505E-01 -0.53007161403E-02  0.33486083641E-01  0.35522740299E-01  0.51100000000E-03 0. -1.
         11    1    4    4    0    0  0.23852042953E-01 -0.78116282248E-01  0.53911631095E-01  0.97866228054E-01  0.51100000000E-03 0.  1.
</event>
<event>
 8    1  0.2837913E+004  0.1043930E+01  0.7957747E-01            NaN
         13   -1    0    0    0    0  0.00000000000E+00  0.00000000000E+00  0.74505805969E-08  0.10566000000E+00  0.10566000000E+00 0. -1.
     999900   -1    0    0    0    0 -0.00000000000E+00 -0.00000000000E+00 -0.74505805969E-08  0.93827000000E+00  0.93827000000E+00 0.  1.
     999902    2    1    2    0    0 -0.32510830875E-02  0.91991975764E-02  0.49251034072E-02  0.10330006166E+01  0.10329427973E+01 0.  0.
     999903    2    3    3    0    0  0.47853835822E-01 -0.12069365854E+00  0.34651041232E-01  0.14150328170E+00  0.44334357552E-01 0.  0.
         14    1    1    2    0    0  0.32510830875E-02 -0.91991975764E-02 -0.49251034072E-02  0.10929383371E-01  0.00000000000E+00 0. -1.
     999901    1    3    3    0    0 -0.51104918910E-01  0.12989285611E+00 -0.29725937825E-01  0.89149733493E+00  0.88000000000E+00 0.  1.
        -11    1    4    4    0    0  0.32091694787E-01 -0.10912280909E+00  0.41046223024E-01  0.12092443047E+00  0.51100000000E-03 0.  1.
         11    1    4    4    0    0  0.15762141036E-01 -0.11570849446E-01 -0.63951817921E-02  0.20578851233E-01  0.51100000000E-03 0. -1.
</event>
<event>
 8    1  0.2837913E+004  0.1043930E+01  0.7957747E-01            NaN
         13   -1    0    0    0    0  0.00000000000E+00  0.00000000000E+00  0.74505805969E-08  0.10566000000E+00  0.10566000000E+00 0.  1.
     999900   -1    0    0    0    0 -0.00000000000E+00 -0.00000000000E+00 -0.74505805969E-08  0.93827000000E+00  0.93827000000E+00 0.  1.
     999902    2    1    2    0    0 -0.95235113018E-02 -0.89398737097E-02  0.54655740594E-02  0.10297705117E+01  0.10296731596E+01 0.  0.
     999903    2    3    3    0    0 -0.47965162062E-02 -0.54143694710E-01 -0.11989574188E+00  0.13972490081E+00  0.46834952116E-01 0.  0.
         14    1    1    2    0    0  0.95235113018E-02  0.89398737097E-02 -0.54655740594E-02  0.14159488312E-01  0.00000000000E+00 0. -1.
     999901    1    3    3    0    0 -0.47269950956E-02  0.45203821000E-01  0.12536131594E+00  0.89004561088E+00  0.88000000000E+00 0. -1.
        -11    1    4    4    0    0 -0.24161422883E-01 -0.17921016017E-01 -0.42033185710E-01  0.51691266117E-01  0.51100000000E-03 0.  1.
         11    1    4    4    0    0  0.19364906677E-01 -0.36222678693E-01 -0.77862556170E-01  0.88033634690E-01  0.51100000000E-03 0. -1.
</event>
<event>
 8    1  0.2837913E+004  0.1043930E+01  0.7957747E-01            NaN
         13   -1    0    0    0    0  0.00000000000E+00  0.00000000000E+00  0.74505805969E-08  0.10566000000E+00  0.10566000000E+00 0.  1.
     999900   -1    0    0    0    0 -0.00000000000E+00 -0.00000000000E+00 -0.74505805969E-08  0.93827000000E+00  0.93827000000E+00 0. -1.
     999902    2    1    2    0    0 -0.92190513328E-02  0.58566506524E-02  0.13060594718E-01  0.10269044193E+01  0.10267632716E+01 0.  0.
     999903    2    3    3    0    0  0.78705456548E-01 -0.93373558300E-01  0.44555098815E-01  0.13641620642E+00  0.41364891689E-01 0.  0.
         14    1    1    2    0    0  0.92190513328E-02 -0.58566506524E-02 -0.13060594718E-01  0.17025580716E-01  0.00000000000E+00 0. -1.
     999901    1    3    3    0    0 -0.87924507881E-01  0.99230208952E-01 -0.31494504098E-01  0.89048821286E+00  0.88000000000E+00 0. -1.
        -11    1    4    4    0    0  0.39452971033E-01 -0.56553484362E-01  0.45448783192E-01  0.82587447784E-01  0.51100000000E-03 0. -1.
         11    1    4    4    0    0  0.39252485516E-01 -0.36820073938E-01 -0.89368437650E-03  0.53828758640E-01  0.51100000000E-03 0.  1.
</event>
<event>
 8    1  0.2837913E+004  0.1043930E+01  0.7957747E-01            NaN
         13   -1    0    0    0    0  0.00000000000E+00  0.00000000000E+00  0.74505805969E-08  0.10566000000E+00  0.10566000000E+00 0.  1.
     999900   -1    0    0    0    0 -0.00000000000E+00 -0.00000000000E+00 -0.74505805969E-08  0.93827000000E+00  0.93827000000E+00 0. -1.
     999902    2    1    2    0    0  0.13872858218E-01  0.51763262262E-02 -0.21663058302E-03  0.10291213040E+01  0.10290147525E+01 0.  0.
     999903    2    3    3    0    0  0.58033068908E-01  0.13240939964E-02 -0.12028651174E+00  0.13986220775E+00  0.41509058518E-01 0.  0.
         14    1    1    2    0    0 -0.13872858218E-01 -0.51763262262E-02  0.21663058302E-03  0.14808695997E-01  0.00000000000E+00 0. -1.
     999901    1    3    3    0    0 -0.44160210690E-01  0.38522322298E-02  0.12006988116E+00  0.88925909625E+00  0.88000000000E+00 0.  1.
        -11    1    4    4    0    0  0.32935417019E-01 -0.77500153725E-03 -0.10578153638E+00  0.11079411935E+00  0.51100000000E-03 0. -1.
         11    1    4    4    0    0  0.25097651889E-01  0.20990955337E-02 -0.14504975358E-01  0.29068088405E-01  0.51100000000E-03 0.  1.
</event>
<event>
 7    1  0.2837913E+004  0.1043930E+01  0.7957747E-01            NaN
         13   -1    0    0    0    0  0.00000000000E+00  0.00000000000E+00  0.74505805969E-08  0.10566000000E+00  0.10566000000E+00 0.  1.
     999900   -1    0    0    0    0 -0.00000000000E+00 -0.00000000000E+00 -0.74505805969E-08  0.93827000000E+00  0.93827000000E+00 0. -1.
     999902    2    1    2    0    0 -0.11482730830E-01 -0.58260480356E-02 -0.49677263370E-02  0.10301287592E+01  0.10300363034E+01 0.  0.
         14    1    1    2    0    0  0.11482730830E-01  0.58260480356E-02  0.49677263370E-02  0.13801240813E-01  0.00000000000E+00 0.  1.
     999901    1    3    3    0    0 -0.52761569284E-01 -0.81776265727E-04 -0.10439829062E+00  0.88774027337E+00  0.88000000000E+00 0.  1.
        -11    1    3    3    0    0 -0.34677795824E-02  0.33601534799E-01  0.65799801974E-01  0.73965963097E-01  0.51100000000E-03 0.  1.
         11    1    3    3    0    0  0.44746618037E-01 -0.39345806569E-01  0.33630762314E-01  0.68422522718E-01  0.51100000000E-03 0. -1.
</event>
<event>
 8    1  0.2837913E+004  0.1043930E+01  0.7957747E-01            NaN
         13   -1    0    0    0    0  0.00000000000E+00  0.00000000000E+00  0.74505805969E-08  0.10566000000E+00  0.10566000000E+00 0.  1.
     999900   -1    0    0    0    0 -0.00000000000E+00 -0.00000000000E+00 -0.74505805969E-08  0.93827000000E+00  0.93827000000E+00 0. -1.
     999902    2    1    2    0    0  0.63011901860E-02  0.25056391458E-02 -0.11291963473E-01  0.10307583765E+01  0.10306742158E+01 0.  0.
     999903    2    3    3    0    0 -0.95309516086E-01  0.12788177626E-01 -0.92802741696E-01  0.14110986551E+00  0.45301257537E-01 0.  0.
         14    1    1    2    0    0 -0.63011901860E-02 -0.25056391458E-02  0.11291963473E-01  0.13171623452E-01  0.00000000000E+00 0.  1.
     999901    1    3    3    0    0  0.10161070627E+00 -0.10282538480E-01  0.81510778223E-01  0.88964851104E+00  0.88000000000E+00 0.  1.
        -11    1    4    4    0    0 -0.35598034954E-02  0.13934464393E-01 -0.10104079003E-01  0.17583942458E-01  0.51100000000E-03 0.  1.
         11    1    4    4    0    0 -0.91749712590E-01 -0.11462867672E-02 -0.82698662692E-01  0.12352592305E+00  0.51100000000E-03 0. -1.
</event>
<event>
 8    1  0.2837913E+004  0.1043930E+01  0.7957747E-01            NaN
         13   -1    0    0    0    0  0.00000000000E+00  0.00000000000E+00  0.74505805969E-08  0.10566000000E+00  0.10566000000E+00 0.  1.
     999900   -1    0    0    0    0 -0.00000000000E+00 -0.00000000000E+00 -0.74505805969E-08  0.93827000000E+00  0.93827000000E+00 0.  1.
     999902    2    1    2    0    0  0.73867154837E-02 -0.47761279318E-02 -0.11234638945E-01  0.10296614305E+01  0.10295625621E+01 0.  0.
     999903    2    3    3    0    0  0.16409503459E-01  0.72227622514E-01  0.10917717342E+00  0.13808418042E+00  0.40761310426E-01 0.  0.
         14    1    1    2    0    0 -0.73867154837E-02  0.47761279318E-02  0.11234638945E-01  0.14268569511E-01  0.00000000000E+00 0.  1.
     999901    1    3    3    0    0 -0.90227879751E-02 -0.77003750446E-01 -0.12041181237E+00  0.89157725007E+00  0.88000000000E+00 0.  1.
        -11    1    4    4    0    0 -0.11939448298E-01  0.30622160797E-01  0.55388101728E-01  0.64407841848E-01  0.51100000000E-03 0.  1.
         11    1    4    4    0    0  0.28348951757E-01  0.41605461718E-01  0.53789071694E-01  0.73676338571E-01  0.51100000000E-03 0. -1.
</event>
<event>
 8    1  0.2837913E+004  0.1043930E+01  0.7957747E-01            NaN
         13   -1    0    0    0    0  0.00000000000E+00  0.00000000000E+00  0.74505805969E-08  0.10566000000E+00  0.10566000000E+00 0.  1.
     999900   -1    0    0    0    0 -0.00000000000E+00 -0.00000000000E+00 -0.74505805969E-08  0.93827000000E+00  0.93827000000E+00 0. -1.
     999902    2    1    2    0    0 -0.39522948450E-02  0.13396718428E-01 -0.81409089968E-03  0.10299387369E+01  0.10298436999E+01 0.  0.
     999903    2    3    3    0    0  0.72034066379E-01  0.10655972451E+00 -0.36422943940E-01  0.14105108190E+00  0.44998836121E-01 0.  0.
         14    1    1    2    0    0  0.39522948450E-02 -0.13396718428E-01  0.81409089968E-03  0.13991263101E-01  0.00000000000E+00 0.  1.
     999901    1    3    3    0    0 -0.75986361224E-01 -0.93163006086E-01  0.35608853040E-01  0.88888765500E+00  0.88000000000E+00 0. -1.
        -11    1    4    4    0    0  0.43136659383E-01  0.45152458853E-01 -0.38115380064E-01  0.73161186716E-01  0.51100000000E-03 0.  1.
         11    1    4    4    0    0  0.28897406995E-01  0.61407265661E-01  0.16924361241E-02  0.67889895184E-01  0.51100000000E-03 0. -1.
</event>
<event>
 8    1  0.2837913E+004  0.1043930E+01  0.7957747E-01            NaN
         13   -1    0    0    0    0  0.00000000000E+00  0.00000000000E+00  0.74505805969E-08  0.10566000000E+00  0.10566000000E+00 0. -1.
     999900   -1    0    0    0    0 -0.00000000000E+00 -0.00000000000E+00 -0.74505805969E-08  0.93827000000E+00  0.93827000000E+00 0. -1.
     999902    2    1    2    0    0  0.42639014727E-02 -0.18224889632E-01  0.23104587311E-02  0.10250708993E+01  0.10248974012E+01 0.  0.
     999903    2    3    3    0    0 -0.85137473333E-01  0.49276883781E-02  0.95183146438E-01  0.13537770290E+00  0.44661164315E-01 0.  0.
         14    1    1    2    0    0 -0.42639014727E-02  0.18224889632E-01 -0.23104587311E-02  0.18859100653E-01  0.00000000000E+00 0. -1.
     999901    1    3    3    0    0  0.89401374806E-01 -0.23152578011E-01 -0.92872687706E-01  0.88969319645E+00  0.88000000000E+00 0. -1.
        -11    1    4    4    0    0 -0.26738769103E-01 -0.69387063020E-02  0.62559602188E-02  0.28328529393E-01  0.51100000000E-03 0. -1.
         11    1    4    4    0    0 -0.58398704230E-01  0.11866394680E-01  0.88927186219E-01  0.10704917351E+00  0.51100000000E-03 0.  1.
</event>
<event>
 7    1  0.2837913E+004  0.1043930E+01  0.7957747E-01            NaN
         13   -1    0    0    0    0  0.00000000000E+00  0.00000000000E+00  0.74505805969E-08  0.10566000000E+00  0.10566000000E+00 0. -1.
     999900   -1    0    0    0    0 -0.00000000000E+00 -0.00000000000E+00 -0.74505805969E-08  0.93827000000E+00  0.93827000000E+00 0.  1.
     999903    2    1    2    0    0 -0.22223249300E-02  0.65452874346E-01 -0.17714426086E-01  0.81140759154E-01  0.44508475780E-01 0.  0.
         14    1    1    2    0    0 -0.42902535987E-01 -0.45779546424E-01 -0.47957280881E-01  0.78970217515E-01  0.00000000000E+00 0.  1.
     999901    1    1    2    0    0  0.45124860917E-01 -0.19673327922E-01  0.65671706967E-01  0.88381902333E+00  0.88000000000E+00 0. -1.
        -11    1    3    3    0    0 -0.15116949200E-01  0.86715324833E-02  0.57541325689E-02  0.18359977978E-01  0.51100000000E-03 0.  1.
         11    1    3    3    0    0  0.12894624270E-01  0.56781341863E-01 -0.23468558655E-01  0.62780781177E-01  0.51100000000E-03 0. -1.
</event>
<event>
 8    1  0.2837913E+004  0.1043930E+01  0.7957747E-01            NaN
         13   -1    0    0    0    0  0.00000000000E+00  0.00000000000E+00  0.74505805969E-08  0.10566000000E+00  0.10566000000E+00 0.  1.
     999900   -1    0    0    0    0 -0.00000000000E+00 -0.00000000000E+00 -0.74505805969E-08  0.93827000000E+00  0.93827000000E+00 0. -1.
     999902    2    1    2    0    0 -0.18345968782E-02 -0.11204251689E-01  0.80720556632E-02  0.10299994909E+01  0.10299052831E+01 0.  0.
     999903    2    3    3    0    0  0.10391336161E+00 -0.77538045144E-01  0.32956088596E-01  0.14084145208E+00  0.44046290207E-01 0.  0.
         14    1    1    2    0    0  0.18345968782E-02  0.11204251689E-01 -0.80720556632E-02  0.13930509116E-01  0.00000000000E+00 0.  1.
     999901    1    3    3    0    0 -0.10574795849E+00  0.66333793455E-01 -0.24884032933E-01  0.88915803881E+00  0.88000000000E+00 0. -1.
        -11    1    4    4    0    0  0.10326176117E-01 -0.84364353755E-02 -0.10161903333E-01  0.16772857699E-01  0.51100000000E-03 0. -1.
         11    1    4    4    0    0  0.93587185497E-01 -0.69101609768E-01  0.43117991930E-01  0.12406859438E+00  0.51100000000E-03 0.  1.
</event>
<event>
 8    1  0.2837913E+004  0.1043930E+01  0.7957747E-01            NaN
         13   -1    0    0    0    0  0.00000000000E+00  0.00000000000E+00  0.74505805969E-08  0.10566000000E+00  0.10566000000E+00 0. -1.
     999900   -1    0    0    0    0 -0.00000000000E+00 -0.00000000000E+00 -0.74505805969E-08  0.93827000000E+00  0.93827000000E+00 0.  1.
     999902    2    1    2    0    0  0.29990391809E-02  0.13428542920E-01  0.78638194019E-03  0.10301481860E+01  0.10300559920E+01 0.  0.
     999903    2    3    3    0    0 -0.85677787467E-01  0.42578295656E-01 -0.92472252851E-01  0.14031086342E+00  0.44524446318E-01 0.  0.
         14    1    1    2    0    0 -0.29990391809E-02 -0.13428542920E-01 -0.78638194019E-03  0.13781814014E-01  0.00000000000E+00 0. -1.
     999901    1    3    3    0    0  0.88676826648E-01 -0.29149752736E-01  0.93258634791E-01  0.88983732257E+00  0.88000000000E+00 0. -1.
        -11    1    4    4    0    0 -0.52195731205E-01  0.32299699543E-02 -0.58530394189E-01  0.78491370397E-01  0.51100000000E-03 0. -1.
         11    1    4    4    0    0 -0.33482056263E-01  0.39348325702E-01 -0.33941858662E-01  0.61819493022E-01  0.51100000000E-03 0.  1.
</event>
<event>
 8    1  0.2837913E+004  0.1043930E+01  0.7957747E-01            NaN
         13   -1    0    0    0    0  0.00000000000E+00  0.00000000000E+00  0.74505805969E-08  0.10566000000E+00  0.10566000000E+00 0. -1.
     999900   -1    0    0    0    0 -0.00000000000E+00 -0.00000000000E+00 -0.74505805969E-08  0.93827000000E+00  0.93827000000E+00 0. -1.
     999902    2    1    2    0    0 -0.85072697551E-02  0.15384948922E-02 -0.99520225013E-02  0.10307473084E+01  0.10306630053E+01 0.  0.
     999903    2    3    3    0    0  0.24916894936E-01  0.36538792461E-01 -0.12684119995E+00  0.14169991069E+00  0.45102546229E-01 0.  0.
         14    1    1    2    0    0  0.85072697551E-02 -0.15384948922E-02  0.99520225013E-02  0.13182691572E-01  0.00000000000E+00 0.  1.
     999901    1    3    3    0    0 -0.33424164691E-01 -0.35000297569E-01  0.11688917745E+00  0.88904739774E+00  0.88000000000E+00 0.  1.
        -11    1    4    4    0    0  0.22046823642E-01  0.14786298118E-01 -0.11224469512E+00  0.11534222882E+00  0.51100000000E-03 0.  1.
         11    1    4    4    0    0  0.28700712939E-02  0.21752494343E-01 -0.14596504831E-01  0.26357681872E-01  0.51100000000E-03 0. -1.
</event>
<event>
 8    1  0.2837913E+004  0.1043930E+01  0.7957747E-01            NaN
         13   -1    0    0    0    0  0.00000000000E+00  0.00000000000E+00  0.74505805969E-08  0.10566000000E+00  0.10566000000E+00 0. -1.
     999900   -1    0    0    0    0 -0.00000000000E+00 -0.00000000000E+00 -0.74505805969E-08  0.93827000000E+00  0.93827000000E+00 0. -1.
     999902    2    1    2    0    0 -0.45082293800E-03 -0.10843697634E-01  0.90092406585E-02  0.10298248436E+01  0.10297282423E+01 0.  0.
     999903    2    3    3    0    0  0.12794099559E-01  0.54898942067E-01 -0.11822936499E+00  0.13814822879E+00  0.43922289865E-01 0.  0.
         14    1    1    2    0    0  0.45082293800E-03  0.10843697634E-01 -0.90092406585E-02  0.14105156396E-01  0.00000000000E+00 0.  1.
     999901    1    3    3    0    0 -0.13244922497E-01 -0.65742639701E-01  0.12723860565E+00  0.89167661482E+00  0.88000000000E+00 0.  1.
        -11    1    4    4    0    0 -0.96037850589E-02  0.38775871799E-01 -0.46578734712E-01  0.61364815405E-01  0.51100000000E-03 0. -1.
         11    1    4    4    0    0  0.22397884618E-01  0.16123070268E-01 -0.71650630278E-01  0.76783413381E-01  0.51100000000E-03 0.  1.
</event>
<event>
 8    1  0.2837913E+004  0.1043930E+01  0.7957747E-01            NaN
         13   -1    0    0    0    0  0.00000000000E+00  0.00000000000E+00  0.74505805969E-08  0.10566000000E+00  0.10566000000E+00 0.  1.
     999900   -1    0    0    0    0 -0.00000000000E+00 -0.00000000000E+00 -0.74505805969E-08  0.93827000000E+00  0.93827000000E+00 0. -1.
     999902    2    1    2    0    0  0.78208104095E-02 -0.11176752822E-01  0.12961433763E-02  0.10302272679E+01  0.10301361360E+01 0.  0.
     999903    2    3    3    0    0  0.48443577227E-01  0.96385031836E-02 -0.12334925588E+00  0.14027223555E+00  0.44961986412E-01 0.  0.
         14    1    1    2    0    0 -0.78208104095E-02  0.11176752822E-01 -0.12961433763E-02  0.13702732091E-01  0.00000000000E+00 0. -1.
     999901    1    3    3    0    0 -0.40622766817E-01 -0.20815256006E-01  0.12464539925E+00  0.88995503236E+00  0.88000000000E+00 0.  1.
        -11    1    4    4    0    0  0.40241638029E-01 -0.17111816945E-03 -0.42942561405E-01  0.58853576049E-01  0.51100000000E-03 0.  1.
         11    1    4    4    0    0  0.82019391972E-02  0.98096213531E-02 -0.80406694474E-01  0.81418659501E-01  0.51100000000E-03 0. -1.
</event>
<event>
 8    1  0.2837913E+004  0.1043930E+01  0.7957747E-01            NaN
         13   -1    0    0    0    0  0.00000000000E+00  0.00000000000E+00  0.74505805969E-08  0.10566000000E+00  0.10566000000E+00 0. -1.
     999900   -1    0    0    0    0 -0.00000000000E+00 -0.00000000000E+00 -0.74505805969E-08  0.93827000000E+00  0.93827000000E+00 0.  1.
     999902    2    1    2    0    0  0.47762524381E-02 -0.12772939197E-01 -0.82218973952E-03  0.10302685008E+01  0.10301779202E+01 0.  0.
     999903    2    3    3    0    0  0.10091928673E+00  0.72809020198E-01 -0.45525783403E-01  0.13978202363E+00  0.44503497853E-01 0.  0.
         14    1    1    2    0    0 -0.47762524381E-02  0.12772939197E-01  0.82218973952E-03  0.13661499151E-01  0.00000000000E+00 0. -1.
     999901    1    3    3    0    0 -0.96143034290E-01 -0.85581959394E-01  0.44703593663E-01  0.89048647721E+00  0.88000000000E+00 0. -1.
        -11    1    4    4    0    0  0.31050465792E-01  0.40616343659E-01 -0.15112110581E-02  0.51150402520E-01  0.51100000000E-03 0. -1.
         11    1    4    4    0    0  0.69868820936E-01  0.32192676539E-01 -0.44014572344E-01  0.88631621114E-01  0.51100000000E-03 0.  1.
</event>
<event>
 8    1  0.2837913E+004  0.1043930E+01  0.7957747E-01            NaN
         13   -1    0    0    0    0  0.00000000000E+00  0.00000000000E+00  0.74505805969E-08  0.10566000000E+00  0.10566000000E+00 0.  1.
     999900   -1    0    0    0    0 -0.00000000000E+00 -0.00000000000E+00 -0.74505805969E-08  0.93827000000E+00  0.93827000000E+00 0. -1.
     999902    2    1    2    0    0  0.69270847708E-02  0.10539309010E-01 -0.10218391326E-01  0.10276980236E+01  0.10275698276E+01 0.  0.
     999903    2    3    3    0    0  0.62914313785E-01 -0.11272624979E+00  0.14181168757E-01  0.13701047659E+00  0.43650279233E-01 0.  0.
         14    1    1    2    0    0 -0.69270847708E-02 -0.10539309010E-01  0.10218391326E-01  0.16231976439E-01  0.00000000000E+00 0.  1.
     999901    1    3    3    0    0 -0.55987229014E-01  0.12326555880E+00 -0.24399560083E-01  0.89068754697E+00  0.88000000000E+00 0. -1.
        -11    1    4    4    0    0  0.24191638294E-01 -0.54115030724E-01  0.27766922305E-01  0.65459414975E-01  0.51100000000E-03 0.  1.
         11    1    4    4    0    0  0.38722675491E-01 -0.58611219066E-01 -0.13585753548E-01  0.71551061614E-01  0.51100000000E-03 0. -1.
</event>
<event>
 8    1  0.2837913E+004  0.1043930E+01  0.7957747E-01            NaN
         13   -1    0    0    0    0  0.00000000000E+00  0.00000000000E+00  0.74505805969E-08  0.10566000000E+00  0.10566000000E+00 0. -1.
     999900   -1    0    0    0    0 -0.00000000000E+00 -0.00000000000E+00 -0.74505805969E-08  0.93827000000E+00  0.93827000000E+00 0.  1.
     999902    2    1    2    0    0  0.16822607987E-01 -0.46147806042E-03  0.12904860421E-01  0.10227227247E+01  0.10225028231E+01 0.  0.
     999903    2    3    3    0    0 -0.80378375876E-01  0.91779906892E-01 -0.20270354518E-01  0.13196063571E+00  0.46027029969E-01 0.  0.
         14    1    1    2    0    0 -0.16822607987E-01  0.46147806042E-03 -0.12904860421E-01  0.21207275260E-01  0.00000000000E+00 0.  1.
     999901    1    3    3    0    0  0.97200983863E-01 -0.92241384952E-01  0.33175214940E-01  0.89076208903E+00  0.88000000000E+00 0. -1.
        -11    1    4    4    0    0 -0.48859856618E-01  0.21622467652E-01 -0.65557434232E-02  0.53833591640E-01  0.51100000000E-03 0. -1.
         11    1    4    4    0    0 -0.31518519258E-01  0.70157439240E-01 -0.13714611095E-01  0.78127044072E-01  0.51100000000E-03 0.  1.
</event>
<event>
 8    1  0.2837913E+004  0.1043930E+01  0.7957747E-01            NaN
         13   -1    0    0    0    0  0.00000000000E+00  0.00000000000E+00  0.74505805969E-08  0.10566000000E+00  0.10566000000E+00 0. -1.
     999900   -1    0    0    0    0 -0.00000000000E+00 -0.00000000000E+00 -0.74505805969E-08  0.93827000000E+00  0.93827000000E+00 0.  1.
     999902    2    1    2    0    0 -0.12347107175E-01 -0.75871566795E-02  0.36832785953E-03  0.10294333912E+01  0.10293313146E+01 0.  0.
     999903    2    3    3    0    0 -0.34214497859E-01 -0.13466726058E-01 -0.12734948292E+00  0.13992532977E+00  0.44824352054E-01 0.  0.
         14    1    1    2    0    0  0.12347107175E-01  0.75871566795E-02 -0.36832785953E-03  0.14496608827E-01  0.00000000000E+00 0.  1.
     999901    1    3    3    0    0  0.21867390685E-01  0.58795693786E-02  0.12771781078E+00  0.88950806140E+00  0.88000000000E+00 0. -1.
        -11    1    4    4    0    0 -0.76126000106E-02 -0.25354786103E-01 -0.80589529038E-01  0.84827767676E-01  0.51100000000E-03 0. -1.
         11    1    4    4    0    0 -0.26601897849E-01  0.11888060045E-01 -0.46759953881E-01  0.55097562094E-01  0.51100000000E-03 0.  1.
</event>
<event>
 8    1  0.2837913E+004  0.1043930E+01  0.7957747E-01            NaN
         13   -1    0    0    0    0  0.00000000000E+00  0.00000000000E+00  0.74505805969E-08  0.10566000000E+00  0.10566000000E+00 0. -1.
     999900   -1    0    0    0    0 -0.00000000000E+00 -0.00000000000E+00 -0.74505805969E-08  0.93827000000E+00  0.93827000000E+00 0. -1.
     999902    2    1    2    0    0 -0.91559571123E-02 -0.22057770503E-02 -0.96504573070E-02  0.10304456265E+01  0.10303573947E+01 0.  0.
     999903    2    3    3    0    0 -0.62833613659E-01 -0.11785082745E+00  0.10881733793E-02  0.14119291398E+00  0.45797099254E-01 0.  0.
         14    1    1    2    0    0  0.91559571123E-02  0.22057770503E-02  0.96504573070E-02  0.13484373522E-01  0.00000000000E+00 0. -1.
     999901    1    3    3    0    0  0.53677656547E-01  0.11564505040E+00 -0.10738630686E-01  0.88925271250E+00  0.88000000000E+00 0.  1.
        -11    1    4    4    0    0 -0.46903891416E-01 -0.51185875489E-01  0.15531815172E-01  0.71143989788E-01  0.51100000000E-03 0. -1.
         11    1    4    4    0    0 -0.15929722244E-01 -0.66664951965E-01 -0.14443641793E-01  0.70048924193E-01  0.51100000000E-03 0.  1.
</event>
<event>
 8    1  0.2837913E+004  0.1043930E+01  0.7957747E-01            NaN
         13   -1    0    0    0    0  0.00000000000E+00  0.00000000000E+00  0.74505805969E-08  0.10566000000E+00  0.10566000000E+00 0.  1.
     999900   -1    0    0    0    0 -0.00000000000E+00 -0.00000000000E+00 -0.74505805969E-08  0.93827000000E+00  0.93827000000E+00 0.  1.
     999902    2    1    2    0    0  0.15872552300E-01 -0.37761890273E-02  0.85392964999E-02  0.10255148675E+01  0.10253495142E+01 0.  0.
     999903    2    3    3    0    0 -0.58376850166E-01  0.95600344062E-01 -0.56770725810E-01  0.13441775265E+00  0.47936776044E-01 0.  0.
         14    1    1    2    0    0 -0.15872552300E-01  0.37761890273E-02 -0.85392964999E-02  0.18415132495E-01  0.00000000000E+00 0.  1.
     999901    1    3    3    0    0  0.74249402466E-01 -0.99376533089E-01  0.65310022310E-01  0.89109711486E+00  0.88000000000E+00 0. -1.
        -11    1    4    4    0    0 -0.55752016724E-01  0.52509863681E-01 -0.47925515563E-01  0.90347602711E-01  0.51100000000E-03 0. -1.
         11    1    4    4    0    0 -0.26248334422E-02  0.43090480381E-01 -0.88452102467E-02  0.44070149936E-01  0.51100000000E-03 0.  1.
</event>
<event>
 8    1  0.2837913E+004  0.1043930E+01  0.7957747E-01            NaN
         13   -1    0    0    0    0  0.00000000000E+00  0.00000000000E+00  0.74505805969E-08  0.10566000000E+00  0.10566000000E+00 0.  1.
     999900   -1    0    0    0    0 -0.00000000000E+00 -0.00000000000E+00 -0.74505805969E-08  0.93827000000E+00  0.93827000000E+00 0.  1.
     999902    2    1    2    0    0  0.82690343706E-02 -0.10990720934E-01 -0.28677807812E-02  0.10298801942E+01  0.10297843548E+01 0.  0.
     999903    2    3    3    0    0  0.12832237838E+00 -0.23298063342E-01  0.29299067050E-01  0.14106132505E+00  0.45060287888E-01 0.  0.
         14    1    1    2    0    0 -0.82690343706E-02  0.10990720934E-01  0.28677807812E-02  0.14049805788E-01  0.00000000000E+00 0.  1.
     999901    1    3    3    0    0 -0.12005334401E+00  0.12307342408E-01 -0.32166847831E-01  0.88881886917E+00  0.88000000000E+00 0.  1.
        -11    1    4    4    0    0  0.10229035057E+00 -0.12790324118E-01  0.38393319309E-02  0.10315963262E+00  0.51100000000E-03 0. -1.
         11    1    4    4    0    0  0.26032027808E-01 -0.10507739224E-01  0.25459735119E-01  0.37901692425E-01  0.51100000000E-03 0.  1.
</event>
<event>
 8    1  0.2837913E+004  0.1043930E+01  0.7957747E-01            NaN
         13   -1    0    0    0    0  0.00000000000E+00  0.00000000000E+00  0.74505805969E-08  0.10566000000E+00  0.10566000000E+00 0.  1.
     999900   -1    0    0    0    0 -0.00000000000E+00 -0.00000000000E+00 -0.74505805969E-08  0.93827000000E+00  0.93827000000E+00 0.  1.
     999902    2    1    2    0    0  0.12411237920E-01 -0.27429840814E-03  0.68686725378E-02  0.10297422331E+01  0.10296444891E+01 0.  0.
     999903    2    3    3    0    0  0.31041625104E-01 -0.12158188922E+00 -0.41893483222E-01  0.13988810421E+00  0.45473942950E-01 0.  0.
         14    1    1    2    0    0 -0.12411237920E-01  0.27429840814E-03 -0.68686725378E-02  0.14187766870E-01  0.00000000000E+00 0. -1.
     999901    1    3    3    0    0 -0.18630387184E-01  0.12130759082E+00  0.48762155760E-01  0.88985412892E+00  0.88000000000E+00 0.  1.
        -11    1    4    4    0    0 -0.16401085033E-02 -0.40023432109E-01 -0.32380284254E-01  0.51510280557E-01  0.51100000000E-03 0.  1.
         11    1    4    4    0    0  0.32681733607E-01 -0.81558457115E-01 -0.95131989680E-02  0.88377823656E-01  0.51100000000E-03 0. -1.
</event>
<event>
 8    1  0.2837913E+004  0.1043930E+01  0.7957747E-01            NaN
         13   -1    0    0    0    0  0.00000000000E+00  0.00000000000E+00  0.74505805969E-08  0.10566000000E+00  0.10566000000E+00 0. -1.
     999900   -1    0    0    0    0 -0.00000000000E+00 -0.00000000000E+00 -0.74505805969E-08  0.93827000000E+00  0.93827000000E+00 0. -1.
     999902    2    1    2    0    0  0.68060793950E-02 -0.78245869887E-02  0.92340174983E-02  0.10300442534E+01  0.10299506542E+01 0.  0.
     999903    2    3    3    0    0  0.10756362807E+00  0.45783051742E-01 -0.62932434083E-01  0.13974438302E+00  0.43611688988E-01 0.  0.
         14    1    1    2    0    0 -0.68060793950E-02  0.78245869887E-02 -0.92340174983E-02  0.13885746557E-01  0.00000000000E+00 0.  1.
     999901    1    3    3    0    0 -0.10075754867E+00 -0.53607638730E-01  0.72166451581E-01  0.89029987042E+00  0.88000000000E+00 0.  1.
        -11    1    4    4    0    0  0.36825889870E-01  0.24986054960E-01 -0.27885451393E-02  0.44592445685E-01  0.51100000000E-03 0.  1.
         11    1    4    4    0    0  0.70737738195E-01  0.20796996782E-01 -0.60143888944E-01  0.95151937334E-01  0.51100000000E-03 0. -1.
</event>
<event>
 8    1  0.2837913E+004  0.1043930E+01  0.7957747E-01            NaN
         13   -1    0    0    0    0  0.00000000000E+00  0.00000000000E+00  0.74505805969E-08  0.10566000000E+00  0.10566000000E+00 0. -1.
     999900   -1    0    0    0    0 -0.00000000000E+00 -0.00000000000E+00 -0.74505805969E-08  0.93827000000E+00  0.93827000000E+00 0.  1.
     999902    2    1    2    0    0 -0.11521296167E-01 -0.44515305179E-02 -0.52581271969E-02  0.10305059808E+01  0.10304185423E+01 0.  0.
     999903    2    3    3    0    0 -0.61717811031E-01  0.43913131822E-01  0.10922643198E+00  0.14035681076E+00  0.45079591149E-01 0.  0.
         14    1    1    2    0    0  0.11521296167E-01  0.44515305179E-02  0.52581271969E-02  0.13424019180E-01  0.00000000000E+00 0. -1.
     999901    1    3    3    0    0  0.50196514864E-01 -0.48364662340E-01 -0.11448455918E+00  0.89014917006E+00  0.88000000000E+00 0.  1.
        -11    1    4    4    0    0 -0.14040825399E-01  0.34189852907E-01  0.31059303920E-01  0.48280765328E-01  0.51100000000E-03 0.  1.
         11    1    4    4    0    0 -0.47676985632E-01  0.97232789152E-02  0.78167128063E-01  0.92076045432E-01  0.51100000000E-03 0. -1.
</event>
<event>
 8    1  0.2837913E+004  0.1043930E+01  0.7957747E-01            NaN
         13   -1    0    0    0    0  0.00000000000E+00  0.00000000000E+00  0.74505805969E-08  0.10566000000E+00  0.10566000000E+00 0.  1.
     999900   -1    0    0    0    0 -0.00000000000E+00 -0.00000000000E+00 -0.74505805969E-08  0.93827000000E+00  0.93827000000E+00 0. -1.
     999902    2    1    2    0    0  0.11376204198E-02  0.54206404419E-02  0.12570573855E-01  0.10301933028E+01  0.10301017155E+01 0.  0.
     999903    2    3    3    0    0 -0.56926148862E-01  0.11412203225E+00 -0.36792763202E-01  0.14023592577E+00  0.45254643757E-01 0.  0.
         14    1    1    2    0    0 -0.11376204198E-02 -0.54206404419E-02 -0.12570573855E-01  0.13736697204E-01  0.00000000000E+00 0.  1.
     999901    1    3    3    0    0  0.58063769282E-01 -0.10870139181E+00  0.49363337057E-01  0.88995737703E+00  0.88000000000E+00 0.  1.
        -11    1    4    4    0    0 -0.20561980674E-01  0.74294383734E-01 -0.41663194316E-02  0.77201488601E-01  0.51100000000E-03 0. -1.
         11    1    4    4    0    0 -0.36364168188E-01  0.39827648519E-01 -0.32626443771E-01  0.63034437165E-01  0.51100000000E-03 0.  1.
</event>
<event>
 8    1  0.2837913E+004  0.1043930E+01  0.7957747E-01            NaN
         13   -1    0    0    0    0  0.00000000000E+00  0.00000000000E+00  0.74505805969E-08  0.10566000000E+00  0.10566000000E+00 0.  1.
     999900   -1    0    0    0    0 -0.00000000000E+00 -0.00000000000E+00 -0.74505805969E-08  0.93827000000E+00  0.93827000000E+00 0. -1.
     999902    2    1    2    0    0  0.88815995328E-03  0.72460041491E-02  0.12882672841E-01  0.10291226821E+01  0.10290161506E+01 0.  0.
     999903    2    3    3    0    0 -0.11140584162E+00  0.56792318734E-01  0.44818147546E-01  0.14003064263E+00  0.44308977780E-01 0.  0.
         14    1    1    2    0    0 -0.88815995328E-03 -0.72460041491E-02 -0.12882672841E-01  0.14807317913E-01  0.00000000000E+00 0.  1.
     999901    1    3    3    0    0  0.11229400157E+00 -0.49546314585E-01 -0.31935474705E-01  0.88909203946E+00  0.88000000000E+00 0. -1.
        -11    1    4    4    0    0 -0.68149457794E-01  0.41640177011E-01  0.62198590162E-02  0.80107432279E-01  0.51100000000E-03 0.  1.
         11    1    4    4    0    0 -0.43256383826E-01  0.15152141724E-01  0.38598288530E-01  0.59923210353E-01  0.51100000000E-03 0. -1.
</event>
<event>
 8    1  0.2837913E+004  0.1043930E+01  0.7957747E-01            NaN
         13   -1    0    0    0    0  0.00000000000E+00  0.00000000000E+00  0.74505805969E-08  0.10566000000E+00  0.10566000000E+00 0. -1.
     999900   -1    0    0    0    0 -0.00000000000E+00 -0.00000000000E+00 -0.74505805969E-08  0.93827000000E+00  0.93827000000E+00 0.  1.
     999902    2    1    2    0    0 -0.62528890300E-02 -0.42293523055E-02  0.11429293405E-01  0.10302327452E+01  0.10301416866E+01 0.  0.
     999903    2    3    3    0    0  0.11687369157E+00  0.54173763685E-01  0.29927653702E-01  0.13955139466E+00  0.44549644711E-01 0.  0.
         14    1    1    2    0    0  0.62528890300E-02  0.42293523055E-02 -0.11429293405E-01  0.13697254830E-01  0.00000000000E+00 0.  1.
     999901    1    3    3    0    0 -0.12312658060E+00 -0.58403115991E-01 -0.18498360297E-01  0.89068135051E+00  0.88000000000E+00 0. -1.
        -11    1    4    4    0    0  0.28048577177E-01  0.32339201823E-01  0.20887257042E-01  0.47634916647E-01  0.51100000000E-03 0.  1.
         11    1    4    4    0    0  0.88825114390E-01  0.21834561862E-01  0.90403966597E-02  0.91916478016E-01  0.51100000000E-03 0. -1.
</event>
<event>
 8    1  0.2837913E+004  0.1043930E+01  0.7957747E-01            NaN
         13   -1    0    0    0    0  0.00000000000E+00  0.00000000000E+00  0.74505805969E-08  0.10566000000E+00  0.10566000000E+00 0. -1.
     999900   -1    0    0    0    0 -0.00000000000E+00 -0.00000000000E+00 -0.74505805969E-08  0.93827000000E+00  0.93827000000E+00 0. -1.
     999902    2    1    2    0    0  0.16330141020E-02 -0.69671069896E-02 -0.77029001814E-02  0.10334161051E+01  0.10333626199E+01 0.  0.
     999903    2    3    3    0    0  0.36019919615E-01 -0.94130119689E-01 -0.91984201019E-01  0.14443737210E+00  0.47361874745E-01 0.  0.
         14    1    1    2    0    0 -0.16330141020E-02  0.69671069896E-02  0.77029001814E-02  0.10513894905E-01  0.00000000000E+00 0. -1.
     999901    1    3    3    0    0 -0.34386905513E-01  0.87163012699E-01  0.84281300838E-01  0.88897873300E+00  0.88000000000E+00 0.  1.
        -11    1    4    4    0    0  0.28705267285E-01 -0.84132226701E-01 -0.52925790426E-01  0.10345832182E+00  0.51100000000E-03 0.  1.
         11    1    4    4    0    0  0.73146523294E-02 -0.99978929871E-02 -0.39058410593E-01  0.40979050281E-01  0.51100000000E-03 0. -1.
</event>
<event>
 8    1  0.2837913E+004  0.1043930E+01  0.7957747E-01            NaN
         13   -1    0    0    0    0  0.00000000000E+00  0.00000000000E+00  0.74505805969E-08  0.10566000000E+00  0.10566000000E+00 0. -1.
     999900   -1    0    0    0    0 -0.00000000000E+00 -0.00000000000E+00 -0.74505805969E-08  0.93827000000E+00  0.93827000000E+00 0.  1.
     999902    2    1    2    0    0  0.85637790531E-02 -0.19733751861E-01  0.11150892487E-02  0.10223892781E+01  0.10221623322E+01 0.  0.
     999903    2    3    3    0    0  0.60077215129E-01 -0.23239077286E-01 -0.10871185695E+00  0.13406057799E+00  0.44773253595E-01 0.  0.
         14    1    1    2    0    0 -0.85637790531E-02  0.19733751861E-01 -0.11150892487E-02  0.21540721859E-01  0.00000000000E+00 0. -1.
     999901    1    3    3    0    0 -0.51513436076E-01  0.35053254247E-02  0.10982694620E+00  0.88832870015E+00  0.88000000000E+00 0.  1.
        -11    1    4    4    0    0  0.27186956584E-01 -0.14171557333E-01 -0.90139979905E-01  0.95212608114E-01  0.51100000000E-03 0. -1.
         11    1    4    4    0    0  0.32890258545E-01 -0.90675199528E-02 -0.18571877049E-01  0.38847969875E-01  0.51100000000E-03 0.  1.
</event>
<event>
 8    1  0.2837913E+004  0.1043930E+01  0.7957747E-01            NaN
         13   -1    0    0    0    0  0.00000000000E+00  0.00000000000E+00  0.74505805969E-08  0.10566000000E+00  0.10566000000E+00 0.  1.
     999900   -1    0    0    0    0 -0.00000000000E+00 -0.00000000000E+00 -0.74505805969E-08  0.93827000000E+00  0.93827000000E+00 0.  1.
     999902    2    1    2    0    0  0.99924346608E-02 -0.78704089328E-02  0.57215696659E-02  0.10299826545E+01  0.10298882173E+01 0.  0.
     999903    2    3    3    0    0  0.59490640652E-01  0.11781088644E+00  0.30672701999E-02  0.13967208750E+00  0.45610772755E-01 0.  0.
         14    1    1    2    0    0 -0.99924346608E-02  0.78704089328E-02 -0.57215696659E-02  0.13947345506E-01  0.00000000000E+00 0. -1.
     999901    1    3    3    0    0 -0.49498205991E-01 -0.12568129537E+00  0.26542994660E-02  0.89031056700E+00  0.88000000000E+00 0. -1.
        -11    1    4    4    0    0  0.42089663171E-01  0.57406476016E-01  0.21149160016E-01  0.74260294402E-01  0.51100000000E-03 0. -1.
         11    1    4    4    0    0  0.17400977481E-01  0.60404410420E-01 -0.18081889816E-01  0.65411793094E-01  0.51100000000E-03 0.  1.
</event>
<event>
 8    1  0.2837913E+004  0.1043930E+01  0.7957747E-01            NaN
         13   -1    0    0    0    0  0.00000000000E+00  0.00000000000E+00  0.74505805969E-08  0.10566000000E+00  0.10566000000E+00 0. -1.
     999900   -1    0    0    0    0 -0.00000000000E+00 -0.00000000000E+00 -0.74505805969E-08  0.93827000000E+00  0.93827000000E+00 0. -1.
     999902    2    1    2    0    0  0.12756657505E-01 -0.57889643660E-02  0.54953322977E-03  0.10299104991E+01  0.10298150755E+01 0.  0.
     999903    2    3    3    0    0 -0.32050775972E-01  0.11873459885E+00  0.46085597187E-01  0.13885081701E+00  0.45061179656E-01 0.  0.
         14    1    1    2    0    0 -0.12756657505E-01  0.57889643660E-02 -0.54953322977E-03  0.14019500915E-01  0.00000000000E+00 0. -1.
     999901    1    3    3    0    0  0.44807433477E-01 -0.12452356322E+00 -0.45536063957E-01  0.89105968207E+00  0.88000000000E+00 0. -1.
        -11    1    4    4    0    0 -0.14997036658E-01  0.52567766927E-01 -0.29481779105E-02  0.54747000851E-01  0.51100000000E-03 0.  1.
         11    1    4    4    0    0 -0.17053739314E-01  0.66166831927E-01  0.49033775097E-01  0.84103816163E-01  0.51100000000E-03 0. -1.
</event>
<event>
 8    1  0.2837913E+004  0.1043930E+01  0.7957747E-01            NaN
         13   -1    0    0    0    0  0.00000000000E+00  0.00000000000E+00  0.74505805969E-08  0.10566000000E+00  0.10566000000E+00 0.  1.
     999900   -1    0    0    0    0 -0.00000000000E+00 -0.00000000000E+00 -0.74505805969E-08  0.93827000000E+00  0.93827000000E+00 0.  1.
     999902    2    1    2    0    0  0.14412241957E-01 -0.46023978929E-03  0.10590913509E-02  0.10294715695E+01  0.10293700336E+01 0.  0.
     999903    2    3    3    0    0  0.47116291658E-01  0.65886141603E-01  0.10542139136E+00  0.14022307391E+00  0.44586007974E-01 0.  0.
         14    1    1    2    0    0 -0.14412241957E-01  0.46023978929E-03 -0.10590913509E-02  0.14458430530E-01  0.00000000000E+00 0. -1.
     999901    1    3    3    0    0 -0.32704049701E-01 -0.66346381392E-01 -0.10436230000E+00  0.88924849556E+00  0.88000000000E+00 0.  1.
        -11    1    4    4    0    0  0.35842996146E-01  0.69480719054E-01  0.10066586975E+00  0.12746046111E+00  0.51100000000E-03 0.  1.
         11    1    4    4    0    0  0.11273295512E-01 -0.35945774511E-02  0.47555216029E-02  0.12762612799E-01  0.51100000000E-03 0. -1.
</event>
<event>
 8    1  0.2837913E+004  0.1043930E+01  0.7957747E-01            NaN
         13   -1    0    0    0    0  0.00000000000E+00  0.00000000000E+00  0.74505805969E-08  0.10566000000E+00  0.10566000000E+00 0.  1.
     999900   -1    0    0    0    0 -0.00000000000E+00 -0.00000000000E+00 -0.74505805969E-08  0.93827000000E+00  0.93827000000E+00 0.  1.
     999902    2    1    2    0    0  0.12301671320E-01  0.49565920774E-02  0.14280923679E-02  0.10305906458E+01  0.10305043139E+01 0.  0.
     999903    2    3    3    0    0 -0.11323784951E+00  0.22908579411E-01  0.63339728464E-01  0.13934685435E+00  0.45365306599E-01 0.  0.
         14    1    1    2    0    0 -0.12301671320E-01 -0.49565920774E-02 -0.14280923679E-02  0.13339354186E-01  0.00000000000E+00 0. -1.
     999901    1    3    3    0    0  0.12553952083E+00 -0.17951987333E-01 -0.61911636096E-01  0.89124379146E+00  0.88000000000E+00 0.  1.
        -11    1    4    4    0    0 -0.34543402146E-01 -0.28965705801E-02  0.40750772028E-01  0.53502554096E-01  0.51100000000E-03 0.  1.
         11    1    4    4    0    0 -0.78694447365E-01  0.25805149991E-01  0.22588956436E-01  0.85844300254E-01  0.51100000000E-03 0. -1.
</event>
<event>
 8    1  0.2837913E+004  0.1043930E+01  0.7957747E-01            NaN
         13   -1    0    0    0    0  0.00000000000E+00  0.00000000000E+00  0.74505805969E-08  0.10566000000E+00  0.10566000000E+00 0. -1.
     999900   -1    0    0    0    0 -0.00000000000E+00 -0.00000000000E+00 -0.74505805969E-08  0.93827000000E+00  0.93827000000E+00 0.  1.
     999902    2    1    2    0    0  0.72840210498E-02  0.26430548735E-02  0.96326808293E-02  0.10315675067E+01  0.10314934268E+01 0.  0.
     999903    2    3    3    0    0 -0.11530024904E+00  0.10891887689E-01 -0.63152262214E-01  0.14005609649E+00  0.47060825490E-01 0.  0.
         14    1    1    2    0    0 -0.72840210498E-02 -0.26430548735E-02 -0.96326808293E-02  0.12362493344E-01  0.00000000000E+00 0. -1.
     999901    1    3    3    0    0  0.12258427009E+00 -0.82488328157E-02  0.72784943043E-01  0.89151141016E+00  0.88000000000E+00 0. -1.
        -11    1    4    4    0    0 -0.40324601008E-01 -0.66456393258E-02 -0.45299146308E-01  0.61012390101E-01  0.51100000000E-03 0. -1.
         11    1    4    4    0    0 -0.74975648033E-01  0.17537527015E-01 -0.17853115906E-01  0.79043706393E-01  0.51100000000E-03 0.  1.
</event>
<event>
 8    1  0.2837913E+004  0.1043930E+01  0.7957747E-01            NaN
         13   -1    0    0    0    0  0.00000000000E+00  0.00000000000E+00  0.74505805969E-08  0.10566000000E+00  0.10566000000E+00 0. -1.
     999900   -1    0    0    0    0 -0.00000000000E+00 -0.00000000000E+00 -0.74505805969E-08  0.93827000000E+00  0.93827000000E+00 0.  1.
     999902    2    1    2    0    0  0.63143021398E-02  0.11489083893E-01 -0.32802725607E-02  0.10304159463E+01  0.10303273231E+01 0.  0.
     999903    2    3    3    0    0  0.51952348405E-02  0.13091804083E+00 -0.30908082312E-01  0.14191843702E+00  0.44933387738E-01 0.  0.
         14    1    1    2    0    0 -0.63143021398E-02 -0.11489083893E-01  0.32802725607E-02  0.13514053732E-01  0.00000000000E+00 0. -1.
     999901    1    3    3    0    0  0.11190672993E-02 -0.11942895694E+00  0.27627809752E-01  0.88849750925E+00  0.88000000000E+00 0.  1.
        -11    1    4    4    0    0 -0.12797895674E-01  0.27566711587E-01  0.54656947062E-02  0.30884375678E-01  0.51100000000E-03 0.  1.
         11    1    4    4    0    0  0.17993130515E-01  0.10335132925E+00 -0.36373777018E-01  0.11103406134E+00  0.51100000000E-03 0. -1.
</event>
<event>
 8    1  0.2837913E+004  0.1043930E+01  0.7957747E-01            NaN
         13   -1    0    0    0    0  0.00000000000E+00  0.00000000000E+00  0.74505805969E-08  0.10566000000E+00  0.10566000000E+00 0.  1.
     999900   -1    0    0    0    0 -0.00000000000E+00 -0.00000000000E+00 -0.74505805969E-08  0.93827000000E+00  0.93827000000E+00 0. -1.
     999902    2    1    2    0    0  0.51807246901E-02  0.73098711259E-02  0.10394249703E-01  0.10302072251E+01  0.10301158246E+01 0.  0.
     999903    2    3    3    0    0 -0.11495906156E+00 -0.17736933873E-01 -0.61048808054E-01  0.13882345747E+00  0.44886643035E-01 0.  0.
         14    1    1    2    0    0 -0.51807246901E-02 -0.73098711259E-02 -0.10394249703E-01  0.13722774904E-01  0.00000000000E+00 0. -1.
     999901    1    3    3    0    0  0.12013978625E+00  0.25046804999E-01  0.71443057757E-01  0.89138376762E+00  0.88000000000E+00 0.  1.
        -11    1    4    4    0    0 -0.55921106195E-01 -0.31289600461E-01 -0.30075733350E-01  0.70788558911E-01  0.51100000000E-03 0.  1.
         11    1    4    4    0    0 -0.59037955360E-01  0.13552666588E-01 -0.30973074704E-01  0.68034898562E-01  0.51100000000E-03 0. -1.
</event>
<event>
 8    1  0.2837913E+004  0.1043930E+01  0.7957747E-01            NaN
         13   -1    0    0    0    0  0.00000000000E+00  0.00000000000E+00  0.74505805969E-08  0.10566000000E+00  0.10566000000E+00 0. -1.
     999900   -1    0    0    0    0 -0.00000000000E+00 -0.00000000000E+00 -0.74505805969E-08  0.93827000000E+00  0.93827000000E+00 0.  1.
     999902    2    1    2    0    0  0.10248212664E-01 -0.68037661886E-02 -0.58231473766E-02  0.10303202189E+01  0.10302303273E+01 0.  0.
     999903    2    3    3    0    0  0.81034848475E-01  0.88751570414E-01 -0.56579334676E-01  0.14087220987E+00  0.46907040859E-01 0.  0.
         14    1    1    2    0    0 -0.10248212664E-01  0.68037661886E-02  0.58231473766E-02  0.13609781134E-01  0.00000000000E+00 0. -1.
     999901    1    3    3    0    0 -0.70786635811E-01 -0.95555336603E-01  0.50756187299E-01  0.88944800900E+00  0.88000000000E+00 0.  1.
        -11    1    4    4    0    0  0.38742959426E-01  0.56859407270E-01 -0.84895330577E-02  0.69327789470E-01  0.51100000000E-03 0. -1.
         11    1    4    4    0    0  0.42291889049E-01  0.31892163144E-01 -0.48089801618E-01  0.71544420397E-01  0.51100000000E-03 0.  1.
</event>
<event>
 8    1  0.2837913E+004  0.1043930E+01  0.7957747E-01            NaN
         13   -1    0    0    0    0  0.00000000000E+00  0.00000000000E+00  0.74505805969E-08  0.10566000000E+00  0.10566000000E+00 0.  1.
     999900   -1    0    0    0    0 -0.00000000000E+00 -0.00000000000E+00 -0.74505805969E-08  0.93827000000E+00  0.93827000000E+00 0.  1.
     999902    2    1    2    0    0 -0.12044419886E-01  0.48621644681E-02  0.44961156650E-02  0.10301850464E+01  0.10300933482E+01 0.  0.
     999903    2    3    3    0    0  0.11714994197E+00  0.54766458498E-01 -0.20239293477E-01  0.13900972011E+00  0.46803839639E-01 0.  0.
         14    1    1    2    0    0  0.12044419886E-01 -0.48621644681E-02 -0.44961156650E-02  0.13744953612E-01  0.00000000000E+00 0. -1.
     999901    1    3    3    0    0 -0.12919436186E+00 -0.49904294030E-01  0.24735409142E-01  0.89117532628E+00  0.88000000000E+00 0.  1.
        -11    1    4    4    0    0  0.70788869928E-01  0.75222686314E-02 -0.72941694462E-02  0.71561963779E-01  0.51100000000E-03 0.  1.
         11    1    4    4    0    0  0.46361072043E-01  0.47244189867E-01 -0.12945124030E-01  0.67447756333E-01  0.51100000000E-03 0. -1.
</event>
<event>
 8    1  0.2837913E+004  0.1043930E+01  0.7957747E-01            NaN
         13   -1    0    0    0    0  0.00000000000E+00  0.00000000000E+00  0.74505805969E-08  0.10566000000E+00  0.10566000000E+00 0.  1.
     999900   -1    0    0    0    0 -0.00000000000E+00 -0.00000000000E+00 -0.74505805969E-08  0.93827000000E+00  0.93827000000E+00 0. -1.
     999902    2    1    2    0    0 -0.95647730049E-02  0.20425728032E-02  0.98578299282E-02  0.10300435391E+01  0.10299499301E+01 0.  0.
     999903    2    3    3    0    0  0.16818541305E-01  0.62893210658E-01  0.11679185317E+00  0.14109260413E+00  0.45037392172E-01 0.  0.
         14    1    1    2    0    0  0.95647730049E-02 -0.20425728032E-02 -0.98578299282E-02  0.13886460931E-01  0.00000000000E+00 0. -1.
     999901    1    3    3    0    0 -0.26383314310E-01 -0.60850637855E-01 -0.10693402325E+00  0.88895093494E+00  0.88000000000E+00 0. -1.
        -11    1    4    4    0    0  0.28701654294E-01  0.33981341744E-01  0.87941471222E-01  0.98551915393E-01  0.51100000000E-03 0. -1.
         11    1    4    4    0    0 -0.11883112989E-01  0.28911868914E-01  0.28850381953E-01  0.42540688737E-01  0.51100000000E-03 0.  1.
</event>
<event>
 8    1  0.2837913E+004  0.1043930E+01  0.7957747E-01            NaN
         13   -1    0    0    0    0  0.00000000000E+00  0.00000000000E+00  0.74505805969E-08  0.10566000000E+00  0.10566000000E+00 0.  1.
     999900   -1    0    0    0    0 -0.00000000000E+00 -0.00000000000E+00 -0.74505805969E-08  0.93827000000E+00  0.93827000000E+00 0.  1.
     999902    2    1    2    0    0 -0.66473515077E-04  0.46385048450E-02 -0.13661569823E-01  0.10295022962E+01  0.10294011945E+01 0.  0.
     999903    2    3    3    0    0  0.55613605734E-01 -0.28456790933E-02 -0.12171205522E+00  0.14111544827E+00  0.44707653961E-01 0.  0.
         14    1    1    2    0    0  0.66473515077E-04 -0.46385048450E-02  0.13661569823E-01  0.14427703766E-01  0.00000000000E+00 0.  1.
     999901    1    3    3    0    0 -0.55680079249E-01  0.74841839383E-02  0.10805048540E+00  0.88838684796E+00  0.88000000000E+00 0. -1.
        -11    1    4    4    0    0  0.29702099414E-01  0.19738058197E-01 -0.48178893218E-01  0.59943911481E-01  0.51100000000E-03 0. -1.
         11    1    4    4    0    0  0.25911506320E-01 -0.22583737291E-01 -0.73533162005E-01  0.81171536792E-01  0.51100000000E-03 0.  1.
</event>
<event>
 8    1  0.2837913E+004  0.1043930E+01  0.7957747E-01            NaN
         13   -1    0    0    0    0  0.00000000000E+00  0.00000000000E+00  0.74505805969E-08  0.10566000000E+00  0.10566000000E+00 0. -1.
     999900   -1    0    0    0    0 -0.00000000000E+00 -0.00000000000E+00 -0.74505805969E-08  0.93827000000E+00  0.93827000000E+00 0.  1.
     999902    2    1    2    0    0 -0.74930074507E-02  0.17302184136E-02 -0.11538422494E-01  0.10300637096E+01  0.10299703742E+01 0.  0.
     999903    2    3    3    0    0 -0.20124817258E-01  0.32981723468E-01  0.12541953613E+00  0.13883214505E+00  0.45293510607E-01 0.  0.
         14    1    1    2    0    0  0.74930074507E-02 -0.17302184136E-02  0.11538422494E-01  0.13866290422E-01  0.00000000000E+00 0. -1.
     999901    1    3    3    0    0  0.12631809807E-01 -0.31251505054E-01 -0.13695795862E+00  0.89123156453E+00  0.88000000000E+00 0.  1.
        -11    1    4    4    0    0 -0.25588096235E-01  0.28509499697E-01  0.49553971732E-01  0.62637045566E-01  0.51100000000E-03 0. -1.
         11    1    4    4    0    0  0.54632789774E-02  0.44722237711E-02  0.75865564396E-01  0.76195099480E-01  0.51100000000E-03 0.  1.
</event>
<event>
 8    1  0.2837913E+004  0.1043930E+01  0.7957747E-01            NaN
         13   -1    0    0    0    0  0.00000000000E+00  0.00000000000E+00  0.74505805969E-08  0.10566000000E+00  0.10566000000E+00 0. -1.
     999900   -1    0    0    0    0 -0.00000000000E+00 -0.00000000000E+00 -0.74505805969E-08  0.93827000000E+00  0.93827000000E+00 0.  1.
     999902    2    1    2    0    0  0.22653440825E-02 -0.10472279118E-01 -0.63419942947E-02  0.10314792448E+01  0.10314040969E+01 0.  0.
     999903    2    3    3    0    0 -0.45483704558E-01  0.64929611274E-01 -0.10799807451E+00  0.14114258073E+00  0.44418714477E-01 0.  0.
         14    1    1    2    0    0 -0.22653440825E-02  0.10472279118E-01  0.63419942947E-02  0.12450755213E-01  0.00000000000E+00 0. -1.
     999901    1    3    3    0    0  0.47749048640E-01 -0.75401890393E-01  0.10165608022E+00  0.89033666406E+00  0.88000000000E+00 0.  1.
        -11    1    4    4    0    0 -0.33543501813E-01  0.67183341295E-01 -0.10412589954E+00  0.12837925042E+00  0.51100000000E-03 0. -1.
         11    1    4    4    0    0 -0.11940202745E-01 -0.22537300207E-02 -0.38721749689E-02  0.12763330310E-01  0.51100000000E-03 0.  1.
</event>
<event>
 8    1  0.2837913E+004  0.1043930E+01  0.7957747E-01            NaN
         13   -1    0    0    0    0  0.00000000000E+00  0.00000000000E+00  0.74505805969E-08  0.10566000000E+00  0.10566000000E+00 0.  1.
     999900   -1    0    0    0    0 -0.00000000000E+00 -0.00000000000E+00 -0.74505805969E-08  0.93827000000E+00  0.93827000000E+00 0.  1.
     999902    2    1    2    0    0  0.89540382760E-02 -0.47194984966E-02 -0.10113205936E-01  0.10296217715E+01  0.10295223490E+01 0.  0.
     999903    2    3    3    0    0  0.85837436073E-01 -0.84046950728E-01 -0.59610802248E-01  0.14133470444E+00  0.44610487276E-01 0.  0.
         14    1    1    2    0    0 -0.89540382760E-02  0.47194984966E-02  0.10113205936E-01  0.14308228465E-01  0.00000000000E+00 0.  1.
     999901    1    3    3    0    0 -0.76883397797E-01  0.79327452231E-01  0.49497596312E-01  0.88828706710E+00  0.88000000000E+00 0. -1.
        -11    1    4    4    0    0  0.50982863947E-01 -0.40142453869E-01 -0.55037669790E-01  0.85088631648E-01  0.51100000000E-03 0.  1.
         11    1    4    4    0    0  0.34854572126E-01 -0.43904496859E-01 -0.45731324580E-02  0.56246072788E-01  0.51100000000E-03 0. -1.
</event>
<event>
 8    1  0.2837913E+004  0.1043930E+01  0.7957747E-01            NaN
         13   -1    0    0    0    0  0.00000000000E+00  0.00000000000E+00  0.74505805969E-08  0.10566000000E+00  0.10566000000E+00 0.  1.
     999900   -1    0    0    0    0 -0.00000000000E+00 -0.00000000000E+00 -0.74505805969E-08  0.93827000000E+00  0.93827000000E+00 0.  1.
     999902    2    1    2    0    0  0.10132233571E-01  0.14455036617E-01  0.79563303051E-02  0.10245673186E+01  0.10243843404E+01 0.  0.
     999903    2    3    3    0    0  0.19785654587E-01  0.98147504277E-01  0.81588859534E-01  0.13748256103E+00  0.47120142863E-01 0.  0.
         14    1    1    2    0    0 -0.10132233571E-01 -0.14455036617E-01 -0.79563303051E-02  0.19362681443E-01  0.00000000000E+00 0.  1.
     999901    1    3    3    0    0 -0.96534210154E-02 -0.83692467660E-01 -0.73632529229E-01  0.88708475753E+00  0.88000000000E+00 0.  1.
        -11    1    4    4    0    0  0.27453565304E-01  0.25250598062E-01  0.29511793530E-01  0.47565723254E-01  0.51100000000E-03 0. -1.
         11    1    4    4    0    0 -0.76679107170E-02  0.72896906215E-01  0.52077066004E-01  0.89916837773E-01  0.51100000000E-03 0.  1.
</event>
<event>
 8    1  0.2837913E+004  0.1043930E+01  0.7957747E-01            NaN
         13   -1    0    0    0    0  0.00000000000E+00  0.00000000000E+00  0.74505805969E-08  0.10566000000E+00  0.10566000000E+00 0.  1.
     999900   -1    0    0    0    0 -0.00000000000E+00 -0.00000000000E+00 -0.74505805969E-08  0.93827000000E+00  0.93827000000E+00 0.  1.
     999902    2    1    2    0    0 -0.12217581876E-01  0.10820624021E-03  0.79194949487E-02  0.10293698003E+01  0.10292668198E+01 0.  0.
     999903    2    3    3    0    0  0.10207001700E-01  0.12567395445E+00  0.38984186923E-01  0.13963128018E+00  0.45596072887E-01 0.  0.
         14    1    1    2    0    0  0.12217581876E-01 -0.10820624021E-03 -0.79194949487E-02  0.14560199714E-01  0.00000000000E+00 0. -1.
     999901    1    3    3    0    0 -0.22424583576E-01 -0.12556574821E+00 -0.31064691974E-01  0.88973852011E+00  0.88000000000E+00 0. -1.
        -11    1    4    4    0    0 -0.11438166854E-01  0.44927665330E-01  0.30736784747E-01  0.55626772606E-01  0.51100000000E-03 0. -1.
         11    1    4    4    0    0  0.21645168554E-01  0.80746289124E-01  0.82474021758E-02  0.84004507574E-01  0.51100000000E-03 0.  1.
</event>
<event>
 8    1  0.2837913E+004  0.1043930E+01  0.7957747E-01            NaN
         13   -1    0    0    0    0  0.00000000000E+00  0.00000000000E+00  0.74505805969E-08  0.10566000000E+00  0.10566000000E+00 0. -1.
     999900   -1    0    0    0    0 -0.00000000000E+00 -0.00000000000E+00 -0.74505805969E-08  0.93827000000E+00  0.93827000000E+00 0. -1.
     999902    2    1    2    0    0 -0.11664867377E-01 -0.50604555309E-02 -0.71201374001E-02  0.10293569530E+01  0.10292537894E+01 0.  0.
     999903    2    3    3    0    0 -0.10705072362E+00 -0.79145052774E-01  0.13019156951E-01  0.14087927730E+00  0.44200401778E-01 0.  0.
         14    1    1    2    0    0  0.11664867377E-01  0.50604555309E-02  0.71201374001E-02  0.14573046960E-01  0.00000000000E+00 0. -1.
     999901    1    3    3    0    0  0.95385856243E-01  0.74084597243E-01 -0.20139294351E-01  0.88847767574E+00  0.88000000000E+00 0. -1.
        -11    1    4    4    0    0 -0.39782524965E-01 -0.20860607039E-01  0.24441815361E-01  0.51141741051E-01  0.51100000000E-03 0.  1.
         11    1    4    4    0    0 -0.67268198656E-01 -0.58284445735E-01 -0.11422658410E-01  0.89737536244E-01  0.51100000000E-03 0. -1.
</event>
<event>
 8    1  0.2837913E+004  0.1043930E+01  0.7957747E-01            NaN
         13   -1    0    0    0    0  0.00000000000E+00  0.00000000000E+00  0.74505805969E-08  0.10566000000E+00  0.10566000000E+00 0.  1.
     999900   -1    0    0    0    0 -0.00000000000E+00 -0.00000000000E+00 -0.74505805969E-08  0.93827000000E+00  0.93827000000E+00 0. -1.
     999902    2    1    2    0    0 -0.12569758455E-02  0.13020837657E-01 -0.16088708278E-02  0.10307500657E+01  0.10306657981E+01 0.  0.
     999903    2    3    3    0    0 -0.76342814680E-01 -0.67325215420E-01  0.84547009908E-01  0.13973030883E+00  0.44893789500E-01 0.  0.
         14    1    1    2    0    0  0.12569758455E-02 -0.13020837657E-01  0.16088708278E-02  0.13179934253E-01  0.00000000000E+00 0.  1.
     999901    1    3    3    0    0  0.75085838834E-01  0.80346053077E-01 -0.86155880736E-01  0.89101975692E+00  0.88000000000E+00 0. -1.
        -11    1    4    4    0    0 -0.38968236743E-01 -0.42697626020E-01  0.19978974924E-01  0.61163970625E-01  0.51100000000E-03 0. -1.
         11    1    4    4    0    0 -0.37374577937E-01 -0.24627589400E-01  0.64568034984E-01  0.78566338201E-01  0.51100000000E-03 0.  1.
</event>
<event>
 8    1  0.2837913E+004  0.1043930E+01  0.7957747E-01            NaN
         13   -1    0    0    0    0  0.00000000000E+00  0.00000000000E+00  0.74505805969E-08  0.10566000000E+00  0.10566000000E+00 0.  1.
     999900   -1    0    0    0    0 -0.00000000000E+00 -0.00000000000E+00 -0.74505805969E-08  0.93827000000E+00  0.93827000000E+00 0.  1.
     999902    2    1    2    0    0 -0.39393378554E-02  0.16908896845E-02 -0.13131963032E-01  0.10301160236E+01  0.10300233959E+01 0.  0.
     999903    2    3    3    0    0  0.11921863632E+00 -0.55897216479E-01  0.77808296835E-02  0.13942998382E+00  0.45195099531E-01 0.  0.
         14    1    1    2    0    0  0.39393378554E-02 -0.16908896845E-02  0.13131963032E-01  0.13813976391E-01  0.00000000000E+00 0.  1.
     999901    1    3    3    0    0 -0.12315797418E+00  0.57588106163E-01 -0.20912792715E-01  0.89068603979E+00  0.88000000000E+00 0. -1.
        -11    1    4    4    0    0  0.44152134489E-01 -0.41419647215E-01  0.15771511801E-01  0.62561968166E-01  0.51100000000E-03 0.  1.
         11    1    4    4    0    0  0.75066501831E-01 -0.14477569264E-01 -0.79906821179E-02  0.76868015654E-01  0.51100000000E-03 0. -1.
</event>
<event>
 8    1  0.2837913E+004  0.1043930E+01  0.7957747E-01            NaN
         13   -1    0    0    0    0  0.00000000000E+00  0.00000000000E+00  0.74505805969E-08  0.10566000000E+00  0.10566000000E+00 0. -1.
     999900   -1    0    0    0    0 -0.00000000000E+00 -0.00000000000E+00 -0.74505805969E-08  0.93827000000E+00  0.93827000000E+00 0.  1.
     999902    2    1    2    0    0 -0.32171728483E-02  0.74774446436E-02  0.88706523173E-02  0.10318904464E+01  0.10318202084E+01 0.  0.
     999903    2    3    3    0    0  0.11836639033E+00 -0.60849923187E-01  0.10729209562E-01  0.14090523533E+00  0.45009486714E-01 0.  0.
         14    1    1    2    0    0  0.32171728483E-02 -0.74774446436E-02 -0.88706523173E-02  0.12039553649E-01  0.00000000000E+00 0.  1.
     999901    1    3    3    0    0 -0.12158356317E+00  0.68327367830E-01 -0.18585572447E-02  0.89098521102E+00  0.88000000000E+00 0.  1.
        -11    1    4    4    0    0  0.39801338765E-01 -0.25271299037E-01 -0.17292309886E-01  0.50220217290E-01  0.51100000000E-03 0. -1.
         11    1    4    4    0    0  0.78565051560E-01 -0.35578624150E-01  0.28021519448E-01  0.90685018037E-01  0.51100000000E-03 0.  1.
</event>
<event>
 8    1  0.2837913E+004  0.1043930E+01  0.7957747E-01            NaN
         13   -1    0    0    0    0  0.00000000000E+00  0.00000000000E+00  0.74505805969E-08  0.10566000000E+00  0.10566000000E+00 0.  1.
     999900   -1    0    0    0    0 -0.00000000000E+00 -0.00000000000E+00 -0.74505805969E-08  0.93827000000E+00  0.93827000000E+00 0. -1.
     999902    2    1    2    0    0 -0.83936868321E-04  0.12059219237E-01  0.73351154041E-02  0.10298149112E+01  0.10297181729E+01 0.  0.
     999903    2    3    3    0    0  0.37026035407E-01  0.58603650611E-01 -0.11268547798E+00  0.13967532834E+00  0.44786886855E-01 0.  0.
         14    1    1    2    0    0  0.83936868321E-04 -0.12059219237E-01 -0.73351154041E-02  0.14115088806E-01  0.00000000000E+00 0. -1.
     999901    1    3    3    0    0 -0.37109972276E-01 -0.46544431374E-01  0.12002059339E+00  0.89013958286E+00  0.88000000000E+00 0.  1.
        -11    1    4    4    0    0  0.31028732054E-01  0.17636229915E-01 -0.27848838230E-01  0.45272924914E-01  0.51100000000E-03 0. -1.
         11    1    4    4    0    0  0.59973033536E-02  0.40967420696E-01 -0.84836639755E-01  0.94402403422E-01  0.51100000000E-03 0.  1.
</event>
<event>
 8    1  0.2837913E+004  0.1043930E+01  0.7957747E-01            NaN
         13   -1    0    0    0    0  0.00000000000E+00  0.00000000000E+00  0.74505805969E-08  0.10566000000E+00  0.10566000000E+00 0. -1.
     999900   -1    0    0    0    0 -0.00000000000E+00 -0.00000000000E+00 -0.74505805969E-08  0.93827000000E+00  0.93827000000E+00 0. -1.
     999902    2    1    2    0    0  0.78271143668E-02  0.48705453147E-03 -0.10948055324E-01  0.10304629715E+01  0.10303749680E+01 0.  0.
     999903    2    3    3    0    0 -0.82894723320E-01 -0.82446519678E-01  0.61055812579E-01  0.13900742770E+00  0.43889508373E-01 0.  0.
         14    1    1    2    0    0 -0.78271143668E-02 -0.48705453147E-03  0.10948055324E-01  0.13467028507E-01  0.00000000000E+00 0. -1.
     999901    1    3    3    0    0  0.90721837687E-01  0.82933574209E-01 -0.72003867903E-01  0.89145554379E+00  0.88000000000E+00 0. -1.
        -11    1    4    4    0    0 -0.53999240151E-01 -0.29748789543E-01  0.46348424601E-01  0.77132003735E-01  0.51100000000E-03 0. -1.
         11    1    4    4    0    0 -0.28895483169E-01 -0.52697730134E-01  0.14707387978E-01  0.61875423966E-01  0.51100000000E-03 0.  1.
</event>
<event>
 8    1  0.2837913E+004  0.1043930E+01  0.7957747E-01            NaN
         13   -1    0    0    0    0  0.00000000000E+00  0.00000000000E+00  0.74505805969E-08  0.10566000000E+00  0.10566000000E+00 0.  1.
     999900   -1    0    0    0    0 -0.00000000000E+00 -0.00000000000E+00 -0.74505805969E-08  0.93827000000E+00  0.93827000000E+00 0.  1.
     999902    2    1    2    0    0 -0.13577797345E-01 -0.54929128968E-02 -0.19014077464E-03  0.10292819685E+01  0.10291777329E+01 0.  0.
     999903    2    3    3    0    0  0.87873456393E-01 -0.21536936169E-01 -0.95038895520E-01  0.13824546318E+00  0.43518185505E-01 0.  0.
         14    1    1    2    0    0  0.13577797345E-01  0.54929128968E-02  0.19014077464E-03  0.14648031484E-01  0.00000000000E+00 0.  1.
     999901    1    3    3    0    0 -0.10145125374E+00  0.16044023272E-01  0.94848754745E-01  0.89103650534E+00  0.88000000000E+00 0. -1.
        -11    1    4    4    0    0  0.43120389634E-01  0.17720222284E-02 -0.69191499633E-01  0.81548959573E-01  0.51100000000E-03 0.  1.
         11    1    4    4    0    0  0.44753066760E-01 -0.23308958398E-01 -0.25847395887E-01  0.56696503606E-01  0.51100000000E-03 0. -1.
</event>
<event>
 7    1  0.2837913E+004  0.1043930E+01  0.7957747E-01            NaN
         13   -1    0    0    0    0  0.00000000000E+00  0.00000000000E+00  0.74505805969E-08  0.10566000000E+00  0.10566000000E+00 0.  1.
     999900   -1    0    0    0    0 -0.00000000000E+00 -0.00000000000E+00 -0.74505805969E-08  0.93827000000E+00  0.93827000000E+00 0.  1.
     999903    2    1    2    0    0  0.69843695444E-01  0.22330238379E-01  0.65907368131E-01  0.10812062250E+00  0.44379122292E-01 0.  0.
         14    1    1    2    0    0  0.29464568337E-01 -0.44431543472E-02  0.33088541831E-01  0.44528126036E-01  0.00000000000E+00 0.  1.
     999901    1    1    2    0    0 -0.99308263780E-01 -0.17887084032E-01 -0.98995909962E-01  0.89128125147E+00  0.88000000000E+00 0.  1.
        -11    1    3    3    0    0  0.43273509731E-01 -0.94194226679E-02  0.35135819304E-01  0.56534140897E-01  0.51100000000E-03 0.  1.
         11    1    3    3    0    0  0.26570185713E-01  0.31749661047E-01  0.30771548827E-01  0.51586481598E-01  0.51100000000E-03 0. -1.
</event>
<event>
 8    1  0.2837913E+004  0.1043930E+01  0.7957747E-01            NaN
         13   -1    0    0    0    0  0.00000000000E+00  0.00000000000E+00  0.74505805969E-08  0.10566000000E+00  0.10566000000E+00 0. -1.
     999900   -1    0    0    0    0 -0.00000000000E+00 -0.00000000000E+00 -0.74505805969E-08  0.93827000000E+00  0.93827000000E+00 0. -1.
     999902    2    1    2    0    0 -0.12006955040E-01 -0.98864865448E-03  0.77021322500E-02  0.10296307959E+01  0.10295314996E+01 0.  0.
     999903    2    3    3    0    0 -0.90112122512E-01  0.96511226077E-01  0.18224343803E-01  0.14074533668E+00  0.45194155668E-01 0.  0.
         14    1    1    2    0    0  0.12006955040E-01  0.98864865448E-03 -0.77021322500E-02  0.14299204058E-01  0.00000000000E+00 0. -1.
     999901    1    3    3    0    0  0.78105167471E-01 -0.97499874731E-01 -0.10522211553E-01  0.88888545927E+00  0.88000000000E+00 0. -1.
        -11    1    4    4    0    0 -0.42587818836E-01  0.26123461055E-01 -0.10562566382E-01  0.51068448775E-01  0.51100000000E-03 0.  1.
         11    1    4    4    0    0 -0.47524303676E-01  0.70387765022E-01  0.28786910185E-01  0.89676887901E-01  0.51100000000E-03 0. -1.
</event>
<event>
 8    1  0.2837913E+004  0.1043930E+01  0.7957747E-01            NaN
         13   -1    0    0    0    0  0.00000000000E+00  0.00000000000E+00  0.74505805969E-08  0.10566000000E+00  0.10566000000E+00 0. -1.
     999900   -1    0    0    0    0 -0.00000000000E+00 -0.00000000000E+00 -0.74505805969E-08  0.93827000000E+00  0.93827000000E+00 0. -1.
     999902    2    1    2    0    0  0.11528156367E-01 -0.45947128748E-02  0.45154459506E-02  0.10307239776E+01  0.10306393739E+01 0.  0.
     999903    2    3    3    0    0 -0.57556321337E-01  0.10709998127E+00 -0.51325432936E-01  0.13922716127E+00  0.44348238462E-01 0.  0.
         14    1    1    2    0    0 -0.11528156367E-01  0.45947128748E-02 -0.45154459506E-02  0.13206022405E-01  0.00000000000E+00 0.  1.
     999901    1    3    3    0    0  0.69084477704E-01 -0.11169469415E+00  0.55840878886E-01  0.89149681632E+00  0.88000000000E+00 0.  1.
        -11    1    4    4    0    0 -0.50208820203E-01  0.70321417883E-01 -0.53544385118E-01  0.10165279011E+00  0.51100000000E-03 0.  1.
         11    1    4    4    0    0 -0.73475011334E-02  0.36778563392E-01  0.22189521821E-02  0.37574371157E-01  0.51100000000E-03 0. -1.
</event>
<event>
 8    1  0.2837913E+004  0.1043930E+01  0.7957747E-01            NaN
         13   -1    0    0    0    0  0.00000000000E+00  0.00000000000E+00  0.74505805969E-08  0.10566000000E+00  0.10566000000E+00 0.  1.
     999900   -1    0    0    0    0 -0.00000000000E+00 -0.00000000000E+00 -0.74505805969E-08  0.93827000000E+00  0.93827000000E+00 0. -1.
     999902    2    1    2    0    0  0.13351953938E-02 -0.13832286103E-01  0.40361659473E-03  0.10300275617E+01  0.10299337357E+01 0.  0.
     999903    2    3    3    0    0  0.30425275009E-01  0.11952749919E+00  0.44492861814E-01  0.13841389722E+00  0.44342663093E-01 0.  0.
         14    1    1    2    0    0 -0.13351953938E-02  0.13832286103E-01 -0.40361659473E-03  0.13902438345E-01  0.00000000000E+00 0. -1.
     999901    1    3    3    0    0 -0.29090079615E-01 -0.13335978529E+00 -0.44089245220E-01  0.89161366444E+00  0.88000000000E+00 0. -1.
        -11    1    4    4    0    0  0.29674410418E-01  0.77595489996E-01  0.91752146243E-02  0.83582751724E-01  0.51100000000E-03 0. -1.
         11    1    4    4    0    0  0.75086459035E-03  0.41932009190E-01  0.35317647190E-01  0.54831145496E-01  0.51100000000E-03 0.  1.
</event>
<event>
 8    1  0.2837913E+004  0.1043930E+01  0.7957747E-01            NaN
         13   -1    0    0    0    0  0.00000000000E+00  0.00000000000E+00  0.74505805969E-08  0.10566000000E+00  0.10566000000E+00 0. -1.
     999900   -1    0    0    0    0 -0.00000000000E+00 -0.00000000000E+00 -0.74505805969E-08  0.93827000000E+00  0.93827000000E+00 0.  1.
     999902    2    1    2    0    0 -0.39310678037E-02  0.10732368474E-01 -0.19783434769E-01  0.10210822141E+01  0.10208265606E+01 0.  0.
     999903    2    3    3    0    0  0.41213271211E-01 -0.49225960545E-01  0.10289193635E+00  0.12940836164E+00  0.45144707110E-01 0.  0.
         14    1    1    2    0    0  0.39310678037E-02 -0.10732368474E-01  0.19783434769E-01  0.22847785854E-01  0.00000000000E+00 0. -1.
     999901    1    3    3    0    0 -0.45144339015E-01  0.59958329019E-01 -0.12267537112E+00  0.89167385251E+00  0.88000000000E+00 0.  1.
        -11    1    4    4    0    0  0.47349611498E-01 -0.25139484503E-01  0.71305675601E-01  0.89211769874E-01  0.51100000000E-03 0. -1.
         11    1    4    4    0    0 -0.61363402867E-02 -0.24086476042E-01  0.31586260753E-01  0.40196591766E-01  0.51100000000E-03 0.  1.
</event>
<event>
 8    1  0.2837913E+004  0.1043930E+01  0.7957747E-01            NaN
         13   -1    0    0    0    0  0.00000000000E+00  0.00000000000E+00  0.74505805969E-08  0.10566000000E+00  0.10566000000E+00 0.  1.
     999900   -1    0    0    0    0 -0.00000000000E+00 -0.00000000000E+00 -0.74505805969E-08  0.93827000000E+00  0.93827000000E+00 0. -1.
     999902    2    1    2    0    0 -0.25282689560E-02 -0.89966609700E-02  0.11097753197E-01  0.10294216514E+01  0.10293194083E+01 0.  0.
     999903    2    3    3    0    0 -0.13050807229E+00 -0.11794555307E-01 -0.18642537624E-01  0.13966261484E+00  0.44571664855E-01 0.  0.
         14    1    1    2    0    0  0.25282689560E-02  0.89966609700E-02 -0.11097753197E-01  0.14508348581E-01  0.00000000000E+00 0. -1.
     999901    1    3    3    0    0  0.12797980333E+00  0.27978943367E-02  0.29740290821E-01  0.88975903658E+00  0.88000000000E+00 0. -1.
        -11    1    4    4    0    0 -0.81314576857E-01  0.38308852024E-02 -0.30091908711E-01  0.86790092648E-01  0.51100000000E-03 0. -1.
         11    1    4    4    0    0 -0.49193495431E-01 -0.15625440509E-01  0.11449371087E-01  0.52872522193E-01  0.51100000000E-03 0.  1.
</event>
<event>
 8    1  0.2837913E+004  0.1043930E+01  0.7957747E-01            NaN
         13   -1    0    0    0    0  0.00000000000E+00  0.00000000000E+00  0.74505805969E-08  0.10566000000E+00  0.10566000000E+00 0.  1.
     999900   -1    0    0    0    0 -0.00000000000E+00 -0.00000000000E+00 -0.74505805969E-08  0.93827000000E+00  0.93827000000E+00 0. -1.
     999902    2    1    2    0    0  0.75752205093E-02 -0.82758237766E-02 -0.87312591043E-02  0.10297135268E+01  0.10296153841E+01 0.  0.
     999903    2    3    3    0    0  0.60927735900E-01  0.61053036533E-01  0.98873854514E-01  0.13885335693E+00  0.45437356354E-01 0.  0.
         14    1    1    2    0    0 -0.75752205093E-02  0.82758237766E-02  0.87312591043E-02  0.14216473209E-01  0.00000000000E+00 0.  1.
     999901    1    3    3    0    0 -0.53352515390E-01 -0.69328860309E-01 -0.10760511362E+00  0.89086016986E+00  0.88000000000E+00 0. -1.
        -11    1    4    4    0    0  0.74413873887E-02  0.21592880537E-01  0.54058713250E-01  0.58687582463E-01  0.51100000000E-03 0.  1.
         11    1    4    4    0    0  0.53486348511E-01  0.39460155996E-01  0.44815141264E-01  0.80165774466E-01  0.51100000000E-03 0. -1.
</event>
<event>
 8    1  0.2837913E+004  0.1043930E+01  0.7957747E-01            NaN
         13   -1    0    0    0    0  0.00000000000E+00  0.00000000000E+00  0.74505805969E-08  0.10566000000E+00  0.10566000000E+00 0.  1.
     999900   -1    0    0    0    0 -0.00000000000E+00 -0.00000000000E+00 -0.74505805969E-08  0.93827000000E+00  0.93827000000E+00 0.  1.
     999902    2    1    2    0    0 -0.72137282510E-02 -0.57201659156E-03 -0.12883831348E-01  0.10291530521E+01  0.10290469603E+01 0.  0.
     999903    2    3    3    0    0 -0.12922986418E+00  0.12855040564E-01  0.25529387815E-01  0.13980284062E+00  0.45027488723E-01 0.  0.
         14    1    1    2    0    0  0.72137282510E-02  0.57201659156E-03  0.12883831348E-01  0.14776947874E-01  0.00000000000E+00 0.  1.
     999901    1    3    3    0    0  0.12201613593E+00 -0.13427057156E-01 -0.38413219164E-01  0.88935021150E+00  0.88000000000E+00 0.  1.
        -11    1    4    4    0    0 -0.88003994366E-01 -0.12167109251E-01  0.21498168877E-01  0.91406640667E-01  0.51100000000E-03 0.  1.
         11    1    4    4    0    0 -0.41225869814E-01  0.25022149815E-01  0.40312189388E-02  0.48396199958E-01  0.51100000000E-03 0. -1.
</event>
<event>
 8    1  0.2837913E+004  0.1043930E+01  0.7957747E-01            NaN
         13   -1    0    0    0    0  0.00000000000E+00  0.00000000000E+00  0.74505805969E-08  0.10566000000E+00  0.10566000000E+00 0.  1.
     999900   -1    0    0    0    0 -0.00000000000E+00 -0.00000000000E+00 -0.74505805969E-08  0.93827000000E+00  0.93827000000E+00 0.  1.
     999902    2    1    2    0    0  0.58971351697E-02 -0.12428603954E-01 -0.32209956359E-02  0.10298012629E+01  0.10297043361E+01 0.  0.
     999903    2    3    3    0    0  0.18752630246E-01 -0.13252100015E+00 -0.11407870091E-01  0.14151388130E+00  0.44525975319E-01 0.  0.
         14    1    1    2    0    0 -0.58971351697E-02  0.12428603954E-01  0.32209956359E-02  0.14128737111E-01  0.00000000000E+00 0. -1.
     999901    1    3    3    0    0 -0.12855495077E-01  0.12009239620E+00  0.81868744555E-02  0.88828738159E+00  0.88000000000E+00 0.  1.
        -11    1    4    4    0    0  0.23821538695E-01 -0.84368641742E-01 -0.25105627495E-01  0.91192582309E-01  0.51100000000E-03 0.  1.
         11    1    4    4    0    0 -0.50689084487E-02 -0.48152358409E-01  0.13697757403E-01  0.50321298991E-01  0.51100000000E-03 0. -1.
</event>
<event>
 8    1  0.2837913E+004  0.1043930E+01  0.7957747E-01            NaN
         13   -1    0    0    0    0  0.00000000000E+00  0.00000000000E+00  0.74505805969E-08  0.10566000000E+00  0.10566000000E+00 0.  1.
     999900   -1    0    0    0    0 -0.00000000000E+00 -0.00000000000E+00 -0.74505805969E-08  0.93827000000E+00  0.93827000000E+00 0. -1.
     999902    2    1    2    0    0  0.73645882064E-02 -0.52046648662E-02  0.82129022835E-02  0.10317325634E+01  0.10316604601E+01 0.  0.
     999903    2    3    3    0    0  0.89934419791E-01 -0.88369816880E-01  0.50311668979E-01  0.14296570659E+00  0.44838653266E-01 0.  0.
         14    1    1    2    0    0 -0.73645882064E-02  0.52046648662E-02 -0.82129022835E-02  0.12197436605E-01  0.00000000000E+00 0. -1.
     999901    1    3    3    0    0 -0.82569831585E-01  0.83165152014E-01 -0.42098766696E-01  0.88876685680E+00  0.88000000000E+00 0. -1.
        -11    1    4    4    0    0  0.45188159888E-01 -0.19160502950E-01  0.61658378431E-02  0.49470934342E-01  0.51100000000E-03 0. -1.
         11    1    4    4    0    0  0.44746259903E-01 -0.69209313931E-01  0.44145831136E-01  0.93494772248E-01  0.51100000000E-03 0.  1.
</event>
<event>
 8    1  0.2837913E+004  0.1043930E+01  0.7957747E-01            NaN
         13   -1    0    0    0    0  0.00000000000E+00  0.00000000000E+00  0.74505805969E-08  0.10566000000E+00  0.10566000000E+00 0. -1.
     999900   -1    0    0    0    0 -0.00000000000E+00 -0.00000000000E+00 -0.74505805969E-08  0.93827000000E+00  0.93827000000E+00 0.  1.
     999902    2    1    2    0    0  0.10752216334E-01  0.65392676831E-02 -0.49057416343E-02  0.10304230211E+01  0.10303344913E+01 0.  0.
     999903    2    3    3    0    0  0.17652878344E-01  0.11075502076E+00 -0.73789199194E-01  0.14157349894E+00  0.44943419407E-01 0.  0.
         14    1    1    2    0    0 -0.10752216334E-01 -0.65392676831E-02  0.49057416343E-02  0.13506978896E-01  0.00000000000E+00 0. -1.
     999901    1    3    3    0    0 -0.69006620105E-02 -0.10421575307E+00  0.68883457559E-01  0.88884952216E+00  0.88000000000E+00 0.  1.
        -11    1    4    4    0    0  0.24236817616E-03  0.40486562881E-01 -0.52130309360E-01  0.66007960060E-01  0.51100000000E-03 0.  1.
         11    1    4    4    0    0  0.17410510168E-01  0.70268457875E-01 -0.21658889833E-01  0.75565538880E-01  0.51100000000E-03 0. -1.
</event>
<event>
 8    1  0.2837913E+004  0.1043930E+01  0.7957747E-01            NaN
         13   -1    0    0    0    0  0.00000000000E+00  0.00000000000E+00  0.74505805969E-08  0.10566000000E+00  0.10566000000E+00 0. -1.
     999900   -1    0    0    0    0 -0.00000000000E+00 -0.00000000000E+00 -0.74505805969E-08  0.93827000000E+00  0.93827000000E+00 0. -1.
     999902    2    1    2    0    0  0.63477561532E-02  0.15419398842E-01 -0.69863208506E-03  0.10272404837E+01  0.10271048979E+01 0.  0.
     999903    2    3    3    0    0  0.11849549466E+00  0.10766264934E-01  0.51982699253E-01  0.13854813556E+00  0.48335185221E-01 0.  0.
         14    1    1    2    0    0 -0.63477561532E-02 -0.15419398842E-01  0.69863208506E-03  0.16689516339E-01  0.00000000000E+00 0. -1.
     999901    1    3    3    0    0 -0.11214773850E+00  0.46531339078E-02 -0.52681331338E-01  0.88869234810E+00  0.88000000000E+00 0. -1.
        -11    1    4    4    0    0  0.68980588036E-01  0.23298621232E-01  0.48221312482E-01  0.87330998939E-01  0.51100000000E-03 0. -1.
         11    1    4    4    0    0  0.49514906620E-01 -0.12532356298E-01  0.37613867704E-02  0.51217136619E-01  0.51100000000E-03 0.  1.
</event>
<event>
 8    1  0.2837913E+004  0.1043930E+01  0.7957747E-01            NaN
         13   -1    0    0    0    0  0.00000000000E+00  0.00000000000E+00  0.74505805969E-08  0.10566000000E+00  0.10566000000E+00 0.  1.
     999900   -1    0    0    0    0 -0.00000000000E+00 -0.00000000000E+00 -0.74505805969E-08  0.93827000000E+00  0.93827000000E+00 0. -1.
     999902    2    1    2    0    0  0.36831912475E-03  0.13724492721E-01 -0.25892232525E-02  0.10299585492E+01  0.10298637831E+01 0.  0.
     999903    2    3    3    0    0  0.28784231029E-01  0.12790788107E+00 -0.29107004892E-01  0.14173081776E+00  0.45292924092E-01 0.  0.
         14    1    1    2    0    0 -0.36831912475E-03 -0.13724492721E-01  0.25892232525E-02  0.13971450765E-01  0.00000000000E+00 0.  1.
     999901    1    3    3    0    0 -0.28415911905E-01 -0.11418338835E+00  0.26517781639E-01  0.88822773148E+00  0.88000000000E+00 0.  1.
        -11    1    4    4    0    0  0.31376347191E-01  0.85385364465E-01 -0.37346357557E-01  0.98336906458E-01  0.51100000000E-03 0. -1.
         11    1    4    4    0    0 -0.25921161615E-02  0.42522516603E-01  0.82393526652E-02  0.43393911299E-01  0.51100000000E-03 0.  1.
</event>
<event>
 8    1  0.2837913E+004  0.1043930E+01  0.7957747E-01            NaN
         13   -1    0    0    0    0  0.00000000000E+00  0.00000000000E+00  0.74505805969E-08  0.10566000000E+00  0.10566000000E+00 0. -1.
     999900   -1    0    0    0    0 -0.00000000000E+00 -0.00000000000E+00 -0.74505805969E-08  0.93827000000E+00  0.93827000000E+00 0.  1.
     999902    2    1    2    0    0  0.46903992608E-02 -0.11584351206E-01  0.59449931842E-02  0.10300902030E+01  0.10299972263E+01 0.  0.
     999903    2    3    3    0    0 -0.68053751119E-01  0.56643837598E-01  0.98228848476E-01  0.13966159431E+00  0.44906757538E-01 0.  0.
         14    1    1    2    0    0 -0.46903992608E-02  0.11584351206E-01 -0.59449931842E-02  0.13839797038E-01  0.00000000000E+00 0. -1.
     999901    1    3    3    0    0  0.72744150380E-01 -0.68228188804E-01 -0.92283855291E-01  0.89042860865E+00  0.88000000000E+00 0. -1.
        -11    1    4    4    0    0 -0.28968053174E-01  0.24876067244E-02  0.14312796065E-01  0.32410701075E-01  0.51100000000E-03 0. -1.
         11    1    4    4    0    0 -0.39085697945E-01  0.54156230873E-01  0.83916052410E-01  0.10725089323E+00  0.51100000000E-03 0.  1.
</event>
<event>
 8    1  0.2837913E+004  0.1043930E+01  0.7957747E-01            NaN
         13   -1    0    0    0    0  0.00000000000E+00  0.00000000000E+00  0.74505805969E-08  0.10566000000E+00  0.10566000000E+00 0. -1.
     999900   -1    0    0    0    0 -0.00000000000E+00 -0.00000000000E+00 -0.74505805969E-08  0.93827000000E+00  0.93827000000E+00 0. -1.
     999902    2    1    2    0    0  0.11479620556E-01 -0.69583691734E-02 -0.88395944918E-02  0.10278570718E+01  0.10277313954E+01 0.  0.
     999903    2    3    3    0    0 -0.61107750805E-01 -0.11016744068E+00  0.32929496579E-01  0.13787634399E+00  0.45326728255E-01 0.  0.
         14    1    1    2    0    0 -0.11479620556E-01  0.69583691734E-02  0.88395944918E-02  0.16072928185E-01  0.00000000000E+00 0. -1.
     999901    1    3    3    0    0  0.72587371362E-01  0.10320907150E+00 -0.41769091070E-01  0.88998072782E+00  0.88000000000E+00 0. -1.
        -11    1    4    4    0    0 -0.33652433941E-01 -0.65021797990E-01 -0.41340773706E-02  0.73332613759E-01  0.51100000000E-03 0. -1.
         11    1    4    4    0    0 -0.27455316865E-01 -0.45145642688E-01  0.37063573949E-01  0.64543730236E-01  0.51100000000E-03 0.  1.
</event>
<event>
 8    1  0.2837913E+004  0.1043930E+01  0.7957747E-01            NaN
         13   -1    0    0    0    0  0.00000000000E+00  0.00000000000E+00  0.74505805969E-08  0.10566000000E+00  0.10566000000E+00 0.  1.
     999900   -1    0    0    0    0 -0.00000000000E+00 -0.00000000000E+00 -0.74505805969E-08  0.93827000000E+00  0.93827000000E+00 0.  1.
     999902    2    1    2    0    0  0.13123472384E-01 -0.10143963705E-02 -0.37371947706E-02  0.10302471219E+01  0.10301562557E+01 0.  0.
     999903    2    3    3    0    0  0.63630302022E-01 -0.11712095769E+00  0.10445301136E-01  0.14107176431E+00  0.45011157529E-01 0.  0.
         14    1    1    2    0    0 -0.13123472384E-01  0.10143963705E-02  0.37371947706E-02  0.13682878066E-01  0.00000000000E+00 0. -1.
     999901    1    3    3    0    0 -0.50506829638E-01  0.11610656132E+00 -0.14182495907E-01  0.88917535763E+00  0.88000000000E+00 0.  1.
        -11    1    4    4    0    0  0.10880934746E-01 -0.10557726936E-01  0.15985224774E-01  0.22037442480E-01  0.51100000000E-03 0. -1.
         11    1    4    4    0    0  0.52749367276E-01 -0.10656323076E+00 -0.55399236374E-02  0.11903432183E+00  0.51100000000E-03 0.  1.
</event>
<event>
 8    1  0.2837913E+004  0.1043930E+01  0.7957747E-01            NaN
         13   -1    0    0    0    0  0.00000000000E+00  0.00000000000E+00  0.74505805969E-08  0.10566000000E+00  0.10566000000E+00 0. -1.
     999900   -1    0    0    0    0 -0.00000000000E+00 -0.00000000000E+00 -0.74505805969E-08  0.93827000000E+00  0.93827000000E+00 0.  1.
     999902    2    1    2    0    0 -0.44851047567E-03  0.47030693181E-02  0.12761366875E-01  0.10303221895E+01  0.10302323241E+01 0.  0.
     999903    2    3    3    0    0 -0.20891361988E-01  0.11678520549E+00  0.62819062400E-01  0.14156683039E+00  0.44941068499E-01 0.  0.
         14    1    1    2    0    0  0.44851047567E-03 -0.47030693181E-02 -0.12761366875E-01  0.13607810521E-01  0.00000000000E+00 0.  1.
     999901    1    3    3    0    0  0.20442851512E-01 -0.11208213618E+00 -0.50057695525E-01  0.88875535909E+00  0.88000000000E+00 0.  1.
        -11    1    4    4    0    0 -0.10508438372E-01  0.10434000216E+00  0.67468503391E-01  0.12469772812E+00  0.51100000000E-03 0. -1.
         11    1    4    4    0    0 -0.10382923615E-01  0.12445203336E-01 -0.46494409912E-02  0.16869102271E-01  0.51100000000E-03 0.  1.
</event>
<event>
 8    1  0.2837913E+004  0.1043930E+01  0.7957747E-01            NaN
         13   -1    0    0    0    0  0.00000000000E+00  0.00000000000E+00  0.74505805969E-08  0.10566000000E+00  0.10566000000E+00 0. -1.
     999900   -1    0    0    0    0 -0.00000000000E+00 -0.00000000000E+00 -0.74505805969E-08  0.93827000000E+00  0.93827000000E+00 0. -1.
     999902    2    1    2    0    0 -0.51267255189E-03 -0.48315465860E-02  0.14170421302E-01  0.10289497625E+01  0.10288407098E+01 0.  0.
     999903    2    3    3    0    0  0.12778497797E+00 -0.53415620947E-02 -0.28604613932E-01  0.13861822263E+00  0.45158109203E-01 0.  0.
         14    1    1    2    0    0  0.51267255189E-03  0.48315465860E-02 -0.14170421302E-01  0.14980237496E-01  0.00000000000E+00 0.  1.
     999901    1    3    3    0    0 -0.12829765053E+00  0.51001550866E-03  0.42775035234E-01  0.89033153987E+00  0.88000000000E+00 0.  1.
        -11    1    4    4    0    0  0.80554880782E-01  0.12304505816E-01 -0.17910514728E-02  0.81510481949E-01  0.51100000000E-03 0. -1.
         11    1    4    4    0    0  0.47230097192E-01 -0.17646067911E-01 -0.26813562459E-01  0.57107740686E-01  0.51100000000E-03 0.  1.
</event>
<event>
 8    1  0.2837913E+004  0.1043930E+01  0.7957747E-01            NaN
         13   -1    0    0    0    0  0.00000000000E+00  0.00000000000E+00  0.74505805969E-08  0.10566000000E+00  0.10566000000E+00 0.  1.
     999900   -1    0    0    0    0 -0.00000000000E+00 -0.00000000000E+00 -0.74505805969E-08  0.93827000000E+00  0.93827000000E+00 0. -1.
     999902    2    1    2    0    0 -0.17543454605E-02 -0.28212939925E-02  0.12897897340E-01  0.10306110968E+01  0.10305250310E+01 0.  0.
     999903    2    3    3    0    0 -0.10641181803E+00  0.71648811375E-01 -0.33850444180E-01  0.14005824005E+00  0.44871269717E-01 0.  0.
         14    1    1    2    0    0  0.17543454605E-02  0.28212939925E-02 -0.12897897340E-01  0.13318903242E-01  0.00000000000E+00 0. -1.
     999901    1    3    3    0    0  0.10465747257E+00 -0.74470105368E-01  0.46748341520E-01  0.89055285671E+00  0.88000000000E+00 0.  1.
        -11    1    4    4    0    0 -0.16030325754E-01  0.25974720662E-01  0.62133000877E-02  0.31153228986E-01  0.51100000000E-03 0.  1.
         11    1    4    4    0    0 -0.90381492278E-01  0.45674090713E-01 -0.40063744268E-01  0.10890501106E+00  0.51100000000E-03 0. -1.
</event>
<event>
 8    1  0.2837913E+004  0.1043930E+01  0.7957747E-01            NaN
         13   -1    0    0    0    0  0.00000000000E+00  0.00000000000E+00  0.74505805969E-08  0.10566000000E+00  0.10566000000E+00 0. -1.
     999900   -1    0    0    0    0 -0.00000000000E+00 -0.00000000000E+00 -0.74505805969E-08  0.93827000000E+00  0.93827000000E+00 0.  1.
     999902    2    1    2    0    0  0.10650264683E-01 -0.43472382566E-02 -0.71513014452E-02  0.10303849740E+01  0.10302959414E+01 0.  0.
     999903    2    3    3    0    0  0.66029979078E-01 -0.11047836725E+00  0.36940445075E-01  0.14118600217E+00  0.44760059872E-01 0.  0.
         14    1    1    2    0    0 -0.10650264683E-01  0.43472382566E-02  0.71513014452E-02  0.13545026048E-01  0.00000000000E+00 0. -1.
     999901    1    3    3    0    0 -0.55379714395E-01  0.10613112899E+00 -0.44091746520E-01  0.88919897178E+00  0.88000000000E+00 0.  1.
        -11    1    4    4    0    0  0.47044347304E-01 -0.94797656791E-01  0.12632545538E-01  0.10658146496E+00  0.51100000000E-03 0. -1.
         11    1    4    4    0    0  0.18985631774E-01 -0.15680710456E-01  0.24307899537E-01  0.34604537205E-01  0.51100000000E-03 0.  1.
</event>
<event>
 8    1  0.2837913E+004  0.1043930E+01  0.7957747E-01            NaN
         13   -1    0    0    0    0  0.00000000000E+00  0.00000000000E+00  0.74505805969E-08  0.10566000000E+00  0.10566000000E+00 0. -1.
     999900   -1    0    0    0    0 -0.00000000000E+00 -0.00000000000E+00 -0.74505805969E-08  0.93827000000E+00  0.93827000000E+00 0.  1.
     999902    2    1    2    0    0  0.10640349303E-03 -0.55020979046E-02 -0.12300599762E-01  0.10304544979E+01  0.10303663829E+01 0.  0.
     999903    2    3    3    0    0  0.98097354600E-01 -0.92531618176E-02 -0.90941450314E-01  0.14152217179E+00  0.45271025393E-01 0.  0.
         14    1    1    2    0    0 -0.10640349303E-03  0.55020979046E-02  0.12300599762E-01  0.13475502126E-01  0.00000000000E+00 0. -1.
     999901    1    3    3    0    0 -0.97990951107E-01  0.37510639129E-02  0.78640850552E-01  0.88893232608E+00  0.88000000000E+00 0. -1.
        -11    1    4    4    0    0  0.18397106544E-01 -0.16876685671E-01 -0.38231052191E-01  0.45663448414E-01  0.51100000000E-03 0.  1.
         11    1    4    4    0    0  0.79700248056E-01  0.76235238539E-02 -0.52710398123E-01  0.95858723376E-01  0.51100000000E-03 0. -1.
</event>
<event>
 8    1  0.2837913E+004  0.1043930E+01  0.7957747E-01            NaN
         13   -1    0    0    0    0  0.00000000000E+00  0.00000000000E+00  0.74505805969E-08  0.10566000000E+00  0.10566000000E+00 0.  1.
     999900   -1    0    0    0    0 -0.00000000000E+00 -0.00000000000E+00 -0.74505805969E-08  0.93827000000E+00  0.93827000000E+00 0.  1.
     999902    2    1    2    0    0  0.29392475565E-02  0.13943360737E-01 -0.13478177173E-04  0.10296802047E+01  0.10295815982E+01 0.  0.
     999903    2    3    3    0    0 -0.11359544487E+00  0.58505803432E-01  0.35582133483E-01  0.14016730798E+00  0.45320325166E-01 0.  0.
         14    1    1    2    0    0 -0.29392475565E-02 -0.13943360737E-01  0.13478177173E-04  0.14249795314E-01  0.00000000000E+00 0.  1.
     999901    1    3    3    0    0  0.11653469242E+00 -0.44562442695E-01 -0.35595611660E-01  0.88951289671E+00  0.88000000000E+00 0.  1.
        -11    1    4    4    0    0 -0.48669198660E-01  0.94091407491E-03  0.99361548268E-02  0.49684650661E-01  0.51100000000E-03 0. -1.
         11    1    4    4    0    0 -0.64926246207E-01  0.57564889357E-01  0.25645978656E-01  0.90482657319E-01  0.51100000000E-03 0.  1.
</event>
<event>
 8    1  0.2837913E+004  0.1043930E+01  0.7957747E-01            NaN
         13   -1    0    0    0    0  0.00000000000E+00  0.00000000000E+00  0.74505805969E-08  0.10566000000E+00  0.10566000000E+00 0.  1.
     999900   -1    0    0    0    0 -0.00000000000E+00 -0.00000000000E+00 -0.74505805969E-08  0.93827000000E+00  0.93827000000E+00 0. -1.
     999902    2    1    2    0    0  0.29999586259E-02 -0.82067959369E-02  0.98009554116E-02  0.10307995020E+01  0.10307158693E+01 0.  0.
     999903    2    3    3    0    0  0.83317406849E-01  0.35709694362E-02  0.10653869834E+00  0.14178442947E+00  0.42400331226E-01 0.  0.
         14    1    1    2    0    0 -0.29999586259E-02  0.82067959369E-02 -0.98009554116E-02  0.13130498021E-01  0.00000000000E+00 0. -1.
     999901    1    3    3    0    0 -0.80317448224E-01 -0.11777765373E-01 -0.96737742930E-01  0.88901507251E+00  0.88000000000E+00 0. -1.
        -11    1    4    4    0    0  0.28130911489E-02  0.17832611844E-03  0.31651126165E-01  0.31780500161E-01  0.51100000000E-03 0.  1.
         11    1    4    4    0    0  0.80504315700E-01  0.33926433178E-02  0.74887572177E-01  0.11000392931E+00  0.51100000000E-03 0. -1.
</event>
<event>
 8    1  0.2837913E+004  0.1043930E+01  0.7957747E-01            NaN
         13   -1    0    0    0    0  0.00000000000E+00  0.00000000000E+00  0.74505805969E-08  0.10566000000E+00  0.10566000000E+00 0. -1.
     999900   -1    0    0    0    0 -0.00000000000E+00 -0.00000000000E+00 -0.74505805969E-08  0.93827000000E+00  0.93827000000E+00 0. -1.
     999902    2    1    2    0    0  0.10994399478E-01 -0.78184286114E-02  0.16150253700E-03  0.10304381236E+01  0.10303497929E+01 0.  0.
     999903    2    3    3    0    0 -0.11590357254E+00  0.54982503523E-01 -0.28779199229E-01  0.13865080781E+00  0.44035103930E-01 0.  0.
         14    1    1    2    0    0 -0.10994399478E-01  0.78184286114E-02 -0.16150253700E-03  0.13491876404E-01  0.00000000000E+00 0.  1.
     999901    1    3    3    0    0  0.12689797201E+00 -0.62800932135E-01  0.28940701766E-01  0.89178731579E+00  0.88000000000E+00 0.  1.
        -11    1    4    4    0    0 -0.23395460704E-01 -0.41181460172E-02 -0.14786906791E-01  0.27986075853E-01  0.51100000000E-03 0. -1.
         11    1    4    4    0    0 -0.92508111831E-01  0.59100649540E-01 -0.13992292437E-01  0.11066473196E+00  0.51100000000E-03 0.  1.
</event>
<event>
 8    1  0.2837913E+004  0.1043930E+01  0.7957747E-01            NaN
         13   -1    0    0    0    0  0.00000000000E+00  0.00000000000E+00  0.74505805969E-08  0.10566000000E+00  0.10566000000E+00 0.  1.
     999900   -1    0    0    0    0 -0.00000000000E+00 -0.00000000000E+00 -0.74505805969E-08  0.93827000000E+00  0.93827000000E+00 0.  1.
     999902    2    1    2    0    0  0.18535168976E-02  0.48417492018E-02  0.12928537590E-01  0.10300007091E+01  0.10299065179E+01 0.  0.
     999903    2    3    3    0    0  0.76441565219E-01 -0.17712533555E-01  0.10915709301E+00  0.14133203773E+00  0.43616822417E-01 0.  0.
         14    1    1    2    0    0 -0.18535168976E-02 -0.48417492018E-02 -0.12928537590E-01  0.13929290881E-01  0.00000000000E+00 0. -1.
     999901    1    3    3    0    0 -0.74588048321E-01  0.22554282757E-01 -0.96228555420E-01  0.88866867138E+00  0.88000000000E+00 0. -1.
        -11    1    4    4    0    0  0.39567679095E-01 -0.29938498711E-01  0.72940121342E-01  0.88218123741E-01  0.51100000000E-03 0.  1.
         11    1    4    4    0    0  0.36873886124E-01  0.12225965156E-01  0.36216971668E-01  0.53113913993E-01  0.51100000000E-03 0. -1.
</event>
<event>
 8    1  0.2837913E+004  0.1043930E+01  0.7957747E-01            NaN
         13   -1    0    0    0    0  0.00000000000E+00  0.00000000000E+00  0.74505805969E-08  0.10566000000E+00  0.10566000000E+00 0.  1.
     999900   -1    0    0    0    0 -0.00000000000E+00 -0.00000000000E+00 -0.74505805969E-08  0.93827000000E+00  0.93827000000E+00 0. -1.
     999902    2    1    2    0    0  0.24798064338E-03  0.72165694159E-02  0.12877963780E-01  0.10291657757E+01  0.10290598678E+01 0.  0.
     999903    2    3    3    0    0  0.69029731170E-01  0.10985975361E+00 -0.26291911016E-01  0.13967106993E+00  0.44524981097E-01 0.  0.
         14    1    1    2    0    0 -0.24798064338E-03 -0.72165694159E-02 -0.12877963780E-01  0.14764224316E-01  0.00000000000E+00 0. -1.
     999901    1    3    3    0    0 -0.68781750527E-01 -0.10264318420E+00  0.39169874795E-01  0.88949470575E+00  0.88000000000E+00 0.  1.
        -11    1    4    4    0    0  0.63473134016E-01  0.73372988860E-01 -0.32341470849E-01  0.10226761997E+00  0.51100000000E-03 0. -1.
         11    1    4    4    0    0  0.55565971546E-02  0.36486764755E-01  0.60495598332E-02  0.37403449966E-01  0.51100000000E-03 0.  1.
</event>
<event>
 8    1  0.2837913E+004  0.1043930E+01  0.7957747E-01            NaN
         13   -1    0    0    0    0  0.00000000000E+00  0.00000000000E+00  0.74505805969E-08  0.10566000000E+00  0.10566000000E+00 0.  1.
     999900   -1    0    0    0    0 -0.00000000000E+00 -0.00000000000E+00 -0.74505805969E-08  0.93827000000E+00  0.93827000000E+00 0. -1.
     999902    2    1    2    0    0  0.28044839197E-02  0.31415782684E-02 -0.18519150888E-01  0.10249380650E+01  0.10247620912E+01 0.  0.
     999903    2    3    3    0    0 -0.31743648477E-01  0.10869473771E+00  0.56503525582E-01  0.13479007458E+00  0.46405932567E-01 0.  0.
         14    1    1    2    0    0 -0.28044839197E-02 -0.31415782684E-02  0.18519150888E-01  0.18991934965E-01  0.00000000000E+00 0.  1.
     999901    1    3    3    0    0  0.34548132396E-01 -0.10555315945E+00 -0.75022676471E-01  0.89014799045E+00  0.88000000000E+00 0. -1.
        -11    1    4    4    0    0 -0.88470428106E-02  0.40697552258E-01 -0.27412292190E-02  0.41741303105E-01  0.51100000000E-03 0.  1.
         11    1    4    4    0    0 -0.22896605666E-01  0.67997185457E-01  0.59244754801E-01  0.93048771478E-01  0.51100000000E-03 0. -1.
</event>
<event>
 8    1  0.2837913E+004  0.1043930E+01  0.7957747E-01            NaN
         13   -1    0    0    0    0  0.00000000000E+00  0.00000000000E+00  0.74505805969E-08  0.10566000000E+00  0.10566000000E+00 0.  1.
     999900   -1    0    0    0    0 -0.00000000000E+00 -0.00000000000E+00 -0.74505805969E-08  0.93827000000E+00  0.93827000000E+00 0. -1.
     999902    2    1    2    0    0 -0.47937495227E-02  0.28626036230E-02 -0.14195999825E-01  0.10286754615E+01  0.10285623482E+01 0.  0.
     999903    2    3    3    0    0  0.10488856762E+00  0.18081397107E-01  0.73805031762E-01  0.13738089519E+00  0.45801518647E-01 0.  0.
         14    1    1    2    0    0  0.47937495227E-02 -0.28626036230E-02  0.14195999825E-01  0.15254538506E-01  0.00000000000E+00 0.  1.
     999901    1    3    3    0    0 -0.10968231714E+00 -0.15218793484E-01 -0.88001031587E-01  0.89129456631E+00  0.88000000000E+00 0.  1.
        -11    1    4    4    0    0  0.62707865764E-01 -0.32951769756E-02  0.62833822071E-01  0.88834030287E-01  0.51100000000E-03 0. -1.
         11    1    4    4    0    0  0.42180701856E-01  0.21376574082E-01  0.10971209691E-01  0.48546864900E-01  0.51100000000E-03 0.  1.
</event>
<event>
 8    1  0.2837913E+004  0.1043930E+01  0.7957747E-01            NaN
         13   -1    0    0    0    0  0.00000000000E+00  0.00000000000E+00  0.74505805969E-08  0.10566000000E+00  0.10566000000E+00 0.  1.
     999900   -1    0    0    0    0 -0.00000000000E+00 -0.00000000000E+00 -0.74505805969E-08  0.93827000000E+00  0.93827000000E+00 0. -1.
     999902    2    1    2    0    0 -0.53020671870E-02 -0.52186653611E-02 -0.11840820694E-01  0.10299460299E+01  0.10298510927E+01 0.  0.
     999903    2    3    3    0    0 -0.92702373864E-01  0.93200681217E-01  0.14363133337E-01  0.13977086255E+00  0.45271374172E-01 0.  0.
         14    1    1    2    0    0  0.53020671870E-02  0.52186653611E-02  0.11840820694E-01  0.13983970084E-01  0.00000000000E+00 0.  1.
     999901    1    3    3    0    0  0.87400306677E-01 -0.98419346578E-01 -0.26203954031E-01  0.89017516737E+00  0.88000000000E+00 0. -1.
        -11    1    4    4    0    0 -0.45028322957E-01  0.23720202955E-01 -0.10388048580E-01  0.51945842672E-01  0.51100000000E-03 0. -1.
         11    1    4    4    0    0 -0.47674050907E-01  0.69480478262E-01  0.24751181916E-01  0.87825019878E-01  0.51100000000E-03 0.  1.
</event>
<event>
 8    1  0.2837913E+004  0.1043930E+01  0.7957747E-01            NaN
         13   -1    0    0    0    0  0.00000000000E+00  0.00000000000E+00  0.74505805969E-08  0.10566000000E+00  0.10566000000E+00 0. -1.
     999900   -1    0    0    0    0 -0.00000000000E+00 -0.00000000000E+00 -0.74505805969E-08  0.93827000000E+00  0.93827000000E+00 0.  1.
     999902    2    1    2    0    0  0.63512700770E-02 -0.51261116242E-02 -0.10657147978E-01  0.10305064962E+01  0.10304190644E+01 0.  0.
     999903    2    3    3    0    0 -0.75960348996E-01 -0.10884290669E+00 -0.10058024847E-01  0.14060047014E+00  0.45283279316E-01 0.  0.
         14    1    1    2    0    0 -0.63512700770E-02  0.51261116242E-02  0.10657147978E-01  0.13423503827E-01  0.00000000000E+00 0. -1.
     999901    1    3    3    0    0  0.82311619073E-01  0.10371679506E+00 -0.59912313071E-03  0.88990602603E+00  0.88000000000E+00 0.  1.
        -11    1    4    4    0    0 -0.30453002407E-01 -0.54612096637E-01  0.17013966309E-01  0.64804341098E-01  0.51100000000E-03 0. -1.
         11    1    4    4    0    0 -0.45507346590E-01 -0.54230810049E-01 -0.27071991157E-01  0.75796129046E-01  0.51100000000E-03 0.  1.
</event>
<event>
 8    1  0.2837913E+004  0.1043930E+01  0.7957747E-01            NaN
         13   -1    0    0    0    0  0.00000000000E+00  0.00000000000E+00  0.74505805969E-08  0.10566000000E+00  0.10566000000E+00 0.  1.
     999900   -1    0    0    0    0 -0.00000000000E+00 -0.00000000000E+00 -0.74505805969E-08  0.93827000000E+00  0.93827000000E+00 0. -1.
     999902    2    1    2    0    0  0.43916209930E-02  0.13154010492E-01 -0.15913055266E-02  0.10299712543E+01  0.10298766616E+01 0.  0.
     999903    2    3    3    0    0 -0.93997180714E-01 -0.90595716496E-01  0.96732834632E-02  0.13835964994E+00  0.44796947305E-01 0.  0.
         14    1    1    2    0    0 -0.43916209930E-02 -0.13154010492E-01  0.15913055266E-02  0.13958745655E-01  0.00000000000E+00 0. -1.
     999901    1    3    3    0    0  0.98388801707E-01  0.10374972699E+00 -0.11264588990E-01  0.89161160441E+00  0.88000000000E+00 0.  1.
        -11    1    4    4    0    0 -0.34063444844E-01 -0.61601777971E-01  0.13468047802E-01  0.71671101264E-01  0.51100000000E-03 0.  1.
         11    1    4    4    0    0 -0.59933735870E-01 -0.28993938525E-01 -0.37947643392E-02  0.66688548672E-01  0.51100000000E-03 0. -1.
</event>
<event>
 8    1  0.2837913E+004  0.1043930E+01  0.7957747E-01            NaN
         13   -1    0    0    0    0  0.00000000000E+00  0.00000000000E+00  0.74505805969E-08  0.10566000000E+00  0.10566000000E+00 0. -1.
     999900   -1    0    0    0    0 -0.00000000000E+00 -0.00000000000E+00 -0.74505805969E-08  0.93827000000E+00  0.93827000000E+00 0. -1.
     999902    2    1    2    0    0 -0.11591473772E-01 -0.68997825352E-02  0.88918906007E-03  0.10304111272E+01  0.10303224404E+01 0.  0.
     999903    2    3    3    0    0  0.13087358829E+00 -0.40035779013E-02 -0.11479154564E-01  0.13886322734E+00  0.44802903585E-01 0.  0.
         14    1    1    2    0    0  0.11591473772E-01  0.68997825352E-02 -0.88918906007E-03  0.13518872750E-01  0.00000000000E+00 0.  1.
     999901    1    3    3    0    0 -0.14246506206E+00 -0.28962046339E-02  0.12368343624E-01  0.89154789991E+00  0.88000000000E+00 0.  1.
        -11    1    4    4    0    0  0.27202987802E-01  0.97120199493E-02  0.12654751633E-01  0.31539336339E-01  0.51100000000E-03 0.  1.
         11    1    4    4    0    0  0.10367060049E+00 -0.13715597851E-01 -0.24133906197E-01  0.10732389100E+00  0.51100000000E-03 0. -1.
</event>
<event>
 8    1  0.2837913E+004  0.1043930E+01  0.7957747E-01            NaN
         13   -1    0    0    0    0  0.00000000000E+00  0.00000000000E+00  0.74505805969E-08  0.10566000000E+00  0.10566000000E+00 0.  1.
     999900   -1    0    0    0    0 -0.00000000000E+00 -0.00000000000E+00 -0.74505805969E-08  0.93827000000E+00  0.93827000000E+00 0. -1.
     999902    2    1    2    0    0  0.89957538388E-03  0.16825426100E-01 -0.74141069546E-02  0.10255214916E+01  0.10253562584E+01 0.  0.
     999903    2    3    3    0    0  0.12379487916E+00  0.65850872312E-02  0.34670259779E-01  0.13592651964E+00  0.43651533166E-01 0.  0.
         14    1    1    2    0    0 -0.89957538388E-03 -0.16825426100E-01  0.74141069546E-02  0.18408508393E-01  0.00000000000E+00 0. -1.
     999901    1    3    3    0    0 -0.12289530378E+00  0.10240338869E-01 -0.42084366733E-01  0.88959497197E+00  0.88000000000E+00 0. -1.
        -11    1    4    4    0    0  0.14014745408E-01 -0.85952423837E-02 -0.65200532756E-02  0.17693600431E-01  0.51100000000E-03 0. -1.
         11    1    4    4    0    0  0.10978013375E+00  0.15180329615E-01  0.41190313054E-01  0.11823291921E+00  0.51100000000E-03 0.  1.
</event>
<event>
 8    1  0.2837913E+004  0.1043930E+01  0.7957747E-01            NaN
         13   -1    0    0    0    0  0.00000000000E+00  0.00000000000E+00  0.74505805969E-08  0.10566000000E+00  0.10566000000E+00 0.  1.
     999900   -1    0    0    0    0 -0.00000000000E+00 -0.00000000000E+00 -0.74505805969E-08  0.93827000000E+00  0.93827000000E+00 0. -1.
     999902    2    1    2    0    0  0.75322970044E-02  0.11220682205E-01 -0.17583510942E-02  0.10303016837E+01  0.10302115454E+01 0.  0.
     999903    2    3    3    0    0 -0.79230002782E-01 -0.24796035128E-01  0.10220707336E+00  0.13921599191E+00  0.45194799035E-01 0.  0.
         14    1    1    2    0    0 -0.75322970044E-02 -0.11220682205E-01  0.17583510942E-02  0.13628316326E-01  0.00000000000E+00 0. -1.
     999901    1    3    3    0    0  0.86762299786E-01  0.36016717333E-01 -0.10396542445E+00  0.89108569177E+00  0.88000000000E+00 0. -1.
        -11    1    4    4    0    0 -0.32469954515E-01  0.11369980819E-01  0.47637336757E-01  0.58763520864E-01  0.51100000000E-03 0. -1.
         11    1    4    4    0    0 -0.46760048267E-01 -0.36166015948E-01  0.54569736599E-01  0.80452471043E-01  0.51100000000E-03 0.  1.
</event>
<event>
 8    1  0.2837913E+004  0.1043930E+01  0.7957747E-01            NaN
         13   -1    0    0    0    0  0.00000000000E+00  0.00000000000E+00  0.74505805969E-08  0.10566000000E+00  0.10566000000E+00 0. -1.
     999900   -1    0    0    0    0 -0.00000000000E+00 -0.00000000000E+00 -0.74505805969E-08  0.93827000000E+00  0.93827000000E+00 0. -1.
     999902    2    1    2    0    0  0.26612124120E-02 -0.37047008086E-02  0.13451183586E-01  0.10297264371E+01  0.10296284738E+01 0.  0.
     999903    2    3    3    0    0 -0.79964093534E-01  0.89942569887E-01  0.55121346675E-01  0.13993255366E+00  0.45374382442E-01 0.  0.
         14    1    1    2    0    0 -0.26612124120E-02  0.37047008086E-02 -0.13451183586E-01  0.14203562913E-01  0.00000000000E+00 0.  1.
     999901    1    3    3    0    0  0.82625305946E-01 -0.93647270695E-01 -0.41670163090E-01  0.88979388343E+00  0.88000000000E+00 0. -1.
        -11    1    4    4    0    0 -0.60144508957E-01  0.39010463139E-01  0.18163748991E-01  0.73955128899E-01  0.51100000000E-03 0. -1.
         11    1    4    4    0    0 -0.19819584577E-01  0.50932106747E-01  0.36957597685E-01  0.65977424761E-01  0.51100000000E-03 0.  1.
</event>
<event>
 8    1  0.2837913E+004  0.1043930E+01  0.7957747E-01            NaN
         13   -1    0    0    0    0  0.00000000000E+00  0.00000000000E+00  0.74505805969E-08  0.10566000000E+00  0.10566000000E+00 0.  1.
     999900   -1    0    0    0    0 -0.00000000000E+00 -0.00000000000E+00 -0.74505805969E-08  0.93827000000E+00  0.93827000000E+00 0. -1.
     999902    2    1    2    0    0  0.46207958500E-02  0.11159262124E-01  0.56073802121E-02  0.10306137093E+01  0.10305276775E+01 0.  0.
     999903    2    3    3    0    0 -0.63921682404E-01  0.73471064911E-01 -0.90662010767E-01  0.14053021448E+00  0.45223468743E-01 0.  0.
         14    1    1    2    0    0 -0.46207958500E-02 -0.11159262124E-01 -0.56073802121E-02  0.13316290711E-01  0.00000000000E+00 0.  1.
     999901    1    3    3    0    0  0.68542478254E-01 -0.62311802786E-01  0.96269390980E-01  0.89008349481E+00  0.88000000000E+00 0.  1.
        -11    1    4    4    0    0 -0.56197741226E-01  0.32777644979E-01 -0.64036841164E-01  0.91288215431E-01  0.51100000000E-03 0.  1.
         11    1    4    4    0    0 -0.77239411785E-02  0.40693419931E-01 -0.26625169603E-01  0.49241999050E-01  0.51100000000E-03 0. -1.
</event>
<event>
 7    1  0.2837913E+004  0.1043930E+01  0.7957747E-01            NaN
         13   -1    0    0    0    0  0.00000000000E+00  0.00000000000E+00  0.74505805969E-08  0.10566000000E+00  0.10566000000E+00 0. -1.
     999900   -1    0    0    0    0 -0.00000000000E+00 -0.00000000000E+00 -0.74505805969E-08  0.93827000000E+00  0.93827000000E+00 0.  1.
     999902    2    1    2    0    0 -0.10138247859E-03  0.13917628164E-01  0.64426653444E-03  0.10299970990E+01  0.10299028586E+01 0.  0.
         14    1    1    2    0    0  0.10138247859E-03 -0.13917628164E-01 -0.64426653444E-03  0.13932901043E-01  0.00000000000E+00 0.  1.
     999901    1    3    3    0    0 -0.26653193113E-03  0.95622519746E-01 -0.10935520454E+00  0.89190935531E+00  0.88000000000E+00 0.  1.
        -11    1    3    3    0    0 -0.48751697699E-02 -0.67728876329E-01  0.96563796649E-01  0.11804997210E+00  0.51100000000E-03 0.  1.
         11    1    3    3    0    0  0.50403192225E-02 -0.13976015253E-01  0.13435674430E-01  0.20037771548E-01  0.51100000000E-03 0. -1.
</event>
<event>
 8    1  0.2837913E+004  0.1043930E+01  0.7957747E-01            NaN
         13   -1    0    0    0    0  0.00000000000E+00  0.00000000000E+00  0.74505805969E-08  0.10566000000E+00  0.10566000000E+00 0. -1.
     999900   -1    0    0    0    0 -0.00000000000E+00 -0.00000000000E+00 -0.74505805969E-08  0.93827000000E+00  0.93827000000E+00 0.  1.
     999902    2    1    2    0    0 -0.50805741487E-02  0.11266559516E-01 -0.68127401651E-02  0.10298175578E+01  0.10297208560E+01 0.  0.
     999903    2    3    3    0    0 -0.80551053178E-01 -0.10300668222E+00  0.83800356425E-02  0.13909594727E+00  0.46675569612E-01 0.  0.
         14    1    1    2    0    0  0.50805741487E-02 -0.11266559516E-01  0.68127401651E-02  0.14112442225E-01  0.00000000000E+00 0.  1.
     999901    1    3    3    0    0  0.75470479029E-01  0.11427324174E+00 -0.15192775808E-01  0.89072161050E+00  0.88000000000E+00 0.  1.
        -11    1    4    4    0    0 -0.46559695167E-01 -0.26991196379E-01  0.14076948401E-01  0.55630490680E-01  0.51100000000E-03 0. -1.
         11    1    4    4    0    0 -0.33991358011E-01 -0.76015485846E-01 -0.56969127587E-02  0.83465456591E-01  0.51100000000E-03 0.  1.
</event>
<event>
 8    1  0.2837913E+004  0.1043930E+01  0.7957747E-01            NaN
         13   -1    0    0    0    0  0.00000000000E+00  0.00000000000E+00  0.74505805969E-08  0.10566000000E+00  0.10566000000E+00 0. -1.
     999900   -1    0    0    0    0 -0.00000000000E+00 -0.00000000000E+00 -0.74505805969E-08  0.93827000000E+00  0.93827000000E+00 0.  1.
     999902    2    1    2    0    0 -0.60029939595E-02  0.57388767920E-02  0.11511407238E-01  0.10297355243E+01  0.10296376872E+01 0.  0.
     999903    2    3    3    0    0 -0.33012244768E-01  0.58252332658E-01  0.11604203481E+00  0.14158361458E+00  0.45793269250E-01 0.  0.
         14    1    1    2    0    0  0.60029939595E-02 -0.57388767920E-02 -0.11511407238E-01  0.14194475683E-01  0.00000000000E+00 0.  1.
     999901    1    3    3    0    0  0.27009250809E-01 -0.52513455866E-01 -0.10453062757E+00  0.88815190974E+00  0.88000000000E+00 0.  1.
        -11    1    4    4    0    0 -0.28645378888E-01  0.40258796442E-01  0.40754312964E-01  0.64050788979E-01  0.51100000000E-03 0.  1.
         11    1    4    4    0    0 -0.43668658801E-02  0.17993536216E-01  0.75287721847E-01  0.77532825597E-01  0.51100000000E-03 0. -1.
</event>
<event>
 8    1  0.2837913E+004  0.1043930E+01  0.7957747E-01            NaN
         13   -1    0    0    0    0  0.00000000000E+00  0.00000000000E+00  0.74505805969E-08  0.10566000000E+00  0.10566000000E+00 0. -1.
     999900   -1    0    0    0    0 -0.00000000000E+00 -0.00000000000E+00 -0.74505805969E-08  0.93827000000E+00  0.93827000000E+00 0. -1.
     999902    2    1    2    0    0 -0.10976260584E-01  0.33671584572E-02  0.37726779497E-02  0.10318449203E+01  0.10317741470E+01 0.  0.
     999903    2    3    3    0    0  0.10398075888E+00  0.69585597410E-01 -0.44799440279E-01  0.14057658324E+00  0.45832655627E-01 0.  0.
         14    1    1    2    0    0  0.10976260584E-01 -0.33671584572E-02 -0.37726779497E-02  0.12085079702E-01  0.00000000000E+00 0.  1.
     999901    1    3    3    0    0 -0.11495701946E+00 -0.66218438953E-01  0.48572118229E-01  0.89126833706E+00  0.88000000000E+00 0. -1.
        -11    1    4    4    0    0  0.57257444863E-01  0.54771401284E-01 -0.45850635949E-01  0.91547055271E-01  0.51100000000E-03 0.  1.
         11    1    4    4    0    0  0.46723314012E-01  0.14814196126E-01  0.10511956698E-02  0.49029527965E-01  0.51100000000E-03 0. -1.
</event>
<event>
 8    1  0.2837913E+004  0.1043930E+01  0.7957747E-01            NaN
         13   -1    0    0    0    0  0.00000000000E+00  0.00000000000E+00  0.74505805969E-08  0.10566000000E+00  0.10566000000E+00 0.  1.
     999900   -1    0    0    0    0 -0.00000000000E+00 -0.00000000000E+00 -0.74505805969E-08  0.93827000000E+00  0.93827000000E+00 0. -1.
     999902    2    1    2    0    0 -0.11850083093E-02 -0.11702654716E-01  0.89605690880E-02  0.10291432434E+01  0.10290370097E+01 0.  0.
     999903    2    3    3    0    0 -0.39571039064E-01  0.59295503565E-01  0.11043668873E+00  0.13964246843E+00  0.47137383211E-01 0.  0.
         14    1    1    2    0    0  0.11850083093E-02  0.11702654716E-01 -0.89605690880E-02  0.14786756590E-01  0.00000000000E+00 0.  1.
     999901    1    3    3    0    0  0.38386030755E-01 -0.70998158281E-01 -0.10147611964E+00  0.88950077498E+00  0.88000000000E+00 0.  1.
        -11    1    4    4    0    0 -0.86029709628E-03  0.30873920712E-01  0.18740682834E-01  0.36130505190E-01  0.51100000000E-03 0.  1.
         11    1    4    4    0    0 -0.38710741968E-01  0.28421582853E-01  0.91696005892E-01  0.10351196324E+00  0.51100000000E-03 0. -1.
</event>
<event>
 8    1  0.2837913E+004  0.1043930E+01  0.7957747E-01            NaN
         13   -1    0    0    0    0  0.00000000000E+00  0.00000000000E+00  0.74505805969E-08  0.10566000000E+00  0.10566000000E+00 0. -1.
     999900   -1    0    0    0    0 -0.00000000000E+00 -0.00000000000E+00 -0.74505805969E-08  0.93827000000E+00  0.93827000000E+00 0. -1.
     999902    2    1    2    0    0  0.62146826623E-02 -0.11230670330E-01 -0.50941736788E-02  0.10301205524E+01  0.10300279859E+01 0.  0.
     999903    2    3    3    0    0 -0.11731891389E+00  0.57471000420E-01 -0.17011066331E-01  0.13876064680E+00  0.43571748609E-01 0.  0.
         14    1    1    2    0    0 -0.62146826623E-02  0.11230670330E-01  0.50941736788E-02  0.13809447567E-01  0.00000000000E+00 0.  1.
     999901    1    3    3    0    0  0.12353359655E+00 -0.68701670749E-01  0.11916892652E-01  0.89135990563E+00  0.88000000000E+00 0. -1.
        -11    1    4    4    0    0 -0.62445469057E-01  0.47640515533E-01 -0.25031668426E-01  0.82437254146E-01  0.51100000000E-03 0. -1.
         11    1    4    4    0    0 -0.54873444833E-01  0.98304848866E-02  0.80206020948E-02  0.56323392653E-01  0.51100000000E-03 0.  1.
</event>
<event>
 8    1  0.2837913E+004  0.1043930E+01  0.7957747E-01            NaN
         13   -1    0    0    0    0  0.00000000000E+00  0.00000000000E+00  0.74505805969E-08  0.10566000000E+00  0.10566000000E+00 0.  1.
     999900   -1    0    0    0    0 -0.00000000000E+00 -0.00000000000E+00 -0.74505805969E-08  0.93827000000E+00  0.93827000000E+00 0. -1.
     999902    2    1    2    0    0  0.53321858968E-02 -0.43420174955E-02  0.12298980279E-01  0.10298392144E+01  0.10297428112E+01 0.  0.
     999903    2    3    3    0    0  0.36832350825E-01  0.89662123741E-01 -0.88420609424E-01  0.13856289660E+00  0.44559551630E-01 0.  0.
         14    1    1    2    0    0 -0.53321858968E-02  0.43420174955E-02 -0.12298980279E-01  0.14090785580E-01  0.00000000000E+00 0. -1.
     999901    1    3    3    0    0 -0.31500164928E-01 -0.94004141237E-01  0.10071958970E+00  0.89127631782E+00  0.88000000000E+00 0.  1.
        -11    1    4    4    0    0  0.17992170993E-01  0.82925691290E-01 -0.60526313561E-01  0.10423091790E+00  0.51100000000E-03 0.  1.
         11    1    4    4    0    0  0.18840179832E-01  0.67364324512E-02 -0.27894295863E-01  0.34331978693E-01  0.51100000000E-03 0. -1.
</event>
<event>
 8    1  0.2837913E+004  0.1043930E+01  0.7957747E-01            NaN
         13   -1    0    0    0    0  0.00000000000E+00  0.00000000000E+00  0.74505805969E-08  0.10566000000E+00  0.10566000000E+00 0. -1.
     999900   -1    0    0    0    0 -0.00000000000E+00 -0.00000000000E+00 -0.74505805969E-08  0.93827000000E+00  0.93827000000E+00 0.  1.
     999902    2    1    2    0    0 -0.35484091433E-02 -0.10121725717E-01 -0.14408788704E-01  0.10259674353E+01  0.10258101796E+01 0.  0.
     999903    2    3    3    0    0 -0.12482526116E+00 -0.19067029776E-01 -0.31181758593E-01  0.13744651499E+00  0.44433601761E-01 0.  0.
         14    1    1    2    0    0  0.35484091433E-02  0.10121725717E-01  0.14408788704E-01  0.17962564707E-01  0.00000000000E+00 0. -1.
     999901    1    3    3    0    0  0.12127685202E+00  0.89453040592E-02  0.16772969889E-01  0.88852092030E+00  0.88000000000E+00 0. -1.
        -11    1    4    4    0    0 -0.11639956389E+00 -0.24921273963E-01 -0.17470232183E-01  0.12031375027E+00  0.51100000000E-03 0.  1.
         11    1    4    4    0    0 -0.84256972687E-02  0.58542441871E-02 -0.13711526411E-01  0.17132764721E-01  0.51100000000E-03 0. -1.
</event>
<event>
 8    1  0.2837913E+004  0.1043930E+01  0.7957747E-01            NaN
         13   -1    0    0    0    0  0.00000000000E+00  0.00000000000E+00  0.74505805969E-08  0.10566000000E+00  0.10566000000E+00 0. -1.
     999900   -1    0    0    0    0 -0.00000000000E+00 -0.00000000000E+00 -0.74505805969E-08  0.93827000000E+00  0.93827000000E+00 0.  1.
     999902    2    1    2    0    0 -0.15366185602E-01 -0.63692344966E-02  0.88951691161E-03  0.10272723276E+01  0.10271372630E+01 0.  0.
     999903    2    3    3    0    0 -0.13111636929E+00  0.88280583099E-02 -0.10471076896E-01  0.13948962573E+00  0.45588105067E-01 0.  0.
         14    1    1    2    0    0  0.15366185602E-01  0.63692344966E-02 -0.88951691161E-03  0.16657672357E-01  0.00000000000E+00 0.  1.
     999901    1    3    3    0    0  0.11575018369E+00 -0.15197292806E-01  0.11360593808E-01  0.88778270192E+00  0.88000000000E+00 0.  1.
        -11    1    4    4    0    0 -0.10551315755E+00 -0.80713363956E-02 -0.19287989924E-01  0.10756607534E+00  0.51100000000E-03 0. -1.
         11    1    4    4    0    0 -0.25603211739E-01  0.16899394705E-01  0.88169130272E-02  0.31923550383E-01  0.51100000000E-03 0.  1.
</event>
<event>
 8    1  0.2837913E+004  0.1043930E+01  0.7957747E-01            NaN
         13   -1    0    0    0    0  0.00000000000E+00  0.00000000000E+00  0.74505805969E-08  0.10566000000E+00  0.10566000000E+00 0.  1.
     999900   -1    0    0    0    0 -0.00000000000E+00 -0.00000000000E+00 -0.74505805969E-08  0.93827000000E+00  0.93827000000E+00 0.  1.
     999902    2    1    2    0    0  0.15747661884E-01  0.33404801346E-02 -0.14406842009E-03  0.10278312914E+01  0.10277052083E+01 0.  0.
     999903    2    3    3    0    0 -0.25685630454E-01 -0.29831543052E-01 -0.12326385933E+00  0.13767648255E+00  0.47022997102E-01 0.  0.
         14    1    1    2    0    0 -0.15747661884E-01 -0.33404801346E-02  0.14406842009E-03  0.16098708584E-01  0.00000000000E+00 0. -1.
     999901    1    3    3    0    0  0.41433292338E-01  0.33172023187E-01  0.12311979091E+00  0.89015480887E+00  0.88000000000E+00 0. -1.
        -11    1    4    4    0    0 -0.30005903139E-01 -0.25210545386E-01 -0.47214782778E-01  0.61363039817E-01  0.51100000000E-03 0.  1.
         11    1    4    4    0    0  0.43202726851E-02 -0.46209976659E-02 -0.76049076555E-01  0.76313442731E-01  0.51100000000E-03 0. -1.
</event>
<event>
 8    1  0.2837913E+004  0.1043930E+01  0.7957747E-01            NaN
         13   -1    0    0    0    0  0.00000000000E+00  0.00000000000E+00  0.74505805969E-08  0.10566000000E+00  0.10566000000E+00 0. -1.
     999900   -1    0    0    0    0 -0.00000000000E+00 -0.00000000000E+00 -0.74505805969E-08  0.93827000000E+00  0.93827000000E+00 0.  1.
     999902    2    1    2    0    0  0.84581644897E-02 -0.12535567355E-01  0.13989142629E-02  0.10287432309E+01  0.10286311278E+01 0.  0.
     999903    2    3    3    0    0 -0.65634788592E-01  0.10997891642E+00 -0.19306293363E-01  0.13693144016E+00  0.44431957069E-01 0.  0.
         14    1    1    2    0    0 -0.84581644897E-02  0.12535567355E-01 -0.13989142629E-02  0.15186769128E-01  0.00000000000E+00 0.  1.
     999901    1    3    3    0    0  0.74092953082E-01 -0.12251448378E+00  0.20705207626E-01  0.89181179071E+00  0.88000000000E+00 0. -1.
        -11    1    4    4    0    0 -0.20442759540E-01  0.76393710465E-02 -0.11776659831E-01  0.24803573238E-01  0.51100000000E-03 0. -1.
         11    1    4    4    0    0 -0.45192029052E-01  0.10233954538E+00 -0.75296335319E-02  0.11212786692E+00  0.51100000000E-03 0.  1.
</event>
<event>
 8    1  0.2837913E+004  0.1043930E+01  0.7957747E-01            NaN
         13   -1    0    0    0    0  0.00000000000E+00  0.00000000000E+00  0.74505805969E-08  0.10566000000E+00  0.10566000000E+00 0. -1.
     999900   -1    0    0    0    0 -0.00000000000E+00 -0.00000000000E+00 -0.74505805969E-08  0.93827000000E+00  0.93827000000E+00 0. -1.
     999902    2    1    2    0    0 -0.70694226418E-02 -0.13843922124E-01 -0.19740705611E-02  0.10282606710E+01  0.10281412742E+01 0.  0.
     999903    2    3    3    0    0 -0.11168759952E+00 -0.28990398071E-02 -0.71644511688E-01  0.13926195125E+00  0.42171444035E-01 0.  0.
         14    1    1    2    0    0  0.70694226418E-02  0.13843922124E-01  0.19740705611E-02  0.15669328985E-01  0.00000000000E+00 0. -1.
     999901    1    3    3    0    0  0.10461817688E+00 -0.10944882317E-01  0.69670441127E-01  0.88899871977E+00  0.88000000000E+00 0.  1.
        -11    1    4    4    0    0 -0.60615076106E-01  0.18509141734E-01 -0.30920782886E-01  0.70520434729E-01  0.51100000000E-03 0.  1.
         11    1    4    4    0    0 -0.51072523413E-01 -0.21408181541E-01 -0.40723728803E-01  0.68741516518E-01  0.51100000000E-03 0. -1.
</event>
<event>
 7    1  0.2837913E+004  0.1043930E+01  0.7957747E-01            NaN
         13   -1    0    0    0    0  0.00000000000E+00  0.00000000000E+00  0.74505805969E-08  0.10566000000E+00  0.10566000000E+00 0.  1.
     999900   -1    0    0    0    0 -0.00000000000E+00 -0.00000000000E+00 -0.74505805969E-08  0.93827000000E+00  0.93827000000E+00 0.  1.
     999903    2    1    2    0    0  0.19526522880E-02  0.11507967672E+00 -0.14550738653E-01  0.12524595665E+00  0.47198313706E-01 0.  0.
         14    1    1    2    0    0  0.24466741433E-01  0.79291030593E-02 -0.13988963602E-01  0.29277691411E-01  0.00000000000E+00 0. -1.
     999901    1    1    2    0    0 -0.26419393721E-01 -0.12300877978E+00  0.28539702255E-01  0.88940635194E+00  0.88000000000E+00 0. -1.
        -11    1    3    3    0    0  0.10008516639E-01  0.79613277671E-02 -0.12372983314E-01  0.17801825250E-01  0.51100000000E-03 0. -1.
         11    1    3    3    0    0 -0.80558643514E-02  0.10711834895E+00 -0.21777553390E-02  0.10744413140E+00  0.51100000000E-03 0.  1.
</event>
<event>
 8    1  0.2837913E+004  0.1043930E+01  0.7957747E-01            NaN
         13   -1    0    0    0    0  0.00000000000E+00  0.00000000000E+00  0.74505805969E-08  0.10566000000E+00  0.10566000000E+00 0.  1.
     999900   -1    0    0    0    0 -0.00000000000E+00 -0.00000000000E+00 -0.74505805969E-08  0.93827000000E+00  0.93827000000E+00 0.  1.
     999902    2    1    2    0    0 -0.80029877750E-02 -0.17607680298E-02 -0.10263790714E-01  0.10307963213E+01  0.10307126478E+01 0.  0.
     999903    2    3    3    0    0  0.15977179179E-01  0.11621886762E+00 -0.63997143995E-01  0.14097526280E+00  0.44903171773E-01 0.  0.
         14    1    1    2    0    0  0.80029877750E-02  0.17607680298E-02  0.10263790714E-01  0.13133678739E-01  0.00000000000E+00 0.  1.
     999901    1    3    3    0    0 -0.23980166954E-01 -0.11797963565E+00  0.53733353281E-01  0.88982105847E+00  0.88000000000E+00 0. -1.
        -11    1    4    4    0    0 -0.13696307327E-01  0.17635799809E-01 -0.15390205196E-01  0.27124339738E-01  0.51100000000E-03 0.  1.
         11    1    4    4    0    0  0.29673486505E-01  0.98583067811E-01 -0.48606938800E-01  0.11385092306E+00  0.51100000000E-03 0. -1.
</event>
<event>
 8    1  0.2837913E+004  0.1043930E+01  0.7957747E-01            NaN
         13   -1    0    0    0    0  0.00000000000E+00  0.00000000000E+00  0.74505805969E-08  0.10566000000E+00  0.10566000000E+00 0. -1.
     999900   -1    0    0    0    0 -0.00000000000E+00 -0.00000000000E+00 -0.74505805969E-08  0.93827000000E+00  0.93827000000E+00 0.  1.
     999902    2    1    2    0    0 -0.28291741117E-03 -0.72303530780E-02 -0.19630633482E-01  0.10230082453E+01  0.10227942854E+01 0.  0.
     999903    2    3    3    0    0  0.10329693062E+00  0.54143604231E-01 -0.51860995142E-01  0.13422573887E+00  0.41535531831E-01 0.  0.
         14    1    1    2    0    0  0.28291741117E-03  0.72303530780E-02  0.19630633482E-01  0.20921754678E-01  0.00000000000E+00 0. -1.
     999901    1    3    3    0    0 -0.10357984803E+00 -0.61373957309E-01  0.32230361660E-01  0.88878250645E+00  0.88000000000E+00 0. -1.
        -11    1    4    4    0    0  0.32261110538E-01  0.13716318203E-01 -0.37322991616E-01  0.51207259859E-01  0.51100000000E-03 0.  1.
         11    1    4    4    0    0  0.71035820083E-01  0.40427286028E-01 -0.14538003527E-01  0.83018479015E-01  0.51100000000E-03 0. -1.
</event>
<event>
 8    1  0.2837913E+004  0.1043930E+01  0.7957747E-01            NaN
         13   -1    0    0    0    0  0.00000000000E+00  0.00000000000E+00  0.74505805969E-08  0.10566000000E+00  0.10566000000E+00 0. -1.
     999900   -1    0    0    0    0 -0.00000000000E+00 -0.00000000000E+00 -0.74505805969E-08  0.93827000000E+00  0.93827000000E+00 0.  1.
     999902    2    1    2    0    0  0.13733780455E-01 -0.13785298585E-01  0.67083265310E-02  0.10233471715E+01  0.10231401569E+01 0.  0.
     999903    2    3    3    0    0 -0.11060727418E+00  0.25929694959E-01 -0.42865070708E-01  0.13233903449E+00  0.52629721448E-01 0.  0.
         14    1    1    2    0    0 -0.13733780455E-01  0.13785298585E-01 -0.67083265310E-02  0.20582828462E-01  0.00000000000E+00 0.  1.
     999901    1    3    3    0    0  0.12434105463E+00 -0.39714993543E-01  0.49573397239E-01  0.89100813705E+00  0.88000000000E+00 0.  1.
        -11    1    4    4    0    0 -0.63314041311E-01  0.34368166503E-01 -0.43753362148E-01  0.84287938142E-01  0.51100000000E-03 0. -1.
         11    1    4    4    0    0 -0.47293232868E-01 -0.84384715443E-02  0.88829144047E-03  0.48051096343E-01  0.51100000000E-03 0.  1.
</event>
<event>
 8    1  0.2837913E+004  0.1043930E+01  0.7957747E-01            NaN
         13   -1    0    0    0    0  0.00000000000E+00  0.00000000000E+00  0.74505805969E-08  0.10566000000E+00  0.10566000000E+00 0. -1.
     999900   -1    0    0    0    0 -0.00000000000E+00 -0.00000000000E+00 -0.74505805969E-08  0.93827000000E+00  0.93827000000E+00 0.  1.
     999902    2    1    2    0    0  0.54763883377E-02 -0.54860789110E-02  0.11303244667E-01  0.10302241169E+01  0.10301329428E+01 0.  0.
     999903    2    3    3    0    0  0.39287819495E-01  0.62562263282E-01  0.11164135196E+00  0.14126881685E+00  0.45116710853E-01 0.  0.
         14    1    1    2    0    0 -0.54763883377E-02  0.54860789110E-02 -0.11303244667E-01  0.13705883081E-01  0.00000000000E+00 0.  1.
     999901    1    3    3    0    0 -0.33811431157E-01 -0.68048342193E-01 -0.10033810729E+00  0.88895530007E+00  0.88000000000E+00 0.  1.
        -11    1    4    4    0    0  0.23520996975E-02  0.33731527852E-01  0.73293816058E-01  0.80719222850E-01  0.51100000000E-03 0. -1.
         11    1    4    4    0    0  0.36935719797E-01  0.28830735430E-01  0.38347535902E-01  0.60549593996E-01  0.51100000000E-03 0.  1.
</event>
<event>
 8    1  0.2837913E+004  0.1043930E+01  0.7957747E-01            NaN
         13   -1    0    0    0    0  0.00000000000E+00  0.00000000000E+00  0.74505805969E-08  0.10566000000E+00  0.10566000000E+00 0. -1.
     999900   -1    0    0    0    0 -0.00000000000E+00 -0.00000000000E+00 -0.74505805969E-08  0.93827000000E+00  0.93827000000E+00 0. -1.
     999902    2    1    2    0    0 -0.23521913743E-02  0.26722892153E-02  0.13402015356E-01  0.10300632069E+01  0.10299698648E+01 0.  0.
     999903    2    3    3    0    0  0.67399858293E-01 -0.99982810601E-01 -0.52401133616E-01  0.13892153899E+00  0.44877743690E-01 0.  0.
         14    1    1    2    0    0  0.23521913743E-02 -0.26722892153E-02 -0.13402015356E-01  0.13866793050E-01  0.00000000000E+00 0.  1.
     999901    1    3    3    0    0 -0.69752049667E-01  0.10265509982E+00  0.65803148972E-01  0.89114166796E+00  0.88000000000E+00 0.  1.
        -11    1    4    4    0    0  0.76839857501E-02 -0.41548807063E-01 -0.42025980751E-02  0.42464926197E-01  0.51100000000E-03 0. -1.
         11    1    4    4    0    0  0.59715872543E-01 -0.58434003539E-01 -0.48198535541E-01  0.96456612797E-01  0.51100000000E-03 0.  1.
</event>
<event>
 8    1  0.2837913E+004  0.1043930E+01  0.7957747E-01            NaN
         13   -1    0    0    0    0  0.00000000000E+00  0.00000000000E+00  0.74505805969E-08  0.10566000000E+00  0.10566000000E+00 0. -1.
     999900   -1    0    0    0    0 -0.00000000000E+00 -0.00000000000E+00 -0.74505805969E-08  0.93827000000E+00  0.93827000000E+00 0.  1.
     999902    2    1    2    0    0 -0.92584452438E-02  0.15923955452E-02 -0.96459277987E-02  0.10304652885E+01  0.10303773156E+01 0.  0.
     999903    2    3    3    0    0  0.29358306400E-01  0.23037291594E-01  0.12611762802E+00  0.13895932660E+00  0.44848761310E-01 0.  0.
         14    1    1    2    0    0  0.92584452438E-02 -0.15923955452E-02  0.96459277987E-02  0.13464711471E-01  0.00000000000E+00 0. -1.
     999901    1    3    3    0    0 -0.38616751644E-01 -0.21444896049E-01 -0.13576355582E+00  0.89150596193E+00  0.88000000000E+00 0.  1.
        -11    1    4    4    0    0  0.33958188833E-01  0.13062215466E-01  0.48847994770E-01  0.60911146564E-01  0.51100000000E-03 0.  1.
         11    1    4    4    0    0 -0.45998824329E-02  0.99750761277E-02  0.77269633252E-01  0.78048180031E-01  0.51100000000E-03 0. -1.
</event>
<event>
 7    1  0.2837913E+004  0.1043930E+01  0.7957747E-01            NaN
         13   -1    0    0    0    0  0.00000000000E+00  0.00000000000E+00  0.74505805969E-08  0.10566000000E+00  0.10566000000E+00 0.  1.
     999900   -1    0    0    0    0 -0.00000000000E+00 -0.00000000000E+00 -0.74505805969E-08  0.93827000000E+00  0.93827000000E+00 0.  1.
     999902    2    1    2    0    0  0.13229979167E-01 -0.25121298836E-02 -0.43926747987E-02  0.10297652996E+01  0.10296678754E+01 0.  0.
         14    1    1    2    0    0 -0.13229979167E-01  0.25121298836E-02  0.43926747987E-02  0.14164700392E-01  0.00000000000E+00 0.  1.
     999901    1    3    3    0    0  0.10200436079E+00  0.67833886779E-01 -0.53429458299E-01  0.89009046328E+00  0.88000000000E+00 0. -1.
        -11    1    3    3    0    0 -0.68798617798E-01 -0.26478745262E-01  0.53759643984E-01  0.91239981390E-01  0.51100000000E-03 0. -1.
         11    1    3    3    0    0 -0.19975763823E-01 -0.43867271400E-01 -0.47228604845E-02  0.48434854934E-01  0.51100000000E-03 0.  1.
</event>
<event>
 8    1  0.2837913E+004  0.1043930E+01  0.7957747E-01            NaN
         13   -1    0    0    0    0  0.00000000000E+00  0.00000000000E+00  0.74505805969E-08  0.10566000000E+00  0.10566000000E+00 0. -1.
     999900   -1    0    0    0    0 -0.00000000000E+00 -0.00000000000E+00 -0.74505805969E-08  0.93827000000E+00  0.93827000000E+00 0. -1.
     999902    2    1    2    0    0  0.94560093330E-02  0.83184093785E-02 -0.46914423643E-02  0.10304904435E+01  0.10304028011E+01 0.  0.
     999903    2    3    3    0    0  0.10662358969E-02  0.12323469318E-02 -0.13372095990E+00  0.14101350903E+00  0.44730963267E-01 0.  0.
         14    1    1    2    0    0 -0.94560093330E-02 -0.83184093785E-02  0.46914423643E-02  0.13439556486E-01  0.00000000000E+00 0. -1.
     999901    1    3    3    0    0  0.83897734360E-02  0.70860624467E-02  0.12902951754E+00  0.88947693448E+00  0.88000000000E+00 0.  1.
        -11    1    4    4    0    0  0.57976739540E-02  0.18375623853E-01 -0.29194240839E-01  0.34983444576E-01  0.51100000000E-03 0. -1.
         11    1    4    4    0    0 -0.47314380570E-02 -0.17143276921E-01 -0.10452671906E+00  0.10603006446E+00  0.51100000000E-03 0.  1.
</event>
<event>
 8    1  0.2837913E+004  0.1043930E+01  0.7957747E-01            NaN
         13   -1    0    0    0    0  0.00000000000E+00  0.00000000000E+00  0.74505805969E-08  0.10566000000E+00  0.10566000000E+00 0. -1.
     999900   -1    0    0    0    0 -0.00000000000E+00 -0.00000000000E+00 -0.74505805969E-08  0.93827000000E+00  0.93827000000E+00 0.  1.
     999902    2    1    2    0    0  0.12671145356E-01 -0.71478863506E-02 -0.56210997427E-02  0.10283336233E+01  0.10282153441E+01 0.  0.
     999903    2    3    3    0    0 -0.43653169227E-01  0.12068724383E+00  0.15806275377E-01  0.13705735786E+00  0.45429846990E-01 0.  0.
         14    1    1    2    0    0 -0.12671145356E-01  0.71478863506E-02  0.56210997427E-02  0.15596376702E-01  0.00000000000E+00 0. -1.
     999901    1    3    3    0    0  0.56324314583E-01 -0.12783513018E+00 -0.21427375119E-01  0.89127626543E+00  0.88000000000E+00 0. -1.
        -11    1    4    4    0    0 -0.39697250635E-01  0.61301874016E-01 -0.68872645892E-02  0.73358619128E-01  0.51100000000E-03 0. -1.
         11    1    4    4    0    0 -0.39559185916E-02  0.59385369810E-01  0.22693539966E-01  0.63698738736E-01  0.51100000000E-03 0.  1.
</event>
<event>
 8    1  0.2837913E+004  0.1043930E+01  0.7957747E-01            NaN
         13   -1    0    0    0    0  0.00000000000E+00  0.00000000000E+00  0.74505805969E-08  0.10566000000E+00  0.10566000000E+00 0. -1.
     999900   -1    0    0    0    0 -0.00000000000E+00 -0.00000000000E+00 -0.74505805969E-08  0.93827000000E+00  0.93827000000E+00 0. -1.
     999902    2    1    2    0    0 -0.73342225470E-02 -0.62774510749E-02 -0.92638955089E-02  0.10305502776E+01  0.10304634189E+01 0.  0.
     999903    2    3    3    0    0  0.41766335426E-01 -0.27929372871E-01  0.12191809248E+00  0.13920949847E+00  0.44618231097E-01 0.  0.
         14    1    1    2    0    0  0.73342225470E-02  0.62774510749E-02  0.92638955089E-02  0.13379722432E-01  0.00000000000E+00 0.  1.
     999901    1    3    3    0    0 -0.49100557973E-01  0.21651921796E-01 -0.13118198799E+00  0.89134077910E+00  0.88000000000E+00 0. -1.
        -11    1    4    4    0    0  0.27711957392E-02 -0.12266795584E-01  0.75707388682E-01  0.76746489312E-01  0.51100000000E-03 0.  1.
         11    1    4    4    0    0  0.38995139687E-01 -0.15662577287E-01  0.46210703798E-01  0.62463009157E-01  0.51100000000E-03 0. -1.
</event>
<event>
 8    1  0.2837913E+004  0.1043930E+01  0.7957747E-01            NaN
         13   -1    0    0    0    0  0.00000000000E+00  0.00000000000E+00  0.74505805969E-08  0.10566000000E+00  0.10566000000E+00 0.  1.
     999900   -1    0    0    0    0 -0.00000000000E+00 -0.00000000000E+00 -0.74505805969E-08  0.93827000000E+00  0.93827000000E+00 0.  1.
     999902    2    1    2    0    0 -0.57656535367E-02 -0.38237939357E-02  0.11599686942E-01  0.10304238200E+01  0.10303353007E+01 0.  0.
     999903    2    3    3    0    0  0.59551965888E-01  0.95070908535E-01 -0.73844712567E-01  0.13837712897E+00  0.33320773664E-01 0.  0.
         14    1    1    2    0    0  0.57656535367E-02  0.38237939357E-02 -0.11599686942E-01  0.13506179990E-01  0.00000000000E+00 0. -1.
     999901    1    3    3    0    0 -0.65317619425E-01 -0.98894702471E-01  0.85444399509E-01  0.89204669104E+00  0.88000000000E+00 0.  1.
        -11    1    4    4    0    0  0.57331245741E-01  0.66974776440E-01 -0.62106686447E-01  0.10784245008E+00  0.51100000000E-03 0.  1.
         11    1    4    4    0    0  0.22207201476E-02  0.28096132095E-01 -0.11738026120E-01  0.30534678889E-01  0.51100000000E-03 0. -1.
</event>
<event>
 8    1  0.2837913E+004  0.1043930E+01  0.7957747E-01            NaN
         13   -1    0    0    0    0  0.00000000000E+00  0.00000000000E+00  0.74505805969E-08  0.10566000000E+00  0.10566000000E+00 0. -1.
     999900   -1    0    0    0    0 -0.00000000000E+00 -0.00000000000E+00 -0.74505805969E-08  0.93827000000E+00  0.93827000000E+00 0. -1.
     999902    2    1    2    0    0 -0.59453382470E-02  0.63109752606E-02  0.10288910066E-01  0.10304749962E+01  0.10303871509E+01 0.  0.
     999903    2    3    3    0    0  0.12199692191E+00  0.36583779878E-01 -0.34866573219E-01  0.13956272094E+00  0.45171376350E-01 0.  0.
         14    1    1    2    0    0  0.59453382470E-02 -0.63109752606E-02 -0.10288910066E-01  0.13455003751E-01  0.00000000000E+00 0.  1.
     999901    1    3    3    0    0 -0.12794226016E+00 -0.30272804618E-01  0.45155483285E-01  0.89091227531E+00  0.88000000000E+00 0.  1.
        -11    1    4    4    0    0  0.35034450780E-01  0.14678058197E-01  0.10003613708E-01  0.39283476706E-01  0.51100000000E-03 0. -1.
         11    1    4    4    0    0  0.86962471129E-01  0.21905721681E-01 -0.44870186928E-01  0.10027924423E+00  0.51100000000E-03 0.  1.
</event>
<event>
 8    1  0.2837913E+004  0.1043930E+01  0.7957747E-01            NaN
         13   -1    0    0    0    0  0.00000000000E+00  0.00000000000E+00  0.74505805969E-08  0.10566000000E+00  0.10566000000E+00 0.  1.
     999900   -1    0    0    0    0 -0.00000000000E+00 -0.00000000000E+00 -0.74505805969E-08  0.93827000000E+00  0.93827000000E+00 0.  1.
     999902    2    1    2    0    0 -0.10097992546E-01  0.97212525243E-02  0.14135323236E-02  0.10298420520E+01  0.10297456880E+01 0.  0.
     999903    2    3    3    0    0 -0.11944130500E-01 -0.12951076380E+00 -0.16868655026E-01  0.13870614716E+00  0.45156877024E-01 0.  0.
         14    1    1    2    0    0  0.10097992546E-01 -0.97212525243E-02 -0.14135323236E-02  0.14087947960E-01  0.00000000000E+00 0. -1.
     999901    1    3    3    0    0  0.18461379539E-02  0.13923201633E+00  0.18282187349E-01  0.89113590488E+00  0.88000000000E+00 0. -1.
        -11    1    4    4    0    0 -0.13796532135E-01 -0.92398758830E-01 -0.31754878159E-01  0.98673746965E-01  0.51100000000E-03 0.  1.
         11    1    4    4    0    0  0.18524016353E-02 -0.37112004974E-01  0.14886223134E-01  0.40032400193E-01  0.51100000000E-03 0. -1.
</event>
<event>
 8    1  0.2837913E+004  0.1043930E+01  0.7957747E-01            NaN
         13   -1    0    0    0    0  0.00000000000E+00  0.00000000000E+00  0.74505805969E-08  0.10566000000E+00  0.10566000000E+00 0.  1.
     999900   -1    0    0    0    0 -0.00000000000E+00 -0.00000000000E+00 -0.74505805969E-08  0.93827000000E+00  0.93827000000E+00 0.  1.
     999902    2    1    2    0    0  0.13653853604E-01  0.10432937233E-02  0.44382483793E-02  0.10295350624E+01  0.10294344226E+01 0.  0.
     999903    2    3    3    0    0 -0.91031941656E-01 -0.83913329066E-01 -0.42305156092E-01  0.13804098538E+00  0.44015068065E-01 0.  0.
         14    1    1    2    0    0 -0.13653853604E-01 -0.10432937233E-02 -0.44382483793E-02  0.14394937607E-01  0.00000000000E+00 0.  1.
     999901    1    3    3    0    0  0.10468579526E+00  0.84956622789E-01  0.46743404471E-01  0.89149407701E+00  0.88000000000E+00 0. -1.
        -11    1    4    4    0    0 -0.67594716223E-01 -0.36142679155E-01 -0.35226724196E-01  0.84359481603E-01  0.51100000000E-03 0.  1.
         11    1    4    4    0    0 -0.23437225433E-01 -0.47770649910E-01 -0.70784318958E-02  0.53681503779E-01  0.51100000000E-03 0. -1.
</event>
<event>
 8    1  0.2837913E+004  0.1043930E+01  0.7957747E-01            NaN
         13   -1    0    0    0    0  0.00000000000E+00  0.00000000000E+00  0.74505805969E-08  0.10566000000E+00  0.10566000000E+00 0.  1.
     999900   -1    0    0    0    0 -0.00000000000E+00 -0.00000000000E+00 -0.74505805969E-08  0.93827000000E+00  0.93827000000E+00 0. -1.
     999902    2    1    2    0    0  0.36465058299E-02  0.13558033401E-01 -0.14879409864E-02  0.10298115283E+01  0.10297147433E+01 0.  0.
     999903    2    3    3    0    0  0.47764068068E-01 -0.10129169062E-01  0.12299167345E+00  0.13964153484E+00  0.44595966773E-01 0.  0.
         14    1    1    2    0    0 -0.36465058299E-02 -0.13558033401E-01  0.14879409864E-02  0.14118471689E-01  0.00000000000E+00 0. -1.
     999901    1    3    3    0    0 -0.44117562239E-01  0.23687202462E-01 -0.12447961443E+00  0.89016999347E+00  0.88000000000E+00 0. -1.
        -11    1    4    4    0    0  0.50492188315E-02  0.15322132641E-01  0.35728955442E-01  0.39205634001E-01  0.51100000000E-03 0.  1.
         11    1    4    4    0    0  0.42714849237E-01 -0.25451301703E-01  0.87262718004E-01  0.10043590084E+00  0.51100000000E-03 0. -1.
</event>
<event>
 8    1  0.2837913E+004  0.1043930E+01  0.7957747E-01            NaN
         13   -1    0    0    0    0  0.00000000000E+00  0.00000000000E+00  0.74505805969E-08  0.10566000000E+00  0.10566000000E+00 0.  1.
     999900   -1    0    0    0    0 -0.00000000000E+00 -0.00000000000E+00 -0.74505805969E-08  0.93827000000E+00  0.93827000000E+00 0.  1.
     999902    2    1    2    0    0  0.10142364734E-01 -0.12102205775E-02  0.11739406011E-01  0.10283689637E+01  0.10282512240E+01 0.  0.
     999903    2    3    3    0    0 -0.20545642483E-01 -0.33998669025E-01  0.12617747346E+00  0.13982357523E+00  0.45297289787E-01 0.  0.
         14    1    1    2    0    0 -0.10142364734E-01  0.12102205775E-02 -0.11739406011E-01  0.15561036268E-01  0.00000000000E+00 0. -1.
     999901    1    3    3    0    0  0.30688007216E-01  0.32788448447E-01 -0.11443806745E+00  0.88854538850E+00  0.88000000000E+00 0.  1.
        -11    1    4    4    0    0  0.10959809336E-01 -0.31944646494E-02  0.54493673074E-01  0.55678932742E-01  0.51100000000E-03 0.  1.
         11    1    4    4    0    0 -0.31505451819E-01 -0.30804204375E-01  0.71683800386E-01  0.84144642493E-01  0.51100000000E-03 0. -1.
</event>
<event>
 8    1  0.2837913E+004  0.1043930E+01  0.7957747E-01            NaN
         13   -1    0    0    0    0  0.00000000000E+00  0.00000000000E+00  0.74505805969E-08  0.10566000000E+00  0.10566000000E+00 0. -1.
     999900   -1    0    0    0    0 -0.00000000000E+00 -0.00000000000E+00 -0.74505805969E-08  0.93827000000E+00  0.93827000000E+00 0. -1.
     999902    2    1    2    0    0 -0.41865142039E-02 -0.62190985612E-02 -0.11632718874E-01  0.10300907718E+01  0.10299978029E+01 0.  0.
     999903    2    3    3    0    0 -0.73237703577E-01 -0.56663199580E-02 -0.11186134307E+00  0.14171351557E+00  0.46625014915E-01 0.  0.
         14    1    1    2    0    0  0.41865142039E-02  0.62190985612E-02  0.11632718874E-01  0.13839228176E-01  0.00000000000E+00 0.  1.
     999901    1    3    3    0    0  0.69051189373E-01 -0.55277860311E-03  0.10022862419E+00  0.88837725625E+00  0.88000000000E+00 0.  1.
        -11    1    4    4    0    0 -0.37320607398E-01  0.94332545818E-02 -0.23402021628E-01  0.45052522303E-01  0.51100000000E-03 0. -1.
         11    1    4    4    0    0 -0.35917096178E-01 -0.15099574540E-01 -0.88459321441E-01  0.96660993270E-01  0.51100000000E-03 0.  1.
</event>
<event>
 8    1  0.2837913E+004  0.1043930E+01  0.7957747E-01            NaN
         13   -1    0    0    0    0  0.00000000000E+00  0.00000000000E+00  0.74505805969E-08  0.10566000000E+00  0.10566000000E+00 0.  1.
     999900   -1    0    0    0    0 -0.00000000000E+00 -0.00000000000E+00 -0.74505805969E-08  0.93827000000E+00  0.93827000000E+00 0. -1.
     999902    2    1    2    0    0 -0.83287902379E-02  0.10149728042E-01 -0.45595156239E-02  0.10300312623E+01  0.10299374867E+01 0.  0.
     999903    2    3    3    0    0  0.11885651041E+00  0.64251921283E-01  0.14207181432E-02  0.13922325203E+00  0.33554671975E-01 0.  0.
         14    1    1    2    0    0  0.83287902379E-02 -0.10149728042E-01  0.45595156239E-02  0.13898737672E-01  0.00000000000E+00 0. -1.
     999901    1    3    3    0    0 -0.12718530064E+00 -0.54102193241E-01 -0.59802337671E-02  0.89080801030E+00  0.88000000000E+00 0.  1.
        -11    1    4    4    0    0  0.26561691899E-02  0.72801224454E-02 -0.56653432639E-02  0.96131499980E-02  0.51100000000E-03 0.  1.
         11    1    4    4    0    0  0.11620034122E+00  0.56971798838E-01  0.70860614071E-02  0.12961010203E+00  0.51100000000E-03 0. -1.
</event>
<event>
 8    1  0.2837913E+004  0.1043930E+01  0.7957747E-01            NaN
         13   -1    0    0    0    0  0.00000000000E+00  0.00000000000E+00  0.74505805969E-08  0.10566000000E+00  0.10566000000E+00 0. -1.
     999900   -1    0    0    0    0 -0.00000000000E+00 -0.00000000000E+00 -0.74505805969E-08  0.93827000000E+00  0.93827000000E+00 0.  1.
     999902    2    1    2    0    0  0.29557742875E-02  0.13407996801E-01 -0.33419986036E-03  0.10301960032E+01  0.10301044521E+01 0.  0.
     999903    2    3    3    0    0 -0.82951875669E-01  0.10303478818E+00 -0.21408716138E-01  0.14123187492E+00  0.44619817497E-01 0.  0.
         14    1    1    2    0    0 -0.29557742875E-02 -0.13407996801E-01  0.33419986036E-03  0.13733996847E-01  0.00000000000E+00 0. -1.
     999901    1    3    3    0    0  0.85907649957E-01 -0.89626791379E-01  0.21074516278E-01  0.88896412824E+00  0.88000000000E+00 0. -1.
        -11    1    4    4    0    0 -0.44741141193E-01  0.73827724932E-01 -0.31846097222E-01  0.92014877673E-01  0.51100000000E-03 0.  1.
         11    1    4    4    0    0 -0.38210734477E-01  0.29207063248E-01  0.10437381084E-01  0.49216997244E-01  0.51100000000E-03 0. -1.
</event>
<event>
 8    1  0.2837913E+004  0.1043930E+01  0.7957747E-01            NaN
         13   -1    0    0    0    0  0.00000000000E+00  0.00000000000E+00  0.74505805969E-08  0.10566000000E+00  0.10566000000E+00 0.  1.
     999900   -1    0    0    0    0 -0.00000000000E+00 -0.00000000000E+00 -0.74505805969E-08  0.93827000000E+00  0.93827000000E+00 0.  1.
     999902    2    1    2    0    0 -0.13630236390E-01  0.12269782591E-02  0.23813748286E-02  0.10300390041E+01  0.10299453336E+01 0.  0.
     999903    2    3    3    0    0 -0.32475504566E-01 -0.12802464899E+00 -0.13302657167E-01  0.14025975279E+00  0.45286514789E-01 0.  0.
         14    1    1    2    0    0  0.13630236390E-01 -0.12269782591E-02 -0.23813748286E-02  0.13890995853E-01  0.00000000000E+00 0. -1.
     999901    1    3    3    0    0  0.18845268175E-01  0.12925162724E+00  0.15684031995E-01  0.88977925135E+00  0.88000000000E+00 0. -1.
        -11    1    4    4    0    0 -0.83893554361E-02 -0.52231098277E-01  0.16364555982E-01  0.55376246942E-01  0.51100000000E-03 0. -1.
         11    1    4    4    0    0 -0.24086149130E-01 -0.75793550708E-01 -0.29667213149E-01  0.84883505853E-01  0.51100000000E-03 0.  1.
</event>
<event>
 8    1  0.2837913E+004  0.1043930E+01  0.7957747E-01            NaN
         13   -1    0    0    0    0  0.00000000000E+00  0.00000000000E+00  0.74505805969E-08  0.10566000000E+00  0.10566000000E+00 0.  1.
     999900   -1    0    0    0    0 -0.00000000000E+00 -0.00000000000E+00 -0.74505805969E-08  0.93827000000E+00  0.93827000000E+00 0. -1.
     999902    2    1    2    0    0 -0.26664011559E-02 -0.13764927873E-01  0.24232578528E-02  0.10297013278E+01  0.10296030154E+01 0.  0.
     999903    2    3    3    0    0 -0.18115224655E-01 -0.26898293460E-01 -0.12879957210E+00  0.13974032721E+00  0.43432127753E-01 0.  0.
         14    1    1    2    0    0  0.26664011559E-02  0.13764927873E-01 -0.24232578528E-02  0.14228672218E-01  0.00000000000E+00 0.  1.
     999901    1    3    3    0    0  0.15448823499E-01  0.13133365588E-01  0.13122282995E+00  0.88996100057E+00  0.88000000000E+00 0.  1.
        -11    1    4    4    0    0  0.70791360953E-02  0.52011345814E-02 -0.52312739947E-01  0.53047618708E-01  0.51100000000E-03 0. -1.
         11    1    4    4    0    0 -0.25194360750E-01 -0.32099428042E-01 -0.76486832150E-01  0.86692708502E-01  0.51100000000E-03 0.  1.
</event>
<event>
 8    1  0.2837913E+004  0.1043930E+01  0.7957747E-01            NaN
         13   -1    0    0    0    0  0.00000000000E+00  0.00000000000E+00  0.74505805969E-08  0.10566000000E+00  0.10566000000E+00 0.  1.
     999900   -1    0    0    0    0 -0.00000000000E+00 -0.00000000000E+00 -0.74505805969E-08  0.93827000000E+00  0.93827000000E+00 0. -1.
     999902    2    1    2    0    0 -0.14156197963E-01  0.96551814558E-03 -0.98095485206E-03  0.10297070454E+01  0.10296088125E+01 0.  0.
     999903    2    3    3    0    0  0.92435823453E-01  0.92659167190E-01 -0.28546939297E-02  0.13854314619E+00  0.45342599793E-01 0.  0.
         14    1    1    2    0    0  0.14156197963E-01 -0.96551814558E-03  0.98095485206E-03  0.14222954633E-01  0.00000000000E+00 0. -1.
     999901    1    3    3    0    0 -0.10659202142E+00 -0.91693649045E-01  0.18737390777E-02  0.89116389918E+00  0.88000000000E+00 0. -1.
        -11    1    4    4    0    0  0.85748005985E-02  0.23001707251E-01 -0.15121820714E-01  0.28836371556E-01  0.51100000000E-03 0. -1.
         11    1    4    4    0    0  0.83861022855E-01  0.69657459939E-01  0.12267126785E-01  0.10970677463E+00  0.51100000000E-03 0.  1.
</event>
<event>
 8    1  0.2837913E+004  0.1043930E+01  0.7957747E-01            NaN
         13   -1    0    0    0    0  0.00000000000E+00  0.00000000000E+00  0.74505805969E-08  0.10566000000E+00  0.10566000000E+00 0. -1.
     999900   -1    0    0    0    0 -0.00000000000E+00 -0.00000000000E+00 -0.74505805969E-08  0.93827000000E+00  0.93827000000E+00 0. -1.
     999902    2    1    2    0    0  0.50395906360E-02 -0.94798138736E-02 -0.55391271445E-02  0.10318491774E+01  0.10317784542E+01 0.  0.
     999903    2    3    3    0    0 -0.10761435752E+00  0.34963489367E-01  0.70118085997E-01  0.14033914767E+00  0.44443614287E-01 0.  0.
         14    1    1    2    0    0 -0.50395906360E-02  0.94798138736E-02  0.55391271445E-02  0.12080822587E-01  0.00000000000E+00 0. -1.
     999901    1    3    3    0    0  0.11265394816E+00 -0.44443303241E-01 -0.75657213142E-01  0.89151002975E+00  0.88000000000E+00 0. -1.
        -11    1    4    4    0    0 -0.11346456677E-01  0.65425230971E-02  0.29079417913E-01  0.31897027365E-01  0.51100000000E-03 0.  1.
         11    1    4    4    0    0 -0.96267900842E-01  0.28420966270E-01  0.41038668084E-01  0.10844212030E+00  0.51100000000E-03 0. -1.
</event>
<event>
 8    1  0.2837913E+004  0.1043930E+01  0.7957747E-01            NaN
         13   -1    0    0    0    0  0.00000000000E+00  0.00000000000E+00  0.74505805969E-08  0.10566000000E+00  0.10566000000E+00 0.  1.
     999900   -1    0    0    0    0 -0.00000000000E+00 -0.00000000000E+00 -0.74505805969E-08  0.93827000000E+00  0.93827000000E+00 0.  1.
     999902    2    1    2    0    0 -0.72020845775E-02 -0.21311722902E-02  0.10972446465E-01  0.10306331395E+01  0.10305473603E+01 0.  0.
     999903    2    3    3    0    0 -0.90206191666E-01  0.96635910877E-01  0.19282187521E-01  0.14118742992E+00  0.45677470646E-01 0.  0.
         14    1    1    2    0    0  0.72020845775E-02  0.21311722902E-02 -0.10972446465E-01  0.13296860495E-01  0.00000000000E+00 0. -1.
     999901    1    3    3    0    0  0.83004107089E-01 -0.98767083167E-01 -0.83097410555E-02  0.88944570959E+00  0.88000000000E+00 0. -1.
        -11    1    4    4    0    0 -0.24201798587E-01  0.54864738790E-01  0.19549252841E-01  0.63073774462E-01  0.51100000000E-03 0.  1.
         11    1    4    4    0    0 -0.66004393080E-01  0.41771172087E-01 -0.26706532018E-03  0.78113655453E-01  0.51100000000E-03 0. -1.
</event>
<event>
 8    1  0.2837913E+004  0.1043930E+01  0.7957747E-01            NaN
         13   -1    0    0    0    0  0.00000000000E+00  0.00000000000E+00  0.74505805969E-08  0.10566000000E+00  0.10566000000E+00 0. -1.
     999900   -1    0    0    0    0 -0.00000000000E+00 -0.00000000000E+00 -0.74505805969E-08  0.93827000000E+00  0.93827000000E+00 0. -1.
     999902    2    1    2    0    0 -0.10243019954E-01  0.24480159159E-02 -0.11630307047E-01  0.10282399942E+01  0.10281202796E+01 0.  0.
     999903    2    3    3    0    0 -0.99727953816E-01  0.46150450221E-01 -0.74661378181E-01  0.14038281421E+00  0.45359500713E-01 0.  0.
         14    1    1    2    0    0  0.10243019954E-01 -0.24480159159E-02  0.11630307047E-01  0.15690005791E-01  0.00000000000E+00 0. -1.
     999901    1    3    3    0    0  0.89484933862E-01 -0.43702434305E-01  0.63031071135E-01  0.88785718000E+00  0.88000000000E+00 0.  1.
        -11    1    4    4    0    0 -0.47858689222E-01  0.29791334585E-01 -0.12424892778E-01  0.57728821501E-01  0.51100000000E-03 0. -1.
         11    1    4    4    0    0 -0.51869264594E-01  0.16359115636E-01 -0.62236485403E-01  0.82653992706E-01  0.51100000000E-03 0.  1.
</event>
<event>
 8    1  0.2837913E+004  0.1043930E+01  0.7957747E-01            NaN
         13   -1    0    0    0    0  0.00000000000E+00  0.00000000000E+00  0.74505805969E-08  0.10566000000E+00  0.10566000000E+00 0.  1.
     999900   -1    0    0    0    0 -0.00000000000E+00 -0.00000000000E+00 -0.74505805969E-08  0.93827000000E+00  0.93827000000E+00 0. -1.
     999902    2    1    2    0    0  0.12892065189E-01 -0.40593448184E-02  0.27650053284E-02  0.10301340267E+01  0.10300416419E+01 0.  0.
     999903    2    3    3    0    0  0.94162828861E-01 -0.92793692208E-01 -0.23459474508E-01  0.14155851229E+00  0.44845934110E-01 0.  0.
         14    1    1    2    0    0 -0.12892065189E-01  0.40593448184E-02 -0.27650053284E-02  0.13795973313E-01  0.00000000000E+00 0.  1.
     999901    1    3    3    0    0 -0.81270763672E-01  0.88734347390E-01  0.26224479836E-01  0.88857551439E+00  0.88000000000E+00 0.  1.
        -11    1    4    4    0    0  0.41025183619E-01 -0.71306522709E-01 -0.12850861358E-01  0.83265188587E-01  0.51100000000E-03 0.  1.
         11    1    4    4    0    0  0.53137645242E-01 -0.21487169500E-01 -0.10608613150E-01  0.58293323708E-01  0.51100000000E-03 0. -1.
</event>
<event>
 8    1  0.2837913E+004  0.1043930E+01  0.7957747E-01            NaN
         13   -1    0    0    0    0  0.00000000000E+00  0.00000000000E+00  0.74505805969E-08  0.10566000000E+00  0.10566000000E+00 0.  1.
     999900   -1    0    0    0    0 -0.00000000000E+00 -0.00000000000E+00 -0.74505805969E-08  0.93827000000E+00  0.93827000000E+00 0. -1.
     999902    2    1    2    0    0  0.10959767361E-02 -0.11545264541E-01  0.83807130588E-02  0.10296215881E+01  0.10295221630E+01 0.  0.
     999903    2    3    3    0    0 -0.90385282366E-01  0.91088527764E-01  0.27474504784E-01  0.13874163609E+00  0.45030811835E-01 0.  0.
         14    1    1    2    0    0 -0.10959767361E-02  0.11545264541E-01 -0.83807130588E-02  0.14308411851E-01  0.00000000000E+00 0. -1.
     999901    1    3    3    0    0  0.91481259102E-01 -0.10263379230E+00 -0.19093791725E-01  0.89087995205E+00  0.88000000000E+00 0. -1.
        -11    1    4    4    0    0 -0.22068873047E-01  0.51777974369E-01  0.19272646691E-01  0.59495292409E-01  0.51100000000E-03 0. -1.
         11    1    4    4    0    0 -0.68316409319E-01  0.39310553394E-01  0.82018580936E-02  0.79246343686E-01  0.51100000000E-03 0.  1.
</event>
<event>
 8    1  0.2837913E+004  0.1043930E+01  0.7957747E-01            NaN
         13   -1    0    0    0    0  0.00000000000E+00  0.00000000000E+00  0.74505805969E-08  0.10566000000E+00  0.10566000000E+00 0.  1.
     999900   -1    0    0    0    0 -0.00000000000E+00 -0.00000000000E+00 -0.74505805969E-08  0.93827000000E+00  0.93827000000E+00 0.  1.
     999902    2    1    2    0    0  0.12890863180E-02 -0.13038730287E-01  0.22603321970E-02  0.10306341611E+01  0.10305483951E+01 0.  0.
     999903    2    3    3    0    0  0.99534948547E-01  0.51380304607E-01  0.73204919386E-01  0.13999663887E+00  0.41145558571E-01 0.  0.
         14    1    1    2    0    0 -0.12890863180E-02  0.13038730287E-01 -0.22603321970E-02  0.13295838924E-01  0.00000000000E+00 0. -1.
     999901    1    3    3    0    0 -0.98245862229E-01 -0.64419034895E-01 -0.70944587189E-01  0.89063752220E+00  0.88000000000E+00 0.  1.
        -11    1    4    4    0    0  0.54933684651E-01  0.32558342819E-01  0.64579599906E-01  0.90821480066E-01  0.51100000000E-03 0. -1.
         11    1    4    4    0    0  0.44601263896E-01  0.18821961788E-01  0.86253194801E-02  0.49175158808E-01  0.51100000000E-03 0.  1.
</event>
<event>
 8    1  0.2837913E+004  0.1043930E+01  0.7957747E-01            NaN
         13   -1    0    0    0    0  0.00000000000E+00  0.00000000000E+00  0.74505805969E-08  0.10566000000E+00  0.10566000000E+00 0.  1.
     999900   -1    0    0    0    0 -0.00000000000E+00 -0.00000000000E+00 -0.74505805969E-08  0.93827000000E+00  0.93827000000E+00 0.  1.
     999902    2    1    2    0    0 -0.12930985435E-01  0.30220812817E-02 -0.24149602547E-02  0.10304327635E+01  0.10303443622E+01 0.  0.
     999903    2    3    3    0    0 -0.51306554772E-01 -0.47536196890E-01  0.11316925966E+00  0.14060776066E+00  0.45510531205E-01 0.  0.
         14    1    1    2    0    0  0.12930985435E-01 -0.30220812817E-02  0.24149602547E-02  0.13497236481E-01  0.00000000000E+00 0.  1.
     999901    1    3    3    0    0  0.38375569337E-01  0.50558278171E-01 -0.11558421991E+00  0.88982500285E+00  0.88000000000E+00 0.  1.
        -11    1    4    4    0    0 -0.48463350177E-01 -0.15455352475E-01  0.75583339378E-01  0.91107993848E-01  0.51100000000E-03 0.  1.
         11    1    4    4    0    0 -0.28432045957E-02 -0.32080844414E-01  0.37585920278E-01  0.49499766816E-01  0.51100000000E-03 0. -1.
</event>
<event>
 8    1  0.2837913E+004  0.1043930E+01  0.7957747E-01            NaN
         13   -1    0    0    0    0  0.00000000000E+00  0.00000000000E+00  0.74505805969E-08  0.10566000000E+00  0.10566000000E+00 0.  1.
     999900   -1    0    0    0    0 -0.00000000000E+00 -0.00000000000E+00 -0.74505805969E-08  0.93827000000E+00  0.93827000000E+00 0. -1.
     999902    2    1    2    0    0  0.71615609755E-02  0.14109932253E-01  0.28309972026E-02  0.10278554024E+01  0.10277296996E+01 0.  0.
     999903    2    3    3    0    0  0.29804890917E-01 -0.12402074115E+00  0.22854769000E-01  0.13656770765E+00  0.43115224096E-01 0.  0.
         14    1    1    2    0    0 -0.71615609755E-02 -0.14109932253E-01 -0.28309972026E-02  0.16074597629E-01  0.00000000000E+00 0. -1.
     999901    1    3    3    0    0 -0.22643329941E-01  0.13813067340E+00 -0.20023771798E-01  0.89128769472E+00  0.88000000000E+00 0.  1.
        -11    1    4    4    0    0  0.30505720432E-01 -0.49814223837E-01  0.21795078969E-01  0.62348556229E-01  0.51100000000E-03 0.  1.
         11    1    4    4    0    0 -0.70082951586E-03 -0.74206517312E-01  0.10596900313E-02  0.74219151420E-01  0.51100000000E-03 0. -1.
</event>
<event>
 8    1  0.2837913E+004  0.1043930E+01  0.7957747E-01            NaN
         13   -1    0    0    0    0  0.00000000000E+00  0.00000000000E+00  0.74505805969E-08  0.10566000000E+00  0.10566000000E+00 0.  1.
     999900   -1    0    0    0    0 -0.00000000000E+00 -0.00000000000E+00 -0.74505805969E-08  0.93827000000E+00  0.93827000000E+00 0.  1.
     999902    2    1    2    0    0  0.11513485006E-01 -0.47849325013E-02  0.64798140040E-02  0.10298785266E+01  0.10297826642E+01 0.  0.
     999903    2    3    3    0    0 -0.38780769847E-01 -0.11925802471E+00  0.43975841077E-01  0.14024964161E+00  0.44829262819E-01 0.  0.
         14    1    1    2    0    0 -0.11513485006E-01  0.47849325013E-02 -0.64798140040E-02  0.14051473430E-01  0.00000000000E+00 0. -1.
     999901    1    3    3    0    0  0.50294254853E-01  0.11447309221E+00 -0.37496027073E-01  0.88962888496E+00  0.88000000000E+00 0. -1.
        -11    1    4    4    0    0 -0.38551948418E-01 -0.46451958826E-01  0.20153791091E-01  0.63643331323E-01  0.51100000000E-03 0. -1.
         11    1    4    4    0    0 -0.22882142902E-03 -0.72806065886E-01  0.23822049986E-01  0.76606310286E-01  0.51100000000E-03 0.  1.
</event>
<event>
 8    1  0.2837913E+004  0.1043930E+01  0.7957747E-01            NaN
         13   -1    0    0    0    0  0.00000000000E+00  0.00000000000E+00  0.74505805969E-08  0.10566000000E+00  0.10566000000E+00 0. -1.
     999900   -1    0    0    0    0 -0.00000000000E+00 -0.00000000000E+00 -0.74505805969E-08  0.93827000000E+00  0.93827000000E+00 0.  1.
     999902    2    1    2    0    0 -0.43564477254E-02 -0.40755663375E-02  0.12717424535E-01  0.10298828734E+01  0.10297870708E+01 0.  0.
     999903    2    3    3    0    0  0.10389203102E+00  0.81269759220E-01  0.24133325646E-02  0.13909236380E+00  0.44074183154E-01 0.  0.
         14    1    1    2    0    0  0.43564477254E-02  0.40755663375E-02 -0.12717424535E-01  0.14047126559E-01  0.00000000000E+00 0.  1.
     999901    1    3    3    0    0 -0.10824847875E+00 -0.85345325558E-01  0.10304091971E-01  0.89079050964E+00  0.88000000000E+00 0.  1.
        -11    1    4    4    0    0  0.42265234906E-01  0.53024029502E-01  0.16641684374E-01  0.69821949028E-01  0.51100000000E-03 0.  1.
         11    1    4    4    0    0  0.61626796118E-01  0.28245729718E-01 -0.14228351809E-01  0.69270414776E-01  0.51100000000E-03 0. -1.
</event>
<event>
 8    1  0.2837913E+004  0.1043930E+01  0.7957747E-01            NaN
         13   -1    0    0    0    0  0.00000000000E+00  0.00000000000E+00  0.74505805969E-08  0.10566000000E+00  0.10566000000E+00 0.  1.
     999900   -1    0    0    0    0 -0.00000000000E+00 -0.00000000000E+00 -0.74505805969E-08  0.93827000000E+00  0.93827000000E+00 0.  1.
     999902    2    1    2    0    0  0.62406189132E-02  0.58674735881E-02 -0.11401071251E-01  0.10296696705E+01  0.10295709171E+01 0.  0.
     999903    2    3    3    0    0  0.94864738628E-01  0.75532644874E-02 -0.94241125528E-01  0.14134565810E+00  0.45175600521E-01 0.  0.
         14    1    1    2    0    0 -0.62406189132E-02 -0.58674735881E-02  0.11401071251E-01  0.14260329463E-01  0.00000000000E+00 0.  1.
     999901    1    3    3    0    0 -0.88624119715E-01 -0.16857908993E-02  0.82840054277E-01  0.88832401244E+00  0.88000000000E+00 0. -1.
        -11    1    4    4    0    0  0.58762484619E-01 -0.17591261290E-01 -0.54315812765E-01  0.81932598578E-01  0.51100000000E-03 0. -1.
         11    1    4    4    0    0  0.36102254009E-01  0.25144525777E-01 -0.39925312763E-01  0.59413059518E-01  0.51100000000E-03 0.  1.
</event>
<event>
 8    1  0.2837913E+004  0.1043930E+01  0.7957747E-01            NaN
         13   -1    0    0    0    0  0.00000000000E+00  0.00000000000E+00  0.74505805969E-08  0.10566000000E+00  0.10566000000E+00 0. -1.
     999900   -1    0    0    0    0 -0.00000000000E+00 -0.00000000000E+00 -0.74505805969E-08  0.93827000000E+00  0.93827000000E+00 0.  1.
     999902    2    1    2    0    0 -0.12603187735E-01  0.11387513027E-02 -0.48686789125E-02  0.10303711973E+01  0.10302819823E+01 0.  0.
     999903    2    3    3    0    0  0.87608981375E-02 -0.72587492753E-01 -0.11171744261E+00  0.14059108880E+00  0.44038276823E-01 0.  0.
         14    1    1    2    0    0  0.12603187735E-01 -0.11387513027E-02  0.48686789125E-02  0.13558802674E-01  0.00000000000E+00 0. -1.
     999901    1    3    3    0    0 -0.21364085872E-01  0.73726244056E-01  0.10684876370E+00  0.88978010853E+00  0.88000000000E+00 0. -1.
        -11    1    4    4    0    0  0.18022472502E-01 -0.14958512306E-01 -0.52258768136E-01  0.57269595543E-01  0.51100000000E-03 0. -1.
         11    1    4    4    0    0 -0.92615743646E-02 -0.57628980446E-01 -0.59458674475E-01  0.83321493255E-01  0.51100000000E-03 0.  1.
</event>
<event>
 8    1  0.2837913E+004  0.1043930E+01  0.7957747E-01            NaN
         13   -1    0    0    0    0  0.00000000000E+00  0.00000000000E+00  0.74505805969E-08  0.10566000000E+00  0.10566000000E+00 0. -1.
     999900   -1    0    0    0    0 -0.00000000000E+00 -0.00000000000E+00 -0.74505805969E-08  0.93827000000E+00  0.93827000000E+00 0.  1.
     999902    2    1    2    0    0  0.10927499538E-01  0.68435111273E-02 -0.56464818858E-02  0.10298542532E+01  0.10297580571E+01 0.  0.
     999903    2    3    3    0    0  0.82776815343E-01 -0.10406836121E+00 -0.31838713128E-02  0.13998357041E+00  0.43623823596E-01 0.  0.
         14    1    1    2    0    0 -0.10927499538E-01 -0.68435111273E-02  0.56464818858E-02  0.14075746814E-01  0.00000000000E+00 0.  1.
     999901    1    3    3    0    0 -0.71849315805E-01  0.11091187234E+00 -0.24626105730E-02  0.88987068277E+00  0.88000000000E+00 0.  1.
        -11    1    4    4    0    0  0.56667399908E-01 -0.59149967652E-01 -0.21841164257E-01  0.84777417173E-01  0.51100000000E-03 0.  1.
         11    1    4    4    0    0  0.26109415435E-01 -0.44918393561E-01  0.18657292944E-01  0.55206153240E-01  0.51100000000E-03 0. -1.
</event>
<event>
 8    1  0.2837913E+004  0.1043930E+01  0.7957747E-01            NaN
         13   -1    0    0    0    0  0.00000000000E+00  0.00000000000E+00  0.74505805969E-08  0.10566000000E+00  0.10566000000E+00 0. -1.
     999900   -1    0    0    0    0 -0.00000000000E+00 -0.00000000000E+00 -0.74505805969E-08  0.93827000000E+00  0.93827000000E+00 0.  1.
     999902    2    1    2    0    0 -0.11920816689E-01 -0.16558944922E-02  0.64726256274E-02  0.10302646153E+01  0.10301739828E+01 0.  0.
     999903    2    3    3    0    0  0.34288404180E-01  0.71457612829E-01  0.10655607825E+00  0.14037834471E+00  0.45497217052E-01 0.  0.
         14    1    1    2    0    0  0.11920816689E-01  0.16558944922E-02 -0.64726256274E-02  0.13665384723E-01  0.00000000000E+00 0. -1.
     999901    1    3    3    0    0 -0.46209220870E-01 -0.73113507322E-01 -0.10008345263E+00  0.88988627056E+00  0.88000000000E+00 0.  1.
        -11    1    4    4    0    0  0.28207615918E-01  0.73706301627E-01  0.10795452871E+00  0.13372632458E+00  0.51100000000E-03 0. -1.
         11    1    4    4    0    0  0.60807882625E-02 -0.22486887977E-02 -0.13984504567E-02  0.66520201354E-02  0.51100000000E-03 0.  1.
</event>
<event>
 8    1  0.2837913E+004  0.1043930E+01  0.7957747E-01            NaN
         13   -1    0    0    0    0  0.00000000000E+00  0.00000000000E+00  0.74505805969E-08  0.10566000000E+00  0.10566000000E+00 0.  1.
     999900   -1    0    0    0    0 -0.00000000000E+00 -0.00000000000E+00 -0.74505805969E-08  0.93827000000E+00  0.93827000000E+00 0. -1.
     999902    2    1    2    0    0 -0.11056017018E-02  0.11686795674E-01 -0.72226744865E-02  0.10301470186E+01  0.10300548090E+01 0.  0.
     999903    2    3    3    0    0  0.13260726665E-01 -0.12551026840E+00  0.34927718985E-01  0.13840373639E+00  0.44799267273E-01 0.  0.
         14    1    1    2    0    0  0.11056017018E-02 -0.11686795674E-01  0.72226744865E-02  0.13782981353E-01  0.00000000000E+00 0.  1.
     999901    1    3    3    0    0 -0.14366328367E-01  0.13719706407E+00 -0.42150393471E-01  0.89174328226E+00  0.88000000000E+00 0. -1.
        -11    1    4    4    0    0 -0.63342360029E-02 -0.65856482910E-01  0.36558427456E-01  0.75590863377E-01  0.51100000000E-03 0.  1.
         11    1    4    4    0    0  0.19594962668E-01 -0.59653785488E-01 -0.16307084715E-02  0.62812873012E-01  0.51100000000E-03 0. -1.
</event>
<event>
 8    1  0.2837913E+004  0.1043930E+01  0.7957747E-01            NaN
         13   -1    0    0    0    0  0.00000000000E+00  0.00000000000E+00  0.74505805969E-08  0.10566000000E+00  0.10566000000E+00 0. -1.
     999900   -1    0    0    0    0 -0.00000000000E+00 -0.00000000000E+00 -0.74505805969E-08  0.93827000000E+00  0.93827000000E+00 0. -1.
     999902    2    1    2    0    0 -0.12428213040E-01  0.26676285550E-02  0.55641429251E-02  0.10300542511E+01  0.10299607875E+01 0.  0.
     999903    2    3    3    0    0 -0.37563882054E-01 -0.20366766914E-01  0.12648863363E+00  0.14113067862E+00  0.45745421410E-01 0.  0.
         14    1    1    2    0    0  0.12428213040E-01 -0.26676285550E-02 -0.55641429251E-02  0.13875748916E-01  0.00000000000E+00 0.  1.
     999901    1    3    3    0    0  0.25135669014E-01  0.23034395469E-01 -0.12092449071E+00  0.88892357247E+00  0.88000000000E+00 0. -1.
        -11    1    4    4    0    0 -0.22834948760E-01 -0.12856554118E-01  0.12084285957E+00  0.12365267364E+00  0.51100000000E-03 0. -1.
         11    1    4    4    0    0 -0.14728933294E-01 -0.75102127959E-02  0.56457740608E-02  0.17478004977E-01  0.51100000000E-03 0.  1.
</event>
<event>
 8    1  0.2837913E+004  0.1043930E+01  0.7957747E-01            NaN
         13   -1    0    0    0    0  0.00000000000E+00  0.00000000000E+00  0.74505805969E-08  0.10566000000E+00  0.10566000000E+00 0. -1.
     999900   -1    0    0    0    0 -0.00000000000E+00 -0.00000000000E+00 -0.74505805969E-08  0.93827000000E+00  0.93827000000E+00 0. -1.
     999902    2    1    2    0    0 -0.74315856865E-02 -0.11324257872E-01 -0.14126708593E-02  0.10303115228E+01  0.10302215156E+01 0.  0.
     999903    2    3    3    0    0 -0.12970205567E+00 -0.31902051326E-01  0.72844201910E-02  0.14157694330E+00  0.46374604835E-01 0.  0.
         14    1    1    2    0    0  0.74315856865E-02  0.11324257872E-01  0.14126708593E-02  0.13618477195E-01  0.00000000000E+00 0.  1.
     999901    1    3    3    0    0  0.12227046998E+00  0.20577793454E-01 -0.86970910504E-02  0.88873457950E+00  0.88000000000E+00 0. -1.
        -11    1    4    4    0    0 -0.11462565586E+00 -0.42991185279E-01  0.91312247143E-02  0.12276368917E+00  0.51100000000E-03 0.  1.
         11    1    4    4    0    0 -0.15076399807E-01  0.11089133953E-01 -0.18468045233E-02  0.18813254129E-01  0.51100000000E-03 0. -1.
</event>
<event>
 8    1  0.2837913E+004  0.1043930E+01  0.7957747E-01            NaN
         13   -1    0    0    0    0  0.00000000000E+00  0.00000000000E+00  0.74505805969E-08  0.10566000000E+00  0.10566000000E+00 0.  1.
     999900   -1    0    0    0    0 -0.00000000000E+00 -0.00000000000E+00 -0.74505805969E-08  0.93827000000E+00  0.93827000000E+00 0. -1.
     999902    2    1    2    0    0 -0.72577407567E-02 -0.98873577323E-02 -0.29526980212E-02  0.10313144116E+01  0.10312372485E+01 0.  0.
     999903    2    3    3    0    0  0.11359172250E+00  0.44621955800E-01 -0.52284495278E-01  0.14001789295E+00  0.44465082239E-01 0.  0.
         14    1    1    2    0    0  0.72577407567E-02  0.98873577323E-02  0.29526980212E-02  0.12615588350E-01  0.00000000000E+00 0.  1.
     999901    1    3    3    0    0 -0.12084946326E+00 -0.54509313532E-01  0.49331797257E-01  0.89129651870E+00  0.88000000000E+00 0.  1.
        -11    1    4    4    0    0  0.88844701784E-01  0.44572250166E-01 -0.57342504883E-01  0.11475404353E+00  0.51100000000E-03 0.  1.
         11    1    4    4    0    0  0.24747020717E-01  0.49705633928E-04  0.50580096048E-02  0.25263849414E-01  0.51100000000E-03 0. -1.
</event>
<event>
 8    1  0.2837913E+004  0.1043930E+01  0.7957747E-01            NaN
         13   -1    0    0    0    0  0.00000000000E+00  0.00000000000E+00  0.74505805969E-08  0.10566000000E+00  0.10566000000E+00 0. -1.
     999900   -1    0    0    0    0 -0.00000000000E+00 -0.00000000000E+00 -0.74505805969E-08  0.93827000000E+00  0.93827000000E+00 0.  1.
     999902    2    1    2    0    0  0.99975800593E-02  0.86306934149E-03  0.99471766407E-02  0.10298004983E+01  0.10297035610E+01 0.  0.
     999903    2    3    3    0    0 -0.10306754172E+00 -0.25719655396E-01 -0.75885541220E-01  0.13802831971E+00  0.44819447184E-01 0.  0.
         14    1    1    2    0    0 -0.99975800593E-02 -0.86306934149E-03 -0.99471766407E-02  0.14129501720E-01  0.00000000000E+00 0.  1.
     999901    1    3    3    0    0  0.11306512178E+00  0.26582724737E-01  0.85832717861E-01  0.89177217857E+00  0.88000000000E+00 0. -1.
        -11    1    4    4    0    0 -0.25434684395E-01 -0.18462871648E-01 -0.43332486827E-01  0.53532852861E-01  0.51100000000E-03 0. -1.
         11    1    4    4    0    0 -0.77632857324E-01 -0.72567837479E-02 -0.32553054393E-01  0.84495466849E-01  0.51100000000E-03 0.  1.
</event>
<event>
 8    1  0.2837913E+004  0.1043930E+01  0.7957747E-01            NaN
         13   -1    0    0    0    0  0.00000000000E+00  0.00000000000E+00  0.74505805969E-08  0.10566000000E+00  0.10566000000E+00 0. -1.
     999900   -1    0    0    0    0 -0.00000000000E+00 -0.00000000000E+00 -0.74505805969E-08  0.93827000000E+00  0.93827000000E+00 0. -1.
     999902    2    1    2    0    0 -0.70649683512E-02  0.33593328423E-03 -0.13175467759E-01  0.10289760848E+01  0.10288674179E+01 0.  0.
     999903    2    3    3    0    0  0.25823889793E-01 -0.10179134849E+00 -0.80541843973E-01  0.13990359771E+00  0.45361614928E-01 0.  0.
         14    1    1    2    0    0  0.70649683512E-02 -0.33593328423E-03  0.13175467759E-01  0.14953915194E-01  0.00000000000E+00 0. -1.
     999901    1    3    3    0    0 -0.32888858144E-01  0.10212728178E+00  0.67366376214E-01  0.88907248710E+00  0.88000000000E+00 0.  1.
        -11    1    4    4    0    0  0.26331365507E-01 -0.99536778375E-01 -0.59883382030E-01  0.11910999800E+00  0.51100000000E-03 0. -1.
         11    1    4    4    0    0 -0.50747571352E-03 -0.22545701173E-02 -0.20658461943E-01  0.20793599709E-01  0.51100000000E-03 0.  1.
</event>
<event>
 8    1  0.2837913E+004  0.1043930E+01  0.7957747E-01            NaN
         13   -1    0    0    0    0  0.00000000000E+00  0.00000000000E+00  0.74505805969E-08  0.10566000000E+00  0.10566000000E+00 0. -1.
     999900   -1    0    0    0    0 -0.00000000000E+00 -0.00000000000E+00 -0.74505805969E-08  0.93827000000E+00  0.93827000000E+00 0. -1.
     999902    2    1    2    0    0  0.10228045796E-01 -0.28720838417E-02  0.95406877847E-02  0.10296511166E+01  0.10295521043E+01 0.  0.
     999903    2    3    3    0    0 -0.45113157021E-01  0.54639357644E-01 -0.10978175662E+00  0.13801887162E+00  0.44458053220E-01 0.  0.
         14    1    1    2    0    0 -0.10228045796E-01  0.28720838417E-02 -0.95406877847E-02  0.14278883353E-01  0.00000000000E+00 0.  1.
     999901    1    3    3    0    0  0.55341202817E-01 -0.57511441486E-01  0.11932244441E+00  0.89163224503E+00  0.88000000000E+00 0.  1.
        -11    1    4    4    0    0 -0.28925167762E-01  0.36451620624E-01 -0.31905622298E-01  0.56423539692E-01  0.51100000000E-03 0. -1.
         11    1    4    4    0    0 -0.16187989259E-01  0.18187737021E-01 -0.77876134325E-01  0.81595331929E-01  0.51100000000E-03 0.  1.
</event>
<event>
 8    1  0.2837913E+004  0.1043930E+01  0.7957747E-01            NaN
         13   -1    0    0    0    0  0.00000000000E+00  0.00000000000E+00  0.74505805969E-08  0.10566000000E+00  0.10566000000E+00 0. -1.
     999900   -1    0    0    0    0 -0.00000000000E+00 -0.00000000000E+00 -0.74505805969E-08  0.93827000000E+00  0.93827000000E+00 0.  1.
     999902    2    1    2    0    0  0.11504950337E-01  0.33324450703E-02  0.10151675816E-01  0.10282288665E+01  0.10281089807E+01 0.  0.
     999903    2    3    3    0    0 -0.59602429107E-02  0.10878733848E+00 -0.71365860484E-01  0.13802053341E+00  0.45676822252E-01 0.  0.
         14    1    1    2    0    0 -0.11504950337E-01 -0.33324450703E-02 -0.10151675816E-01  0.15701133535E-01  0.00000000000E+00 0.  1.
     999901    1    3    3    0    0  0.17465193248E-01 -0.10545489341E+00  0.81517536300E-01  0.89020833306E+00  0.88000000000E+00 0.  1.
        -11    1    4    4    0    0  0.13491696595E-01  0.82918884631E-01 -0.40383664380E-01  0.93213028999E-01  0.51100000000E-03 0.  1.
         11    1    4    4    0    0 -0.19451939505E-01  0.25868453847E-01 -0.30982196105E-01  0.44807504410E-01  0.51100000000E-03 0. -1.
</event>
<event>
 8    1  0.2837913E+004  0.1043930E+01  0.7957747E-01            NaN
         13   -1    0    0    0    0  0.00000000000E+00  0.00000000000E+00  0.74505805969E-08  0.10566000000E+00  0.10566000000E+00 0. -1.
     999900   -1    0    0    0    0 -0.00000000000E+00 -0.00000000000E+00 -0.74505805969E-08  0.93827000000E+00  0.93827000000E+00 0.  1.
     999902    2    1    2    0    0  0.99863558126E-02  0.22185488503E-04 -0.11480378179E-01  0.10287139927E+01  0.10286014544E+01 0.  0.
     999903    2    3    3    0    0 -0.67597434092E-01 -0.43791537397E-01  0.10252792831E+00  0.13689743046E+00  0.41735099599E-01 0.  0.
         14    1    1    2    0    0 -0.99863558126E-02 -0.22185488503E-04  0.11480378179E-01  0.15216007287E-01  0.00000000000E+00 0. -1.
     999901    1    3    3    0    0  0.77583789905E-01  0.43813722885E-01 -0.11400830649E+00  0.89181656226E+00  0.88000000000E+00 0.  1.
        -11    1    4    4    0    0 -0.33593060518E-01 -0.13295080935E-01  0.16990977230E-01  0.39927525847E-01  0.51100000000E-03 0.  1.
         11    1    4    4    0    0 -0.34004373574E-01 -0.30496456462E-01  0.85536951078E-01  0.96969904608E-01  0.51100000000E-03 0. -1.
</event>
<event>
 8    1  0.2837913E+004  0.1043930E+01  0.7957747E-01            NaN
         13   -1    0    0    0    0  0.00000000000E+00  0.00000000000E+00  0.74505805969E-08  0.10566000000E+00  0.10566000000E+00 0.  1.
     999900   -1    0    0    0    0 -0.00000000000E+00 -0.00000000000E+00 -0.74505805969E-08  0.93827000000E+00  0.93827000000E+00 0.  1.
     999902    2    1    2    0    0 -0.14381457377E-01  0.43553692120E-02  0.71595796081E-03  0.10288864581E+01  0.10287764750E+01 0.  0.
     999903    2    3    3    0    0 -0.80112872235E-01 -0.10395992527E+00  0.60820569040E-04  0.13981207925E+00  0.48183767447E-01 0.  0.
         14    1    1    2    0    0  0.14381457377E-01 -0.43553692120E-02 -0.71595796081E-03  0.15043541905E-01  0.00000000000E+00 0.  1.
     999901    1    3    3    0    0  0.65731414858E-01  0.10831529448E+00  0.65513739177E-03  0.88907437885E+00  0.88000000000E+00 0. -1.
        -11    1    4    4    0    0 -0.73739652831E-01 -0.75098950153E-01 -0.15533106586E-01  0.10639044710E+00  0.51100000000E-03 0.  1.
         11    1    4    4    0    0 -0.63732194046E-02 -0.28860975113E-01  0.15593927156E-01  0.33421632144E-01  0.51100000000E-03 0. -1.
</event>
<event>
 7    1  0.2837913E+004  0.1043930E+01  0.7957747E-01            NaN
         13   -1    0    0    0    0  0.00000000000E+00  0.00000000000E+00  0.74505805969E-08  0.10566000000E+00  0.10566000000E+00 0.  1.
     999900   -1    0    0    0    0 -0.00000000000E+00 -0.00000000000E+00 -0.74505805969E-08  0.93827000000E+00  0.93827000000E+00 0.  1.
     999903    2    1    2    0    0 -0.83030291726E-01 -0.67427162487E-01  0.62281528428E-02  0.11541666047E+00  0.42915778462E-01 0.  0.
         14    1    1    2    0    0 -0.38123084041E-02  0.32835991499E-01 -0.27960184425E-01  0.43295588068E-01  0.00000000000E+00 0. -1.
     999901    1    1    2    0    0  0.86842600130E-01  0.34591170988E-01  0.21732031582E-01  0.88521775146E+00  0.88000000000E+00 0. -1.
        -11    1    3    3    0    0 -0.50264570195E-01 -0.49313650228E-01  0.23427917175E-01  0.74212475635E-01  0.51100000000E-03 0. -1.
         11    1    3    3    0    0 -0.32765721531E-01 -0.18113512258E-01 -0.17199764332E-01  0.41204184835E-01  0.51100000000E-03 0.  1.
</event>
<event>
 8    1  0.2837913E+004  0.1043930E+01  0.7957747E-01            NaN
         13   -1    0    0    0    0  0.00000000000E+00  0.00000000000E+00  0.74505805969E-08  0.10566000000E+00  0.10566000000E+00 0. -1.
     999900   -1    0    0    0    0 -0.00000000000E+00 -0.00000000000E+00 -0.74505805969E-08  0.93827000000E+00  0.93827000000E+00 0.  1.
     999902    2    1    2    0    0 -0.45154399424E-02 -0.11994885178E-01 -0.35957869423E-02  0.10306184955E+01  0.10305325260E+01 0.  0.
     999903    2    3    3    0    0  0.65795265325E-01  0.49577329551E-03  0.11498439347E+00  0.13979815951E+00  0.44641370168E-01 0.  0.
         14    1    1    2    0    0  0.45154399424E-02  0.11994885178E-01  0.35957869423E-02  0.13311504499E-01  0.00000000000E+00 0. -1.
     999901    1    3    3    0    0 -0.70310705268E-01 -0.12490658473E-01 -0.11858018041E+00  0.89082033599E+00  0.88000000000E+00 0.  1.
        -11    1    4    4    0    0  0.53256552659E-01  0.10341748271E-01  0.11070328259E+00  0.12328296742E+00  0.51100000000E-03 0.  1.
         11    1    4    4    0    0  0.12538712666E-01 -0.98459749758E-02  0.42811108850E-02  0.16515192096E-01  0.51100000000E-03 0. -1.
</event>
<event>
 8    1  0.2837913E+004  0.1043930E+01  0.7957747E-01            NaN
         13   -1    0    0    0    0  0.00000000000E+00  0.00000000000E+00  0.74505805969E-08  0.10566000000E+00  0.10566000000E+00 0.  1.
     999900   -1    0    0    0    0 -0.00000000000E+00 -0.00000000000E+00 -0.74505805969E-08  0.93827000000E+00  0.93827000000E+00 0.  1.
     999902    2    1    2    0    0  0.12921574995E-01 -0.19097881742E-02 -0.24595803649E-02  0.10306385017E+01  0.10305527921E+01 0.  0.
     999903    2    3    3    0    0  0.76765006630E-01  0.10150250376E+00 -0.36366582698E-01  0.14163919311E+00  0.50433205078E-01 0.  0.
         14    1    1    2    0    0 -0.12921574995E-01  0.19097881742E-02  0.24595803649E-02  0.13291498290E-01  0.00000000000E+00 0. -1.
     999901    1    3    3    0    0 -0.63843431635E-01 -0.10341229194E+00  0.33907002333E-01  0.88899930860E+00  0.88000000000E+00 0.  1.
        -11    1    4    4    0    0  0.32322296681E-01  0.67164293027E-01  0.34615626347E-03  0.74539614070E-01  0.51100000000E-03 0.  1.
         11    1    4    4    0    0  0.44442709949E-01  0.34338210736E-01 -0.36712738962E-01  0.67099579039E-01  0.51100000000E-03 0. -1.
</event>
<event>
 8    1  0.2837913E+004  0.1043930E+01  0.7957747E-01            NaN
         13   -1    0    0    0    0  0.00000000000E+00  0.00000000000E+00  0.74505805969E-08  0.10566000000E+00  0.10566000000E+00 0.  1.
     999900   -1    0    0    0    0 -0.00000000000E+00 -0.00000000000E+00 -0.74505805969E-08  0.93827000000E+00  0.93827000000E+00 0. -1.
     999902    2    1    2    0    0 -0.88225351867E-02 -0.72026057775E-02  0.20819907300E-03  0.10325388629E+01  0.10324760266E+01 0.  0.
     999903    2    3    3    0    0  0.79175181265E-01 -0.85766396238E-01  0.66622716978E-01  0.14218682274E+00  0.46410366194E-01 0.  0.
         14    1    1    2    0    0  0.88225351867E-02  0.72026057775E-02 -0.20819907300E-03  0.11391137079E-01  0.00000000000E+00 0.  1.
     999901    1    3    3    0    0 -0.87997716452E-01  0.78563790461E-01 -0.66414517905E-01  0.89035204018E+00  0.88000000000E+00 0.  1.
        -11    1    4    4    0    0  0.62095907031E-01 -0.39959178446E-01  0.54607863145E-01  0.91841806659E-01  0.51100000000E-03 0.  1.
         11    1    4    4    0    0  0.17079274234E-01 -0.45807217792E-01  0.12014853833E-01  0.50345016078E-01  0.51100000000E-03 0. -1.
</event>
<event>
 8    1  0.2837913E+004  0.1043930E+01  0.7957747E-01            NaN
         13   -1    0    0    0    0  0.00000000000E+00  0.00000000000E+00  0.74505805969E-08  0.10566000000E+00  0.10566000000E+00 0. -1.
     999900   -1    0    0    0    0 -0.00000000000E+00 -0.00000000000E+00 -0.74505805969E-08  0.93827000000E+00  0.93827000000E+00 0. -1.
     999902    2    1    2    0    0  0.63622709060E-02 -0.36788308694E-02 -0.12356904550E-01  0.10295527479E+01  0.10294523570E+01 0.  0.
     999903    2    3    3    0    0  0.11527972739E+00  0.38483149791E-01  0.58614933829E-01  0.13900367751E+00  0.33405740974E-01 0.  0.
         14    1    1    2    0    0 -0.63622709060E-02  0.36788308694E-02  0.12356904550E-01  0.14377252091E-01  0.00000000000E+00 0.  1.
     999901    1    3    3    0    0 -0.10891745648E+00 -0.42161980660E-01 -0.70971838379E-01  0.89054907040E+00  0.88000000000E+00 0. -1.
        -11    1    4    4    0    0  0.10319557754E+00  0.21894047976E-01  0.48217535009E-01  0.11599081155E+00  0.51100000000E-03 0.  1.
         11    1    4    4    0    0  0.12084149844E-01  0.16589101816E-01  0.10397398820E-01  0.23012865961E-01  0.51100000000E-03 0. -1.
</event>
<event>
 8    1  0.2837913E+004  0.1043930E+01  0.7957747E-01            NaN
         13   -1    0    0    0    0  0.00000000000E+00  0.00000000000E+00  0.74505805969E-08  0.10566000000E+00  0.10566000000E+00 0. -1.
     999900   -1    0    0    0    0 -0.00000000000E+00 -0.00000000000E+00 -0.74505805969E-08  0.93827000000E+00  0.93827000000E+00 0. -1.
     999902    2    1    2    0    0  0.13298459086E-01  0.31321423425E-02  0.19842167539E-02  0.10301243328E+01  0.10300318173E+01 0.  0.
     999903    2    3    3    0    0 -0.10130303730E+00 -0.82240341464E-01 -0.13785975325E-01  0.13845698291E+00  0.44209771200E-01 0.  0.
         14    1    1    2    0    0 -0.13298459086E-01 -0.31321423425E-02 -0.19842167539E-02  0.13805667164E-01  0.00000000000E+00 0. -1.
     999901    1    3    3    0    0  0.11460149639E+00  0.85372483806E-01  0.15770192079E-01  0.89166734993E+00  0.88000000000E+00 0. -1.
        -11    1    4    4    0    0 -0.45750995609E-01 -0.48486179714E-01  0.13395070459E-01  0.67998178329E-01  0.51100000000E-03 0.  1.
         11    1    4    4    0    0 -0.55552041696E-01 -0.33754161750E-01 -0.27181045784E-01  0.70458804581E-01  0.51100000000E-03 0. -1.
</event>
<event>
 8    1  0.2837913E+004  0.1043930E+01  0.7957747E-01            NaN
         13   -1    0    0    0    0  0.00000000000E+00  0.00000000000E+00  0.74505805969E-08  0.10566000000E+00  0.10566000000E+00 0. -1.
     999900   -1    0    0    0    0 -0.00000000000E+00 -0.00000000000E+00 -0.74505805969E-08  0.93827000000E+00  0.93827000000E+00 0.  1.
     999902    2    1    2    0    0  0.14911180723E-01  0.90834471307E-02  0.57696113866E-02  0.10255413965E+01  0.10253765236E+01 0.  0.
     999903    2    3    3    0    0 -0.63833081316E-01 -0.10850428119E+00 -0.10038080496E-01  0.13409458612E+00  0.45086069467E-01 0.  0.
         14    1    1    2    0    0 -0.14911180723E-01 -0.90834471307E-02 -0.57696113866E-02  0.18388603478E-01  0.00000000000E+00 0.  1.
     999901    1    3    3    0    0  0.78744262039E-01  0.11758772832E+00  0.15807691883E-01  0.89144681040E+00  0.88000000000E+00 0.  1.
        -11    1    4    4    0    0 -0.54225594126E-01 -0.85707673058E-01 -0.25933220470E-01  0.10468530615E+00  0.51100000000E-03 0. -1.
         11    1    4    4    0    0 -0.96074871901E-02 -0.22796608130E-01  0.15895139974E-01  0.29409279966E-01  0.51100000000E-03 0.  1.
</event>
<event>
 8    1  0.2837913E+004  0.1043930E+01  0.7957747E-01            NaN
         13   -1    0    0    0    0  0.00000000000E+00  0.00000000000E+00  0.74505805969E-08  0.10566000000E+00  0.10566000000E+00 0.  1.
     999900   -1    0    0    0    0 -0.00000000000E+00 -0.00000000000E+00 -0.74505805969E-08  0.93827000000E+00  0.93827000000E+00 0.  1.
     999902    2    1    2    0    0 -0.52708994750E-02 -0.14856920791E-01  0.54860509423E-02  0.10272384683E+01  0.10271028495E+01 0.  0.
     999903    2    3    3    0    0  0.12024649137E+00 -0.31976744726E-01 -0.37290693825E-01  0.13713872460E+00  0.43985259464E-01 0.  0.
         14    1    1    2    0    0  0.52708994750E-02  0.14856920791E-01 -0.54860509423E-02  0.16691531733E-01  0.00000000000E+00 0.  1.
     999901    1    3    3    0    0 -0.12551739084E+00  0.17119823935E-01  0.42776744767E-01  0.89009974366E+00  0.88000000000E+00 0.  1.
        -11    1    4    4    0    0  0.52537178974E-01  0.56381328707E-02 -0.25902051970E-01  0.58848289135E-01  0.51100000000E-03 0.  1.
         11    1    4    4    0    0  0.67709312396E-01 -0.37614877596E-01 -0.11388641855E-01  0.78290435469E-01  0.51100000000E-03 0. -1.
</event>
<event>
 8    1  0.2837913E+004  0.1043930E+01  0.7957747E-01            NaN
         13   -1    0    0    0    0  0.00000000000E+00  0.00000000000E+00  0.74505805969E-08  0.10566000000E+00  0.10566000000E+00 0. -1.
     999900   -1    0    0    0    0 -0.00000000000E+00 -0.00000000000E+00 -0.74505805969E-08  0.93827000000E+00  0.93827000000E+00 0.  1.
     999902    2    1    2    0    0 -0.23051589526E-02 -0.17366268904E-02 -0.14208005039E-01  0.10294318264E+01  0.10293297276E+01 0.  0.
     999903    2    3    3    0    0 -0.56074993898E-01  0.93742561735E-01 -0.76344094573E-01  0.14046143080E+00  0.44372513408E-01 0.  0.
         14    1    1    2    0    0  0.23051589526E-02  0.17366268904E-02  0.14208005039E-01  0.14498173607E-01  0.00000000000E+00 0. -1.
     999901    1    3    3    0    0  0.53769834945E-01 -0.95479188625E-01  0.62136089535E-01  0.88897039559E+00  0.88000000000E+00 0. -1.
        -11    1    4    4    0    0 -0.42825143039E-01  0.42953494101E-01 -0.60403888599E-01  0.85603074774E-01  0.51100000000E-03 0.  1.
         11    1    4    4    0    0 -0.13249850858E-01  0.50789067634E-01 -0.15940205974E-01  0.54858356030E-01  0.51100000000E-03 0. -1.
</event>
<event>
 8    1  0.2837913E+004  0.1043930E+01  0.7957747E-01            NaN
         13   -1    0    0    0    0  0.00000000000E+00  0.00000000000E+00  0.74505805969E-08  0.10566000000E+00  0.10566000000E+00 0.  1.
     999900   -1    0    0    0    0 -0.00000000000E+00 -0.00000000000E+00 -0.74505805969E-08  0.93827000000E+00  0.93827000000E+00 0.  1.
     999902    2    1    2    0    0  0.50483220111E-02 -0.10145740751E-01 -0.80860839330E-02  0.10300085646E+01  0.10299144803E+01 0.  0.
     999903    2    3    3    0    0 -0.65141118049E-01  0.11190966610E+00  0.27935187868E-01  0.13808838214E+00  0.38998563221E-01 0.  0.
         14    1    1    2    0    0 -0.50483220111E-02  0.10145740751E-01  0.80860839330E-02  0.13921435410E-01  0.00000000000E+00 0.  1.
     999901    1    3    3    0    0  0.70189440060E-01 -0.12205540685E+00 -0.36021271801E-01  0.89192018245E+00  0.88000000000E+00 0. -1.
        -11    1    4    4    0    0 -0.26848888735E-01  0.20714448387E-01  0.18751010076E-01  0.38753228229E-01  0.51100000000E-03 0.  1.
         11    1    4    4    0    0 -0.38292229314E-01  0.91195217715E-01  0.91841777910E-02  0.99335153912E-01  0.51100000000E-03 0. -1.
</event>
<event>
 7    1  0.2837913E+004  0.1043930E+01  0.7957747E-01            NaN
         13   -1    0    0    0    0  0.00000000000E+00  0.00000000000E+00  0.74505805969E-08  0.10566000000E+00  0.10566000000E+00 0. -1.
     999900   -1    0    0    0    0 -0.00000000000E+00 -0.00000000000E+00 -0.74505805969E-08  0.93827000000E+00  0.93827000000E+00 0. -1.
     999902    2    1    2    0    0  0.40168862791E-03 -0.10319003976E-01  0.32528732034E-02  0.10331029791E+01  0.10330462435E+01 0.  0.
         14    1    1    2    0    0 -0.40168862791E-03  0.10319003976E-01 -0.32528732034E-02  0.10827020868E-01  0.00000000000E+00 0. -1.
     999901    1    3    3    0    0  0.68758052187E-01  0.55019537534E-01 -0.86397336100E-01  0.88860526610E+00  0.88000000000E+00 0.  1.
        -11    1    3    3    0    0 -0.65173034417E-01 -0.36292584294E-01  0.87804260783E-01  0.11521512671E+00  0.51100000000E-03 0.  1.
         11    1    3    3    0    0 -0.31833291427E-02 -0.29045957215E-01  0.18459485209E-02  0.29282586326E-01  0.51100000000E-03 0. -1.
</event>
<event>
 7    1  0.2837913E+004  0.1043930E+01  0.7957747E-01            NaN
         13   -1    0    0    0    0  0.00000000000E+00  0.00000000000E+00  0.74505805969E-08  0.10566000000E+00  0.10566000000E+00 0. -1.
     999900   -1    0    0    0    0 -0.00000000000E+00 -0.00000000000E+00 -0.74505805969E-08  0.93827000000E+00  0.93827000000E+00 0.  1.
     999903    2    1    2    0    0 -0.15500434070E-01 -0.50359563588E-01  0.10100085209E+00  0.12249917022E+00  0.45039154955E-01 0.  0.
         14    1    1    2    0    0  0.12491263529E-01  0.31204130305E-01  0.78395012856E-02  0.34513579836E-01  0.00000000000E+00 0.  1.
     999901    1    1    2    0    0  0.30091705407E-02  0.19155433283E-01 -0.10884035338E+00  0.88691724995E+00  0.88000000000E+00 0.  1.
        -11    1    3    3    0    0 -0.26122264129E-02 -0.34433240780E-01  0.95093248044E-01  0.10117044401E+00  0.51100000000E-03 0.  1.
         11    1    3    3    0    0 -0.12888207657E-01 -0.15926322808E-01  0.59076040484E-02  0.21328726202E-01  0.51100000000E-03 0. -1.
</event>
<event>
 8    1  0.2837913E+004  0.1043930E+01  0.7957747E-01            NaN
         13   -1    0    0    0    0  0.00000000000E+00  0.00000000000E+00  0.74505805969E-08  0.10566000000E+00  0.10566000000E+00 0.  1.
     999900   -1    0    0    0    0 -0.00000000000E+00 -0.00000000000E+00 -0.74505805969E-08  0.93827000000E+00  0.93827000000E+00 0. -1.
     999902    2    1    2    0    0 -0.88767178866E-03 -0.84910454611E-03  0.14213139078E-01  0.10296638771E+01  0.10295650429E+01 0.  0.
     999903    2    3    3    0    0  0.12736625420E+00 -0.15874512644E-01  0.33370800063E-01  0.14003370204E+00  0.44962924176E-01 0.  0.
         14    1    1    2    0    0  0.88767178866E-03  0.84910454611E-03 -0.14213139078E-01  0.14266122885E-01  0.00000000000E+00 0. -1.
     999901    1    3    3    0    0 -0.12825392599E+00  0.15025408098E-01 -0.19157660986E-01  0.88963017507E+00  0.88000000000E+00 0.  1.
        -11    1    4    4    0    0  0.34931170848E-01  0.46417766177E-02  0.28324126584E-01  0.45213383580E-01  0.51100000000E-03 0. -1.
         11    1    4    4    0    0  0.92435083354E-01 -0.20516289262E-01  0.50466734799E-02  0.94820318465E-01  0.51100000000E-03 0.  1.
</event>
<event>
 8    1  0.2837913E+004  0.1043930E+01  0.7957747E-01            NaN
         13   -1    0    0    0    0  0.00000000000E+00  0.00000000000E+00  0.74505805969E-08  0.10566000000E+00  0.10566000000E+00 0.  1.
     999900   -1    0    0    0    0 -0.00000000000E+00 -0.00000000000E+00 -0.74505805969E-08  0.93827000000E+00  0.93827000000E+00 0.  1.
     999902    2    1    2    0    0  0.99625650235E-02 -0.41923205990E-02 -0.77677018480E-02  0.10306196489E+01  0.10305336944E+01 0.  0.
     999903    2    3    3    0    0  0.12645045201E+00  0.35748839169E-01  0.24538377469E-01  0.14145801748E+00  0.46265996429E-01 0.  0.
         14    1    1    2    0    0 -0.99625650235E-02  0.41923205990E-02  0.77677018480E-02  0.13310351079E-01  0.00000000000E+00 0.  1.
     999901    1    3    3    0    0 -0.11648788699E+00 -0.39941159768E-01 -0.32306079317E-01  0.88916163144E+00  0.88000000000E+00 0. -1.
        -11    1    4    4    0    0  0.92522942745E-01  0.40928964887E-01  0.32419995540E-01  0.10624025759E+00  0.51100000000E-03 0. -1.
         11    1    4    4    0    0  0.33927509268E-01 -0.51801257173E-02 -0.78816180712E-02  0.35217759894E-01  0.51100000000E-03 0.  1.
</event>
<event>
 8    1  0.2837913E+004  0.1043930E+01  0.7957747E-01            NaN
         13   -1    0    0    0    0  0.00000000000E+00  0.00000000000E+00  0.74505805969E-08  0.10566000000E+00  0.10566000000E+00 0.  1.
     999900   -1    0    0    0    0 -0.00000000000E+00 -0.00000000000E+00 -0.74505805969E-08  0.93827000000E+00  0.93827000000E+00 0.  1.
     999902    2    1    2    0    0  0.84446683372E-02 -0.27416658709E-02  0.73744349272E-02  0.10323882737E+01  0.10323237555E+01 0.  0.
     999903    2    3    3    0    0 -0.55057454899E-02  0.12392054860E+00  0.54331828773E-01  0.14197099656E+00  0.42628636485E-01 0.  0.
         14    1    1    2    0    0 -0.84446683372E-02  0.27416658709E-02 -0.73744349272E-02  0.11541726282E-01  0.00000000000E+00 0. -1.
     999901    1    3    3    0    0  0.13950413827E-01 -0.12666221447E+00 -0.46957393846E-01  0.89041727716E+00  0.88000000000E+00 0.  1.
        -11    1    4    4    0    0  0.14679422941E-01  0.49403323400E-01  0.35254525000E-01  0.62444507163E-01  0.51100000000E-03 0. -1.
         11    1    4    4    0    0 -0.20185168431E-01  0.74517225199E-01  0.19077303774E-01  0.79526489400E-01  0.51100000000E-03 0.  1.
</event>
<event>
 8    1  0.2837913E+004  0.1043930E+01  0.7957747E-01            NaN
         13   -1    0    0    0    0  0.00000000000E+00  0.00000000000E+00  0.74505805969E-08  0.10566000000E+00  0.10566000000E+00 0.  1.
     999900   -1    0    0    0    0 -0.00000000000E+00 -0.00000000000E+00 -0.74505805969E-08  0.93827000000E+00  0.93827000000E+00 0. -1.
     999902    2    1    2    0    0  0.14735767549E-01  0.30287995465E-02  0.58178564364E-02  0.10278004022E+01  0.10276738309E+01 0.  0.
     999903    2    3    3    0    0 -0.32957514727E-01  0.11543102567E+00  0.50432270851E-01  0.13825031614E+00  0.46467370337E-01 0.  0.
         14    1    1    2    0    0 -0.14735767549E-01 -0.30287995465E-02 -0.58178564364E-02  0.16129597809E-01  0.00000000000E+00 0. -1.
     999901    1    3    3    0    0  0.47693282276E-01 -0.11240222613E+00 -0.44614414415E-01  0.88955008605E+00  0.88000000000E+00 0.  1.
        -11    1    4    4    0    0 -0.38705647214E-01  0.53161433783E-01  0.20228842818E-01  0.68802124756E-01  0.51100000000E-03 0.  1.
         11    1    4    4    0    0  0.57481324876E-02  0.62269591889E-01  0.30203428033E-01  0.69448191388E-01  0.51100000000E-03 0. -1.
</event>
<event>
 8    1  0.2837913E+004  0.1043930E+01  0.7957747E-01            NaN
         13   -1    0    0    0    0  0.00000000000E+00  0.00000000000E+00  0.74505805969E-08  0.10566000000E+00  0.10566000000E+00 0.  1.
     999900   -1    0    0    0    0 -0.00000000000E+00 -0.00000000000E+00 -0.74505805969E-08  0.93827000000E+00  0.93827000000E+00 0.  1.
     999902    2    1    2    0    0 -0.13264212763E-01  0.53973037694E-02  0.62638393204E-02  0.10282997117E+01  0.10281809137E+01 0.  0.
     999903    2    3    3    0    0 -0.39714392175E-01  0.41121518152E-01  0.11951428819E+00  0.13992957736E+00  0.45037865580E-01 0.  0.
         14    1    1    2    0    0  0.13264212763E-01 -0.53973037694E-02 -0.62638393204E-02  0.15630288265E-01  0.00000000000E+00 0. -1.
     999901    1    3    3    0    0  0.26450179412E-01 -0.35724214382E-01 -0.11325044887E+00  0.88837013438E+00  0.88000000000E+00 0.  1.
        -11    1    4    4    0    0 -0.25687779031E-01  0.40128841549E-01  0.50246587795E-01  0.69247141613E-01  0.51100000000E-03 0.  1.
         11    1    4    4    0    0 -0.14026613144E-01  0.99267660315E-03  0.69267700400E-01  0.70682435745E-01  0.51100000000E-03 0. -1.
</event>
<event>
 8    1  0.2837913E+004  0.1043930E+01  0.7957747E-01            NaN
         13   -1    0    0    0    0  0.00000000000E+00  0.00000000000E+00  0.74505805969E-08  0.10566000000E+00  0.10566000000E+00 0.  1.
     999900   -1    0    0    0    0 -0.00000000000E+00 -0.00000000000E+00 -0.74505805969E-08  0.93827000000E+00  0.93827000000E+00 0.  1.
     999902    2    1    2    0    0 -0.10550711896E-01  0.11774635963E-01  0.20009109745E-02  0.10279937765E+01  0.10278702454E+01 0.  0.
     999903    2    3    3    0    0 -0.11411143750E+00 -0.75054380915E-02 -0.64750579915E-01  0.13920116480E+00  0.45897439072E-01 0.  0.
         14    1    1    2    0    0  0.10550711896E-01 -0.11774635963E-01 -0.20009109745E-02  0.15936223465E-01  0.00000000000E+00 0. -1.
     999901    1    3    3    0    0  0.10356072560E+00  0.19280074055E-01  0.66751490889E-01  0.88879261174E+00  0.88000000000E+00 0. -1.
        -11    1    4    4    0    0 -0.68623818205E-01 -0.72239714920E-03 -0.12794087678E-01  0.69811890700E-01  0.51100000000E-03 0. -1.
         11    1    4    4    0    0 -0.45487619293E-01 -0.67830409424E-02 -0.51956492237E-01  0.69389274098E-01  0.51100000000E-03 0.  1.
</event>
<event>
 8    1  0.2837913E+004  0.1043930E+01  0.7957747E-01            NaN
         13   -1    0    0    0    0  0.00000000000E+00  0.00000000000E+00  0.74505805969E-08  0.10566000000E+00  0.10566000000E+00 0.  1.
     999900   -1    0    0    0    0 -0.00000000000E+00 -0.00000000000E+00 -0.74505805969E-08  0.93827000000E+00  0.93827000000E+00 0.  1.
     999902    2    1    2    0    0 -0.12763181230E-01 -0.35247988868E-02  0.38751346966E-02  0.10301336356E+01  0.10300412455E+01 0.  0.
     999903    2    3    3    0    0 -0.73594651344E-01 -0.97678146824E-01  0.55817339096E-01  0.14150361511E+00  0.44164518243E-01 0.  0.
         14    1    1    2    0    0  0.12763181230E-01  0.35247988868E-02 -0.38751346966E-02  0.13796364421E-01  0.00000000000E+00 0. -1.
     999901    1    3    3    0    0  0.60831470113E-01  0.94153347937E-01 -0.51942204400E-01  0.88863002047E+00  0.88000000000E+00 0. -1.
        -11    1    4    4    0    0 -0.65424211738E-01 -0.99668095494E-01  0.44200580111E-01  0.12715348656E+00  0.51100000000E-03 0.  1.
         11    1    4    4    0    0 -0.81704396057E-02  0.19899486704E-02  0.11616758986E-01  0.14350128550E-01  0.51100000000E-03 0. -1.
</event>
<event>
 8    1  0.2837913E+004  0.1043930E+01  0.7957747E-01            NaN
         13   -1    0    0    0    0  0.00000000000E+00  0.00000000000E+00  0.74505805969E-08  0.10566000000E+00  0.10566000000E+00 0.  1.
     999900   -1    0    0    0    0 -0.00000000000E+00 -0.00000000000E+00 -0.74505805969E-08  0.93827000000E+00  0.93827000000E+00 0. -1.
     999902    2    1    2    0    0  0.90543702531E-02 -0.34260014554E-02  0.89977962153E-02  0.10307133649E+01  0.10306286243E+01 0.  0.
     999903    2    3    3    0    0 -0.52357715287E-02 -0.11115771875E+00  0.74908877129E-01  0.14158199010E+00  0.45284305292E-01 0.  0.
         14    1    1    2    0    0 -0.90543702531E-02  0.34260014554E-02 -0.89977962153E-02  0.13216635101E-01  0.00000000000E+00 0. -1.
     999901    1    3    3    0    0  0.14290141782E-01  0.10773171730E+00 -0.65911080914E-01  0.88913137480E+00  0.88000000000E+00 0. -1.
        -11    1    4    4    0    0 -0.94928195636E-02 -0.58089916672E-01  0.64521382299E-01  0.87337402853E-01  0.51100000000E-03 0. -1.
         11    1    4    4    0    0  0.42570480349E-02 -0.53067802082E-01  0.10387494830E-01  0.54244587248E-01  0.51100000000E-03 0.  1.
</event>
<event>
 8    1  0.2837913E+004  0.1043930E+01  0.7957747E-01            NaN
         13   -1    0    0    0    0  0.00000000000E+00  0.00000000000E+00  0.74505805969E-08  0.10566000000E+00  0.10566000000E+00 0.  1.
     999900   -1    0    0    0    0 -0.00000000000E+00 -0.00000000000E+00 -0.74505805969E-08  0.93827000000E+00  0.93827000000E+00 0. -1.
     999902    2    1    2    0    0 -0.34416803147E-03  0.35906331899E-02  0.13499386456E-01  0.10299570070E+01  0.10298622198E+01 0.  0.
     999903    2    3    3    0    0 -0.11982193975E+00  0.49696053812E-01 -0.25380909377E-01  0.13983773121E+00  0.45644337002E-01 0.  0.
         14    1    1    2    0    0  0.34416803147E-03 -0.35906331899E-02 -0.13499386456E-01  0.13972992988E-01  0.00000000000E+00 0. -1.
     999901    1    3    3    0    0  0.11947777172E+00 -0.46105420623E-01  0.38880295833E-01  0.89011927580E+00  0.88000000000E+00 0.  1.
        -11    1    4    4    0    0 -0.40713662536E-01  0.10621236502E-01 -0.29689107284E-01  0.51498710607E-01  0.51100000000E-03 0. -1.
         11    1    4    4    0    0 -0.79108277213E-01  0.39074817310E-01  0.43081979064E-02  0.88339020606E-01  0.51100000000E-03 0.  1.
</event>
<event>
 8    1  0.2837913E+004  0.1043930E+01  0.7957747E-01            NaN
         13   -1    0    0    0    0  0.00000000000E+00  0.00000000000E+00  0.74505805969E-08  0.10566000000E+00  0.10566000000E+00 0.  1.
     999900   -1    0    0    0    0 -0.00000000000E+00 -0.00000000000E+00 -0.74505805969E-08  0.93827000000E+00  0.93827000000E+00 0.  1.
     999902    2    1    2    0    0 -0.45095557507E-02 -0.16051154126E-03 -0.13048828394E-01  0.10301229808E+01  0.10300304470E+01 0.  0.
     999903    2    3    3    0    0 -0.11910449546E+00  0.58982287532E-01  0.41607828336E-02  0.14055789514E+00  0.45545786764E-01 0.  0.
         14    1    1    2    0    0  0.45095557507E-02  0.16051154126E-03  0.13048828394E-01  0.13807019211E-01  0.00000000000E+00 0.  1.
     999901    1    3    3    0    0  0.11459493971E+00 -0.59142799074E-01 -0.17209611228E-01  0.88956508565E+00  0.88000000000E+00 0.  1.
        -11    1    4    4    0    0 -0.81765091182E-01  0.34508633411E-01  0.23640991550E-01  0.91845160560E-01  0.51100000000E-03 0.  1.
         11    1    4    4    0    0 -0.37339404274E-01  0.24473654121E-01 -0.19480208716E-01  0.48712734579E-01  0.51100000000E-03 0. -1.
</event>
<event>
 8    1  0.2837913E+004  0.1043930E+01  0.7957747E-01            NaN
         13   -1    0    0    0    0  0.00000000000E+00  0.00000000000E+00  0.74505805969E-08  0.10566000000E+00  0.10566000000E+00 0. -1.
     999900   -1    0    0    0    0 -0.00000000000E+00 -0.00000000000E+00 -0.74505805969E-08  0.93827000000E+00  0.93827000000E+00 0. -1.
     999902    2    1    2    0    0  0.36368867661E-02  0.65318281405E-02  0.10966035037E-01  0.10306580126E+01  0.10305725561E+01 0.  0.
     999903    2    3    3    0    0  0.12163921981E+00 -0.24554479310E-01  0.50524644581E-01  0.14135728020E+00  0.45056838616E-01 0.  0.
         14    1    1    2    0    0 -0.36368867661E-02 -0.65318281405E-02 -0.10966035037E-01  0.13271987366E-01  0.00000000000E+00 0.  1.
     999901    1    3    3    0    0 -0.11800233304E+00  0.31086307450E-01 -0.39558609544E-01  0.88930073243E+00  0.88000000000E+00 0. -1.
        -11    1    4    4    0    0  0.18152558904E-01 -0.80425828293E-02 -0.79001622575E-02  0.21374569423E-01  0.51100000000E-03 0.  1.
         11    1    4    4    0    0  0.10348666091E+00 -0.16511896480E-01  0.58424806839E-01  0.11998271078E+00  0.51100000000E-03 0. -1.
</event>
<event>
 8    1  0.2837913E+004  0.1043930E+01  0.7957747E-01            NaN
         13   -1    0    0    0    0  0.00000000000E+00  0.00000000000E+00  0.74505805969E-08  0.10566000000E+00  0.10566000000E+00 0. -1.
     999900   -1    0    0    0    0 -0.00000000000E+00 -0.00000000000E+00 -0.74505805969E-08  0.93827000000E+00  0.93827000000E+00 0. -1.
     999902    2    1    2    0    0 -0.76935246741E-02  0.10560271210E-01 -0.22650325586E-03  0.10308624465E+01  0.10307796189E+01 0.  0.
     999903    2    3    3    0    0 -0.13302543660E+00 -0.68540913189E-02 -0.17824841983E-01  0.14163747517E+00  0.44729230161E-01 0.  0.
         14    1    1    2    0    0  0.76935246741E-02 -0.10560271210E-01  0.22650325586E-03  0.13067553469E-01  0.00000000000E+00 0.  1.
     999901    1    3    3    0    0  0.12533191192E+00  0.17414362529E-01  0.17598338727E-01  0.88922497136E+00  0.88000000000E+00 0. -1.
        -11    1    4    4    0    0 -0.26778997190E-01 -0.60462267279E-02 -0.22180624750E-01  0.35297489761E-01  0.51100000000E-03 0.  1.
         11    1    4    4    0    0 -0.10624643941E+00 -0.80786459102E-03  0.43557827676E-02  0.10633998541E+00  0.51100000000E-03 0. -1.
</event>
<event>
 8    1  0.2837913E+004  0.1043930E+01  0.7957747E-01            NaN
         13   -1    0    0    0    0  0.00000000000E+00  0.00000000000E+00  0.74505805969E-08  0.10566000000E+00  0.10566000000E+00 0.  1.
     999900   -1    0    0    0    0 -0.00000000000E+00 -0.00000000000E+00 -0.74505805969E-08  0.93827000000E+00  0.93827000000E+00 0.  1.
     999902    2    1    2    0    0  0.76826272618E-02 -0.11402070757E-01 -0.41889129573E-02  0.10295572142E+01  0.10294568861E+01 0.  0.
     999903    2    3    3    0    0 -0.89166274303E-01 -0.96735169461E-01  0.16694649449E-01  0.13989572206E+00  0.44539692924E-01 0.  0.
         14    1    1    2    0    0 -0.76826272618E-02  0.11402070757E-01  0.41889129573E-02  0.14372785775E-01  0.00000000000E+00 0. -1.
     999901    1    3    3    0    0  0.96848901564E-01  0.85333098704E-01 -0.20883562406E-01  0.88966149217E+00  0.88000000000E+00 0.  1.
        -11    1    4    4    0    0 -0.76768555462E-01 -0.53214923839E-01  0.15019324777E-01  0.94610149903E-01  0.51100000000E-03 0.  1.
         11    1    4    4    0    0 -0.12397718840E-01 -0.43520245622E-01  0.16753246715E-02  0.45285572153E-01  0.51100000000E-03 0. -1.
</event>
<event>
 8    1  0.2837913E+004  0.1043930E+01  0.7957747E-01            NaN
         13   -1    0    0    0    0  0.00000000000E+00  0.00000000000E+00  0.74505805969E-08  0.10566000000E+00  0.10566000000E+00 0. -1.
     999900   -1    0    0    0    0 -0.00000000000E+00 -0.00000000000E+00 -0.74505805969E-08  0.93827000000E+00  0.93827000000E+00 0. -1.
     999902    2    1    2    0    0 -0.10893528857E-02  0.84739403940E-02 -0.52810992455E-02  0.10338858791E+01  0.10338370890E+01 0.  0.
     999903    2    3    3    0    0  0.13390417333E+00 -0.20384539812E-01 -0.12739136967E-01  0.14309314993E+00  0.44356587421E-01 0.  0.
         14    1    1    2    0    0  0.10893528857E-02 -0.84739403940E-02  0.52810992455E-02  0.10044120905E-01  0.00000000000E+00 0. -1.
     999901    1    3    3    0    0 -0.13499352622E+00  0.28858480206E-01  0.74580377213E-02  0.89079272916E+00  0.88000000000E+00 0.  1.
        -11    1    4    4    0    0  0.56975929988E-01  0.42230183902E-02 -0.23167619862E-01  0.61652982194E-01  0.51100000000E-03 0.  1.
         11    1    4    4    0    0  0.76928243345E-01 -0.24607558202E-01  0.10428482895E-01  0.81440167739E-01  0.51100000000E-03 0. -1.
</event>
<event>
 8    1  0.2837913E+004  0.1043930E+01  0.7957747E-01            NaN
         13   -1    0    0    0    0  0.00000000000E+00  0.00000000000E+00  0.74505805969E-08  0.10566000000E+00  0.10566000000E+00 0.  1.
     999900   -1    0    0    0    0 -0.00000000000E+00 -0.00000000000E+00 -0.74505805969E-08  0.93827000000E+00  0.93827000000E+00 0.  1.
     999902    2    1    2    0    0  0.14471730846E-01  0.27731286133E-02  0.18103445799E-02  0.10290841729E+01  0.10289770825E+01 0.  0.
     999903    2    3    3    0    0  0.41021071157E-01 -0.11814960668E+00 -0.41979390975E-01  0.13933998697E+00  0.44847573679E-01 0.  0.
         14    1    1    2    0    0 -0.14471730846E-01 -0.27731286133E-02 -0.18103445799E-02  0.14845827140E-01  0.00000000000E+00 0.  1.
     999901    1    3    3    0    0 -0.26549340312E-01  0.12092273529E+00  0.43789735555E-01  0.88974418589E+00  0.88000000000E+00 0.  1.
        -11    1    4    4    0    0  0.20339221616E-03 -0.37455165359E-01  0.43854064163E-02  0.37715032691E-01  0.51100000000E-03 0.  1.
         11    1    4    4    0    0  0.40817678941E-01 -0.80694441322E-01 -0.46364797391E-01  0.10162495428E+00  0.51100000000E-03 0. -1.
</event>
<event>
 8    1  0.2837913E+004  0.1043930E+01  0.7957747E-01            NaN
         13   -1    0    0    0    0  0.00000000000E+00  0.00000000000E+00  0.74505805969E-08  0.10566000000E+00  0.10566000000E+00 0. -1.
     999900   -1    0    0    0    0 -0.00000000000E+00 -0.00000000000E+00 -0.74505805969E-08  0.93827000000E+00  0.93827000000E+00 0. -1.
     999902    2    1    2    0    0 -0.10024527906E-01  0.73262901829E-02  0.58106810943E-02  0.10302212545E+01  0.10301300421E+01 0.  0.
     999903    2    3    3    0    0 -0.10097576477E+00 -0.53193025242E-01  0.69775791655E-01  0.14116206055E+00  0.45082848538E-01 0.  0.
         14    1    1    2    0    0  0.10024527906E-01 -0.73262901829E-02 -0.58106810943E-02  0.13708745470E-01  0.00000000000E+00 0.  1.
     999901    1    3    3    0    0  0.90951236867E-01  0.60519315425E-01 -0.63965110561E-01  0.88905919398E+00  0.88000000000E+00 0. -1.
        -11    1    4    4    0    0 -0.79639914767E-01 -0.40229817540E-01  0.29879414342E-01  0.94095668156E-01  0.51100000000E-03 0. -1.
         11    1    4    4    0    0 -0.21335850007E-01 -0.12963207701E-01  0.39896377314E-01  0.47066392396E-01  0.51100000000E-03 0.  1.
</event>
<event>
 8    1  0.2837913E+004  0.1043930E+01  0.7957747E-01            NaN
         13   -1    0    0    0    0  0.00000000000E+00  0.00000000000E+00  0.74505805969E-08  0.10566000000E+00  0.10566000000E+00 0.  1.
     999900   -1    0    0    0    0 -0.00000000000E+00 -0.00000000000E+00 -0.74505805969E-08  0.93827000000E+00  0.93827000000E+00 0.  1.
     999902    2    1    2    0    0 -0.14607359799E-01 -0.21199098916E-02  0.11103468819E-02  0.10291279107E+01  0.10290214549E+01 0.  0.
     999903    2    3    3    0    0  0.10899161959E+00  0.18063749067E-01 -0.69412492169E-01  0.13746790898E+00  0.43288101815E-01 0.  0.
         14    1    1    2    0    0  0.14607359799E-01  0.21199098916E-02 -0.11103468819E-02  0.14802089327E-01  0.00000000000E+00 0. -1.
     999901    1    3    3    0    0 -0.12359897939E+00 -0.20183658959E-01  0.70522839051E-01  0.89166000169E+00  0.88000000000E+00 0. -1.
        -11    1    4    4    0    0  0.28109746619E-01  0.20322711265E-01 -0.72708958505E-02  0.35444287207E-01  0.51100000000E-03 0.  1.
         11    1    4    4    0    0  0.80881872969E-01 -0.22589621976E-02 -0.62141596319E-01  0.10202362177E+00  0.51100000000E-03 0. -1.
</event>
<event>
 8    1  0.2837913E+004  0.1043930E+01  0.7957747E-01            NaN
         13   -1    0    0    0    0  0.00000000000E+00  0.00000000000E+00  0.74505805969E-08  0.10566000000E+00  0.10566000000E+00 0.  1.
     999900   -1    0    0    0    0 -0.00000000000E+00 -0.00000000000E+00 -0.74505805969E-08  0.93827000000E+00  0.93827000000E+00 0.  1.
     999902    2    1    2    0    0  0.86966515092E-02 -0.14052768306E-01  0.56751144115E-02  0.10264566212E+01  0.10263078857E+01 0.  0.
     999903    2    3    3    0    0  0.12370539286E+00 -0.36882214297E-01  0.65856162745E-02  0.13867904586E+00  0.50251223504E-01 0.  0.
         14    1    1    2    0    0 -0.86966515092E-02  0.14052768306E-01 -0.56751144115E-02  0.17473378841E-01  0.00000000000E+00 0. -1.
     999901    1    3    3    0    0 -0.11500874135E+00  0.22829445991E-01 -0.91050186303E-03  0.88777757530E+00  0.88000000000E+00 0. -1.
        -11    1    4    4    0    0  0.75637471089E-01 -0.21604542938E-01 -0.20686014946E-01  0.81338524966E-01  0.51100000000E-03 0. -1.
         11    1    4    4    0    0  0.48067921775E-01 -0.15277671359E-01  0.27271631220E-01  0.57340520893E-01  0.51100000000E-03 0.  1.
</event>
<event>
 8    1  0.2837913E+004  0.1043930E+01  0.7957747E-01            NaN
         13   -1    0    0    0    0  0.00000000000E+00  0.00000000000E+00  0.74505805969E-08  0.10566000000E+00  0.10566000000E+00 0.  1.
     999900   -1    0    0    0    0 -0.00000000000E+00 -0.00000000000E+00 -0.74505805969E-08  0.93827000000E+00  0.93827000000E+00 0.  1.
     999902    2    1    2    0    0 -0.28610915023E-02 -0.11179576705E-01 -0.75487782336E-02  0.10301404085E+01  0.10300481098E+01 0.  0.
     999903    2    3    3    0    0 -0.10362659546E+00  0.71808522007E-01  0.39007797953E-01  0.13929349346E+00  0.44566062192E-01 0.  0.
         14    1    1    2    0    0  0.28610915023E-02  0.11179576705E-01  0.75487782336E-02  0.13789591463E-01  0.00000000000E+00 0.  1.
     999901    1    3    3    0    0  0.10076550396E+00 -0.82988098713E-01 -0.46556576187E-01  0.89084691508E+00  0.88000000000E+00 0. -1.
        -11    1    4    4    0    0 -0.10675504791E+00  0.69034128450E-01  0.31968557466E-01  0.13109004894E+00  0.51100000000E-03 0. -1.
         11    1    4    4    0    0  0.31284524449E-02  0.27743935575E-02  0.70392404871E-02  0.82034445173E-02  0.51100000000E-03 0.  1.
</event>
<event>
 8    1  0.2837913E+004  0.1043930E+01  0.7957747E-01            NaN
         13   -1    0    0    0    0  0.00000000000E+00  0.00000000000E+00  0.74505805969E-08  0.10566000000E+00  0.10566000000E+00 0. -1.
     999900   -1    0    0    0    0 -0.00000000000E+00 -0.00000000000E+00 -0.74505805969E-08  0.93827000000E+00  0.93827000000E+00 0.  1.
     999902    2    1    2    0    0  0.62196436880E-02 -0.56242134251E-02 -0.10519493489E-01  0.10304772870E+01  0.10303894718E+01 0.  0.
     999903    2    3    3    0    0  0.32119244426E-01  0.16724802875E-01 -0.13006709455E+00  0.14173553778E+00  0.43129441125E-01 0.  0.
         14    1    1    2    0    0 -0.62196436880E-02  0.56242134251E-02  0.10519493489E-01  0.13452713017E-01  0.00000000000E+00 0.  1.
     999901    1    3    3    0    0 -0.25899600738E-01 -0.22349016300E-01  0.11954760106E+00  0.88874174920E+00  0.88000000000E+00 0. -1.
        -11    1    4    4    0    0  0.46548274766E-02  0.26498077039E-01 -0.69134990715E-01  0.74187084913E-01  0.51100000000E-03 0. -1.
         11    1    4    4    0    0  0.27464416949E-01 -0.97732741641E-02 -0.60932103838E-01  0.67548452872E-01  0.51100000000E-03 0.  1.
</event>
<event>
 8    1  0.2837913E+004  0.1043930E+01  0.7957747E-01            NaN
         13   -1    0    0    0    0  0.00000000000E+00  0.00000000000E+00  0.74505805969E-08  0.10566000000E+00  0.10566000000E+00 0.  1.
     999900   -1    0    0    0    0 -0.00000000000E+00 -0.00000000000E+00 -0.74505805969E-08  0.93827000000E+00  0.93827000000E+00 0.  1.
     999902    2    1    2    0    0  0.87069199007E-02 -0.10012906891E-01  0.46558819973E-03  0.10306527438E+01  0.10305672190E+01 0.  0.
     999903    2    3    3    0    0 -0.43618862997E-01  0.81575480525E-01 -0.93971577268E-01  0.13933641477E+00  0.45020161190E-01 0.  0.
         14    1    1    2    0    0 -0.87069199007E-02  0.10012906891E-01 -0.46558819973E-03  0.13277256153E-01  0.00000000000E+00 0.  1.
     999901    1    3    3    0    0  0.52325782898E-01 -0.91588387416E-01  0.94437165468E-01  0.89131632908E+00  0.88000000000E+00 0.  1.
        -11    1    4    4    0    0 -0.26911397561E-01  0.20767416775E-01 -0.56617169909E-01  0.66039942214E-01  0.51100000000E-03 0. -1.
         11    1    4    4    0    0 -0.16707465436E-01  0.60808063750E-01 -0.37354407359E-01  0.73296472552E-01  0.51100000000E-03 0.  1.
</event>
<event>
 8    1  0.2837913E+004  0.1043930E+01  0.7957747E-01            NaN
         13   -1    0    0    0    0  0.00000000000E+00  0.00000000000E+00  0.74505805969E-08  0.10566000000E+00  0.10566000000E+00 0. -1.
     999900   -1    0    0    0    0 -0.00000000000E+00 -0.00000000000E+00 -0.74505805969E-08  0.93827000000E+00  0.93827000000E+00 0. -1.
     999902    2    1    2    0    0 -0.13114891299E-01 -0.26388041343E-02 -0.27930972760E-02  0.10302637989E+01  0.10301731554E+01 0.  0.
     999903    2    3    3    0    0  0.20043875689E-01  0.13039516702E+00  0.57456465396E-02  0.13960648460E+00  0.45302334977E-01 0.  0.
         14    1    1    2    0    0  0.13114891299E-01  0.26388041343E-02  0.27930972760E-02  0.13666201134E-01  0.00000000000E+00 0.  1.
     999901    1    3    3    0    0 -0.33158766988E-01 -0.13303397115E+00 -0.85387438156E-02  0.89065731427E+00  0.88000000000E+00 0.  1.
        -11    1    4    4    0    0  0.29621113415E-01  0.79873923011E-01 -0.10122503022E-01  0.85790326526E-01  0.51100000000E-03 0. -1.
         11    1    4    4    0    0 -0.95772377253E-02  0.50521244006E-01  0.15868149561E-01  0.53816158074E-01  0.51100000000E-03 0.  1.
</event>
<event>
 8    1  0.2837913E+004  0.1043930E+01  0.7957747E-01            NaN
         13   -1    0    0    0    0  0.00000000000E+00  0.00000000000E+00  0.74505805969E-08  0.10566000000E+00  0.10566000000E+00 0.  1.
     999900   -1    0    0    0    0 -0.00000000000E+00 -0.00000000000E+00 -0.74505805969E-08  0.93827000000E+00  0.93827000000E+00 0.  1.
     999902    2    1    2    0    0 -0.64882984844E-02  0.11901816221E-01  0.61607703176E-04  0.10303743723E+01  0.10302851994E+01 0.  0.
     999903    2    3    3    0    0  0.48493923033E-01 -0.11760717572E+00  0.32206188378E-01  0.13861829706E+00  0.44661900513E-01 0.  0.
         14    1    1    2    0    0  0.64882984844E-02 -0.11901816221E-01 -0.61607703176E-04  0.13555627691E-01  0.00000000000E+00 0. -1.
     999901    1    3    3    0    0 -0.54982221518E-01  0.12950899194E+00 -0.32144580675E-01  0.89175607525E+00  0.88000000000E+00 0. -1.
        -11    1    4    4    0    0  0.17204052378E-01 -0.92329397358E-01  0.16119604836E-01  0.95293230693E-01  0.51100000000E-03 0. -1.
         11    1    4    4    0    0  0.31289870656E-01 -0.25277778363E-01  0.16086583543E-01  0.43325066367E-01  0.51100000000E-03 0.  1.
</event>
<event>
 8    1  0.2837913E+004  0.1043930E+01  0.7957747E-01            NaN
         13   -1    0    0    0    0  0.00000000000E+00  0.00000000000E+00  0.74505805969E-08  0.10566000000E+00  0.10566000000E+00 0. -1.
     999900   -1    0    0    0    0 -0.00000000000E+00 -0.00000000000E+00 -0.74505805969E-08  0.93827000000E+00  0.93827000000E+00 0. -1.
     999902    2    1    2    0    0  0.13730013888E-01  0.10477989781E-02 -0.28263911063E-02  0.10298729857E+01  0.10297770473E+01 0.  0.
     999903    2    3    3    0    0  0.25666213252E-01  0.10886004009E+00  0.71330166654E-01  0.14011731855E+00  0.45117706622E-01 0.  0.
         14    1    1    2    0    0 -0.13730013888E-01 -0.10477989781E-02  0.28263911063E-02  0.14057014290E-01  0.00000000000E+00 0.  1.
     999901    1    3    3    0    0 -0.11936199364E-01 -0.10781224111E+00 -0.74156557761E-01  0.88975566716E+00  0.88000000000E+00 0. -1.
        -11    1    4    4    0    0 -0.33417374493E-02  0.22545636161E-01  0.35651023779E-01  0.42317012378E-01  0.51100000000E-03 0.  1.
         11    1    4    4    0    0  0.29007950701E-01  0.86314403929E-01  0.35679142875E-01  0.97800306169E-01  0.51100000000E-03 0. -1.
</event>
<event>
 8    1  0.2837913E+004  0.1043930E+01  0.7957747E-01            NaN
         13   -1    0    0    0    0  0.00000000000E+00  0.00000000000E+00  0.74505805969E-08  0.10566000000E+00  0.10566000000E+00 0.  1.
     999900   -1    0    0    0    0 -0.00000000000E+00 -0.00000000000E+00 -0.74505805969E-08  0.93827000000E+00  0.93827000000E+00 0.  1.
     999902    2    1    2    0    0  0.61209035325E-02 -0.10803727040E-01 -0.66369185930E-02  0.10298504167E+01  0.10297541678E+01 0.  0.
     999903    2    3    3    0    0 -0.18510106558E-01 -0.10687020550E+00 -0.78983960020E-01  0.14132942686E+00  0.44403559410E-01 0.  0.
         14    1    1    2    0    0 -0.61209035325E-02  0.10803727040E-01  0.66369185930E-02  0.14079583318E-01  0.00000000000E+00 0.  1.
     999901    1    3    3    0    0  0.24631010091E-01  0.96066478464E-01  0.72347041427E-01  0.88852098982E+00  0.88000000000E+00 0. -1.
        -11    1    4    4    0    0 -0.21629625542E-02 -0.68100720187E-01 -0.24322496475E-01  0.72347988588E-01  0.51100000000E-03 0. -1.
         11    1    4    4    0    0 -0.16347144004E-01 -0.38769485316E-01 -0.54661463545E-01  0.68981438276E-01  0.51100000000E-03 0.  1.
</event>
<event>
 8    1  0.2837913E+004  0.1043930E+01  0.7957747E-01            NaN
         13   -1    0    0    0    0  0.00000000000E+00  0.00000000000E+00  0.74505805969E-08  0.10566000000E+00  0.10566000000E+00 0. -1.
     999900   -1    0    0    0    0 -0.00000000000E+00 -0.00000000000E+00 -0.74505805969E-08  0.93827000000E+00  0.93827000000E+00 0.  1.
     999902    2    1    2    0    0  0.32317499255E-02  0.89018908467E-02  0.10153549805E-01  0.10300453883E+01  0.10299518045E+01 0.  0.
     999903    2    3    3    0    0  0.71503215387E-01  0.10378444914E+00 -0.43260693629E-01  0.14071037029E+00  0.45210607174E-01 0.  0.
         14    1    1    2    0    0 -0.32317499255E-02 -0.89018908467E-02 -0.10153549805E-01  0.13884611693E-01  0.00000000000E+00 0. -1.
     999901    1    3    3    0    0 -0.68271465461E-01 -0.94882558292E-01  0.53414243434E-01  0.88933501801E+00  0.88000000000E+00 0.  1.
        -11    1    4    4    0    0  0.12664861335E-01 -0.18742117142E-02 -0.61082833892E-02  0.14194492916E-01  0.51100000000E-03 0.  1.
         11    1    4    4    0    0  0.58838354052E-01  0.10565866085E+00 -0.37152410240E-01  0.12651587738E+00  0.51100000000E-03 0. -1.
</event>
<event>
 8    1  0.2837913E+004  0.1043930E+01  0.7957747E-01            NaN
         13   -1    0    0    0    0  0.00000000000E+00  0.00000000000E+00  0.74505805969E-08  0.10566000000E+00  0.10566000000E+00 0. -1.
     999900   -1    0    0    0    0 -0.00000000000E+00 -0.00000000000E+00 -0.74505805969E-08  0.93827000000E+00  0.93827000000E+00 0.  1.
     999902    2    1    2    0    0  0.80327606069E-02 -0.28026855281E-03 -0.10279870221E-01  0.10308808803E+01  0.10307982877E+01 0.  0.
     999903    2    3    3    0    0  0.57426400334E-01  0.47757322653E-01  0.10927825229E+00  0.14012755502E+00  0.45993933627E-01 0.  0.
         14    1    1    2    0    0 -0.80327606069E-02  0.28026855281E-03  0.10279870221E-01  0.13049119709E-01  0.00000000000E+00 0. -1.
     999901    1    3    3    0    0 -0.49393639727E-01 -0.48037591205E-01 -0.11955812251E+00  0.89075332527E+00  0.88000000000E+00 0.  1.
        -11    1    4    4    0    0  0.24579337057E-02 -0.29633510190E-02  0.33247764972E-01  0.33473838800E-01  0.51100000000E-03 0. -1.
         11    1    4    4    0    0  0.54968466628E-01  0.50720673672E-01  0.76030487322E-01  0.10665371622E+00  0.51100000000E-03 0.  1.
</event>
<event>
 8    1  0.2837913E+004  0.1043930E+01  0.7957747E-01            NaN
         13   -1    0    0    0    0  0.00000000000E+00  0.00000000000E+00  0.74505805969E-08  0.10566000000E+00  0.10566000000E+00 0.  1.
     999900   -1    0    0    0    0 -0.00000000000E+00 -0.00000000000E+00 -0.74505805969E-08  0.93827000000E+00  0.93827000000E+00 0.  1.
     999902    2    1    2    0    0  0.85615142632E-02 -0.36407104197E-02 -0.10298063839E-01  0.10300518006E+01  0.10299583038E+01 0.  0.
     999903    2    3    3    0    0  0.33932512432E-02  0.11530720624E+00 -0.65517775615E-01  0.14031895624E+00  0.45711755539E-01 0.  0.
         14    1    1    2    0    0 -0.85615142632E-02  0.36407104197E-02  0.10298063839E-01  0.13878199367E-01  0.00000000000E+00 0.  1.
     999901    1    3    3    0    0  0.51682630199E-02 -0.11894791666E+00  0.55219711775E-01  0.88973284439E+00  0.88000000000E+00 0.  1.
        -11    1    4    4    0    0  0.22747393813E-01  0.52721666820E-01 -0.21132395296E-01  0.61187068320E-01  0.51100000000E-03 0. -1.
         11    1    4    4    0    0 -0.19354142570E-01  0.62585539419E-01 -0.44385380319E-01  0.79131887922E-01  0.51100000000E-03 0.  1.
</event>
<event>
 8    1  0.2837913E+004  0.1043930E+01  0.7957747E-01            NaN
         13   -1    0    0    0    0  0.00000000000E+00  0.00000000000E+00  0.74505805969E-08  0.10566000000E+00  0.10566000000E+00 0. -1.
     999900   -1    0    0    0    0 -0.00000000000E+00 -0.00000000000E+00 -0.74505805969E-08  0.93827000000E+00  0.93827000000E+00 0.  1.
     999902    2    1    2    0    0  0.81012562538E-02  0.63145896756E-02 -0.10184029868E-01  0.10294656003E+01  0.10293639800E+01 0.  0.
     999903    2    3    3    0    0 -0.40795904225E-01  0.69275838887E-01 -0.10658335374E+00  0.14061922385E+00  0.44162282183E-01 0.  0.
         14    1    1    2    0    0 -0.81012562538E-02 -0.63145896756E-02  0.10184029868E-01  0.14464399746E-01  0.00000000000E+00 0. -1.
     999901    1    3    3    0    0  0.48897160479E-01 -0.62961249211E-01  0.96399323867E-01  0.88884637640E+00  0.88000000000E+00 0. -1.
        -11    1    4    4    0    0 -0.36629082158E-01  0.66204203876E-01 -0.68133383698E-01  0.10181898333E+00  0.51100000000E-03 0. -1.
         11    1    4    4    0    0 -0.41668220672E-02  0.30716350113E-02 -0.38449970037E-01  0.38800240522E-01  0.51100000000E-03 0.  1.
</event>
<event>
 8    1  0.2837913E+004  0.1043930E+01  0.7957747E-01            NaN
         13   -1    0    0    0    0  0.00000000000E+00  0.00000000000E+00  0.74505805969E-08  0.10566000000E+00  0.10566000000E+00 0.  1.
     999900   -1    0    0    0    0 -0.00000000000E+00 -0.00000000000E+00 -0.74505805969E-08  0.93827000000E+00  0.93827000000E+00 0.  1.
     999902    2    1    2    0    0 -0.59064007216E-02 -0.10846196794E-01  0.61502797408E-02  0.10301332071E+01  0.10300408112E+01 0.  0.
     999903    2    3    3    0    0 -0.15348289785E-01 -0.66434314848E-02 -0.12911434213E+00  0.13973816528E+00  0.50759593297E-01 0.  0.
         14    1    1    2    0    0  0.59064007216E-02  0.10846196794E-01 -0.61502797408E-02  0.13796792934E-01  0.00000000000E+00 0. -1.
     999901    1    3    3    0    0  0.94418890632E-02 -0.42027653089E-02  0.13526462187E+00  0.89039504178E+00  0.88000000000E+00 0. -1.
        -11    1    4    4    0    0 -0.47407316642E-02  0.21396902294E-01 -0.38647768068E-01  0.44432117461E-01  0.51100000000E-03 0.  1.
         11    1    4    4    0    0 -0.10607558121E-01 -0.28040333779E-01 -0.90466574061E-01  0.95306047820E-01  0.51100000000E-03 0. -1.
</event>
<event>
 7    1  0.2837913E+004  0.1043930E+01  0.7957747E-01            NaN
         13   -1    0    0    0    0  0.00000000000E+00  0.00000000000E+00  0.74505805969E-08  0.10566000000E+00  0.10566000000E+00 0. -1.
     999900   -1    0    0    0    0 -0.00000000000E+00 -0.00000000000E+00 -0.74505805969E-08  0.93827000000E+00  0.93827000000E+00 0. -1.
     999903    2    1    2    0    0 -0.57237303161E-02  0.83069108155E-01 -0.68334036925E-01  0.11673639809E+00  0.44995646657E-01 0.  0.
         14    1    1    2    0    0 -0.38983880041E-01  0.60850765531E-03 -0.37234109628E-02  0.39166018100E-01  0.00000000000E+00 0. -1.
     999901    1    1    2    0    0  0.44707610357E-01 -0.83677615811E-01  0.72057447888E-01  0.88802758381E+00  0.88000000000E+00 0.  1.
        -11    1    3    3    0    0  0.98828585002E-02  0.75327837000E-01 -0.62430827932E-01  0.98335259783E-01  0.51100000000E-03 0.  1.
         11    1    3    3    0    0 -0.15606588816E-01  0.77412711551E-02 -0.59032089929E-02  0.18401138307E-01  0.51100000000E-03 0. -1.
</event>
<event>
 8    1  0.2837913E+004  0.1043930E+01  0.7957747E-01            NaN
         13   -1    0    0    0    0  0.00000000000E+00  0.00000000000E+00  0.74505805969E-08  0.10566000000E+00  0.10566000000E+00 0. -1.
     999900   -1    0    0    0    0 -0.00000000000E+00 -0.00000000000E+00 -0.74505805969E-08  0.93827000000E+00  0.93827000000E+00 0.  1.
     999902    2    1    2    0    0 -0.20337016703E-02 -0.90130867923E-03 -0.13179983271E-01  0.10305636146E+01  0.10304769301E+01 0.  0.
     999903    2    3    3    0    0  0.36174079256E-01  0.11351164321E+00 -0.60144046417E-01  0.14109423271E+00  0.45791036556E-01 0.  0.
         14    1    1    2    0    0  0.20337016703E-02  0.90130867923E-03  0.13179983271E-01  0.13366385407E-01  0.00000000000E+00 0. -1.
     999901    1    3    3    0    0 -0.38207780926E-01 -0.11441295189E+00  0.46964063146E-01  0.88946938189E+00  0.88000000000E+00 0. -1.
        -11    1    4    4    0    0 -0.68353436310E-02  0.32635800598E-01 -0.29438483868E-01  0.44482612970E-01  0.51100000000E-03 0. -1.
         11    1    4    4    0    0  0.43009422887E-01  0.80875842615E-01 -0.30705562549E-01  0.96611619737E-01  0.51100000000E-03 0.  1.
</event>
<event>
 8    1  0.2837913E+004  0.1043930E+01  0.7957747E-01            NaN
         13   -1    0    0    0    0  0.00000000000E+00  0.00000000000E+00  0.74505805969E-08  0.10566000000E+00  0.10566000000E+00 0.  1.
     999900   -1    0    0    0    0 -0.00000000000E+00 -0.00000000000E+00 -0.74505805969E-08  0.93827000000E+00  0.93827000000E+00 0. -1.
     999902    2    1    2    0    0  0.14899499627E-02  0.86971968099E-03  0.15017986897E-01  0.10288132446E+01  0.10287021804E+01 0.  0.
     999903    2    3    3    0    0  0.55788113065E-01  0.66243363579E-01 -0.97292870013E-01  0.13761420263E+00  0.44398980094E-01 0.  0.
         14    1    1    2    0    0 -0.14899499627E-02 -0.86971968099E-03 -0.15017986897E-01  0.15116755394E-01  0.00000000000E+00 0. -1.
     999901    1    3    3    0    0 -0.54298163103E-01 -0.65373643898E-01  0.11231085691E+00  0.89119904197E+00  0.88000000000E+00 0.  1.
        -11    1    4    4    0    0  0.28372930278E-01  0.92412087777E-02 -0.13838005582E-01  0.32896422780E-01  0.51100000000E-03 0. -1.
         11    1    4    4    0    0  0.27415182788E-01  0.57002154801E-01 -0.83454864432E-01  0.10471777985E+00  0.51100000000E-03 0.  1.
</event>
<event>
 8    1  0.2837913E+004  0.1043930E+01  0.7957747E-01            NaN
         13   -1    0    0    0    0  0.00000000000E+00  0.00000000000E+00  0.74505805969E-08  0.10566000000E+00  0.10566000000E+00 0. -1.
     999900   -1    0    0    0    0 -0.00000000000E+00 -0.00000000000E+00 -0.74505805969E-08  0.93827000000E+00  0.93827000000E+00 0. -1.
     999902    2    1    2    0    0 -0.15304031417E-01 -0.15961367111E-02  0.92857468329E-02  0.10259581853E+01  0.10258007661E+01 0.  0.
     999903    2    3    3    0    0  0.23073644316E-01  0.12592426772E+00 -0.50687269476E-02  0.13582316718E+00  0.45087986034E-01 0.  0.
         14    1    1    2    0    0  0.15304031417E-01  0.15961367111E-02 -0.92857468329E-02  0.17971814718E-01  0.00000000000E+00 0.  1.
     999901    1    3    3    0    0 -0.38377675734E-01 -0.12752040444E+00  0.14354473780E-01  0.89013501811E+00  0.88000000000E+00 0.  1.
        -11    1    4    4    0    0  0.29969682025E-01  0.93783326965E-01 -0.18727881260E-01  0.10022219771E+00  0.51100000000E-03 0. -1.
         11    1    4    4    0    0 -0.68960377085E-02  0.32140940760E-01  0.13659154312E-01  0.35600969460E-01  0.51100000000E-03 0.  1.
</event>
<event>
 8    1  0.2837913E+004  0.1043930E+01  0.7957747E-01            NaN
         13   -1    0    0    0    0  0.00000000000E+00  0.00000000000E+00  0.74505805969E-08  0.10566000000E+00  0.10566000000E+00 0.  1.
     999900   -1    0    0    0    0 -0.00000000000E+00 -0.00000000000E+00 -0.74505805969E-08  0.93827000000E+00  0.93827000000E+00 0. -1.
     999902    2    1    2    0    0  0.13503501862E-01 -0.16990046518E-02  0.21316781966E-02  0.10301541069E+01  0.10300619926E+01 0.  0.
     999903    2    3    3    0    0  0.10120273197E+00 -0.26304596246E-01 -0.83420220253E-01  0.14132582345E+00  0.45608447514E-01 0.  0.
         14    1    1    2    0    0 -0.13503501862E-01  0.16990046518E-02 -0.21316781966E-02  0.13775893121E-01  0.00000000000E+00 0.  1.
     999901    1    3    3    0    0 -0.87699230106E-01  0.24605591594E-01  0.85551898449E-01  0.88882828343E+00  0.88000000000E+00 0. -1.
        -11    1    4    4    0    0  0.29708447284E-01 -0.23822026370E-01 -0.48653641405E-01  0.61786072244E-01  0.51100000000E-03 0. -1.
         11    1    4    4    0    0  0.71494284685E-01 -0.24825698761E-02 -0.34766578847E-01  0.79539751204E-01  0.51100000000E-03 0.  1.
</event>
<event>
 8    1  0.2837913E+004  0.1043930E+01  0.7957747E-01            NaN
         13   -1    0    0    0    0  0.00000000000E+00  0.00000000000E+00  0.74505805969E-08  0.10566000000E+00  0.10566000000E+00 0. -1.
     999900   -1    0    0    0    0 -0.00000000000E+00 -0.00000000000E+00 -0.74505805969E-08  0.93827000000E+00  0.93827000000E+00 0.  1.
     999902    2    1    2    0    0 -0.12187759943E-01 -0.52925215531E-02 -0.19845270169E-02  0.10304953201E+01  0.10304077417E+01 0.  0.
     999903    2    3    3    0    0 -0.83457883284E-01  0.10309528558E+00 -0.11895239097E-02  0.14098535430E+00  0.47766085949E-01 0.  0.
         14    1    1    2    0    0  0.12187759943E-01  0.52925215531E-02  0.19845270169E-02  0.13434679911E-01  0.00000000000E+00 0. -1.
     999901    1    3    3    0    0  0.71270123342E-01 -0.10838780714E+00 -0.79500310725E-03  0.88950996579E+00  0.88000000000E+00 0. -1.
        -11    1    4    4    0    0 -0.50283623913E-01  0.34342685624E-01 -0.16577328003E-01  0.63110473096E-01  0.51100000000E-03 0. -1.
         11    1    4    4    0    0 -0.33174259371E-01  0.68752599959E-01  0.15387804093E-01  0.77874881199E-01  0.51100000000E-03 0.  1.
</event>
<event>
 7    1  0.2837913E+004  0.1043930E+01  0.7957747E-01            NaN
         13   -1    0    0    0    0  0.00000000000E+00  0.00000000000E+00  0.74505805969E-08  0.10566000000E+00  0.10566000000E+00 0. -1.
     999900   -1    0    0    0    0 -0.00000000000E+00 -0.00000000000E+00 -0.74505805969E-08  0.93827000000E+00  0.93827000000E+00 0.  1.
     999902    2    1    2    0    0  0.62904690993E-02  0.31585414855E-02  0.11101157556E-01  0.10307853401E+01  0.10307015258E+01 0.  0.
         14    1    1    2    0    0 -0.62904690993E-02 -0.31585414855E-02 -0.11101157556E-01  0.13144659938E-01  0.00000000000E+00 0.  1.
     999901    1    3    3    0    0  0.52552076365E-01 -0.31604880623E-01 -0.11617178457E+00  0.88975079249E+00  0.88000000000E+00 0.  1.
        -11    1    3    3    0    0 -0.36788249999E-01  0.17704674763E-01  0.93508708767E-01  0.10203416380E+00  0.51100000000E-03 0. -1.
         11    1    3    3    0    0 -0.94733572668E-02  0.17058747346E-01  0.33764233357E-01  0.39000383769E-01  0.51100000000E-03 0.  1.
</event>
<event>
 8    1  0.2837913E+004  0.1043930E+01  0.7957747E-01            NaN
         13   -1    0    0    0    0  0.00000000000E+00  0.00000000000E+00  0.74505805969E-08  0.10566000000E+00  0.10566000000E+00 0. -1.
     999900   -1    0    0    0    0 -0.00000000000E+00 -0.00000000000E+00 -0.74505805969E-08  0.93827000000E+00  0.93827000000E+00 0.  1.
     999902    2    1    2    0    0 -0.11174474670E-01  0.61439433999E-02  0.51185729901E-02  0.10301889406E+01  0.10300972947E+01 0.  0.
     999903    2    3    3    0    0  0.47051278270E-01 -0.12176115964E+00  0.18887876811E-01  0.13893165594E+00  0.43653755242E-01 0.  0.
         14    1    1    2    0    0  0.11174474670E-01 -0.61439433999E-02 -0.51185729901E-02  0.13741059424E-01  0.00000000000E+00 0.  1.
     999901    1    3    3    0    0 -0.58225752940E-01  0.12790510304E+00 -0.13769303821E-01  0.89125728464E+00  0.88000000000E+00 0.  1.
        -11    1    4    4    0    0  0.27347302512E-01 -0.65095503359E-01  0.31997306039E-01  0.77520243981E-01  0.51100000000E-03 0. -1.
         11    1    4    4    0    0  0.19703975759E-01 -0.56665656286E-01 -0.13109429227E-01  0.61411411958E-01  0.51100000000E-03 0.  1.
</event>
<event>
 8    1  0.2837913E+004  0.1043930E+01  0.7957747E-01            NaN
         13   -1    0    0    0    0  0.00000000000E+00  0.00000000000E+00  0.74505805969E-08  0.10566000000E+00  0.10566000000E+00 0. -1.
     999900   -1    0    0    0    0 -0.00000000000E+00 -0.00000000000E+00 -0.74505805969E-08  0.93827000000E+00  0.93827000000E+00 0.  1.
     999902    2    1    2    0    0 -0.14042413150E-01 -0.20249217266E-02  0.23728473465E-02  0.10295452831E+01  0.10294447872E+01 0.  0.
     999903    2    3    3    0    0 -0.35386251373E-02 -0.87124117107E-01  0.10032971175E+00  0.13996799593E+00  0.43838968678E-01 0.  0.
         14    1    1    2    0    0  0.14042413150E-01  0.20249217266E-02 -0.23728473465E-02  0.14384716876E-01  0.00000000000E+00 0.  1.
     999901    1    3    3    0    0 -0.10503788012E-01  0.85099195380E-01 -0.97956864400E-01  0.88957728720E+00  0.88000000000E+00 0.  1.
        -11    1    4    4    0    0 -0.12898312676E-01 -0.41006029748E-01  0.75192413872E-01  0.86614208826E-01  0.51100000000E-03 0.  1.
         11    1    4    4    0    0  0.93596875387E-02 -0.46118087359E-01  0.25137297874E-01  0.53353787100E-01  0.51100000000E-03 0. -1.
</event>
<event>
 8    1  0.2837913E+004  0.1043930E+01  0.7957747E-01            NaN
         13   -1    0    0    0    0  0.00000000000E+00  0.00000000000E+00  0.74505805969E-08  0.10566000000E+00  0.10566000000E+00 0.  1.
     999900   -1    0    0    0    0 -0.00000000000E+00 -0.00000000000E+00 -0.74505805969E-08  0.93827000000E+00  0.93827000000E+00 0.  1.
     999902    2    1    2    0    0  0.38470507318E-02 -0.10861838447E-01 -0.63161735311E-02  0.10307894756E+01  0.10307057144E+01 0.  0.
     999903    2    3    3    0    0  0.45458119898E-01  0.55709867905E-01 -0.11246005137E+00  0.14094128855E+00  0.45245481746E-01 0.  0.
         14    1    1    2    0    0 -0.38470507318E-02  0.10861838447E-01  0.63161735311E-02  0.13140524414E-01  0.00000000000E+00 0.  1.
     999901    1    3    3    0    0 -0.41611069166E-01 -0.66571706353E-01  0.10614387784E+00  0.88984818703E+00  0.88000000000E+00 0. -1.
        -11    1    4    4    0    0  0.91078456621E-02  0.13575520445E-01 -0.67341314398E-01  0.69299071810E-01  0.51100000000E-03 0. -1.
         11    1    4    4    0    0  0.36350274236E-01  0.42134347461E-01 -0.45118736971E-01  0.71642216743E-01  0.51100000000E-03 0.  1.
</event>
<event>
 8    1  0.2837913E+004  0.1043930E+01  0.7957747E-01            NaN
         13   -1    0    0    0    0  0.00000000000E+00  0.00000000000E+00  0.74505805969E-08  0.10566000000E+00  0.10566000000E+00 0. -1.
     999900   -1    0    0    0    0 -0.00000000000E+00 -0.00000000000E+00 -0.74505805969E-08  0.93827000000E+00  0.93827000000E+00 0. -1.
     999902    2    1    2    0    0  0.13209343552E-01  0.25254527383E-02 -0.78773230638E-02  0.10283442088E+01  0.10282260913E+01 0.  0.
     999903    2    3    3    0    0 -0.55335675469E-01 -0.11701889725E+00  0.89694034513E-02  0.13746089240E+00  0.45382677844E-01 0.  0.
         14    1    1    2    0    0 -0.13209343552E-01 -0.25254527383E-02  0.78773230638E-02  0.15585791197E-01  0.00000000000E+00 0. -1.
     999901    1    3    3    0    0  0.68545019021E-01  0.11954434999E+00 -0.16846726515E-01  0.89088331640E+00  0.88000000000E+00 0.  1.
        -11    1    4    4    0    0 -0.41219766376E-02 -0.27453853211E-01  0.19233306388E-01  0.33777003170E-01  0.51100000000E-03 0. -1.
         11    1    4    4    0    0 -0.51213698832E-01 -0.89565044039E-01 -0.10263902936E-01  0.10368388923E+00  0.51100000000E-03 0.  1.
</event>
<event>
 8    1  0.2837913E+004  0.1043930E+01  0.7957747E-01            NaN
         13   -1    0    0    0    0  0.00000000000E+00  0.00000000000E+00  0.74505805969E-08  0.10566000000E+00  0.10566000000E+00 0.  1.
     999900   -1    0    0    0    0 -0.00000000000E+00 -0.00000000000E+00 -0.74505805969E-08  0.93827000000E+00  0.93827000000E+00 0. -1.
     999902    2    1    2    0    0  0.63154864137E-02  0.40778310125E-02  0.15653750003E-01  0.10265646908E+01  0.10264178050E+01 0.  0.
     999903    2    3    3    0    0  0.70997272899E-01 -0.12768220645E-01  0.11065815675E+00  0.13893111761E+00  0.43046342085E-01 0.  0.
         14    1    1    2    0    0 -0.63154864137E-02 -0.40778310125E-02 -0.15653750003E-01  0.17365309198E-01  0.00000000000E+00 0. -1.
     999901    1    3    3    0    0 -0.64681786485E-01  0.16846051657E-01 -0.95004406748E-01  0.88763357319E+00  0.88000000000E+00 0. -1.
        -11    1    4    4    0    0  0.47238805522E-01  0.10608184271E-01  0.49282669255E-01  0.69087487511E-01  0.51100000000E-03 0.  1.
         11    1    4    4    0    0  0.23758467377E-01 -0.23376404915E-01  0.61375487495E-01  0.69843630097E-01  0.51100000000E-03 0. -1.
</event>
<event>
 8    1  0.2837913E+004  0.1043930E+01  0.7957747E-01            NaN
         13   -1    0    0    0    0  0.00000000000E+00  0.00000000000E+00  0.74505805969E-08  0.10566000000E+00  0.10566000000E+00 0. -1.
     999900   -1    0    0    0    0 -0.00000000000E+00 -0.00000000000E+00 -0.74505805969E-08  0.93827000000E+00  0.93827000000E+00 0. -1.
     999902    2    1    2    0    0  0.27085960752E-04  0.10270638299E-01 -0.20593052718E-02  0.10334549113E+01  0.10334018223E+01 0.  0.
     999903    2    3    3    0    0  0.13178376205E+00 -0.23818444189E-01 -0.24996172020E-01  0.14269793711E+00  0.42468981819E-01 0.  0.
         14    1    1    2    0    0 -0.27085960752E-04 -0.10270638299E-01  0.20593052718E-02  0.10475088683E-01  0.00000000000E+00 0. -1.
     999901    1    3    3    0    0 -0.13175667609E+00  0.34089082488E-01  0.22936866749E-01  0.89075697421E+00  0.88000000000E+00 0.  1.
        -11    1    4    4    0    0  0.86138368042E-01  0.48967073279E-02 -0.19781018489E-01  0.88517489825E-01  0.51100000000E-03 0. -1.
         11    1    4    4    0    0  0.45645394008E-01 -0.28715151517E-01 -0.52151535318E-02  0.54180447286E-01  0.51100000000E-03 0.  1.
</event>
<event>
 8    1  0.2837913E+004  0.1043930E+01  0.7957747E-01            NaN
         13   -1    0    0    0    0  0.00000000000E+00  0.00000000000E+00  0.74505805969E-08  0.10566000000E+00  0.10566000000E+00 0.  1.
     999900   -1    0    0    0    0 -0.00000000000E+00 -0.00000000000E+00 -0.74505805969E-08  0.93827000000E+00  0.93827000000E+00 0.  1.
     999902    2    1    2    0    0  0.53279433374E-03 -0.65111805322E-02 -0.54897149876E-02  0.10353967525E+01  0.10353615885E+01 0.  0.
     999903    2    3    3    0    0  0.96272439383E-01 -0.97496191755E-01  0.16874319660E-01  0.14525940248E+00  0.45184746924E-01 0.  0.
         14    1    1    2    0    0 -0.53279433374E-03  0.65111805322E-02  0.54897149876E-02  0.85332474691E-02  0.00000000000E+00 0. -1.
     999901    1    3    3    0    0 -0.95739645050E-01  0.90985011223E-01 -0.22364034648E-01  0.89013735005E+00  0.88000000000E+00 0. -1.
        -11    1    4    4    0    0  0.64060985233E-02 -0.19178500726E-01 -0.10734795330E-01  0.22898688613E-01  0.51100000000E-03 0.  1.
         11    1    4    4    0    0  0.89866340860E-01 -0.78317691029E-01  0.27609114991E-01  0.12236071387E+00  0.51100000000E-03 0. -1.
</event>
<event>
 8    1  0.2837913E+004  0.1043930E+01  0.7957747E-01            NaN
         13   -1    0    0    0    0  0.00000000000E+00  0.00000000000E+00  0.74505805969E-08  0.10566000000E+00  0.10566000000E+00 0. -1.
     999900   -1    0    0    0    0 -0.00000000000E+00 -0.00000000000E+00 -0.74505805969E-08  0.93827000000E+00  0.93827000000E+00 0.  1.
     999902    2    1    2    0    0  0.84322043557E-02  0.91782668257E-02 -0.53697758425E-02  0.10303588120E+01  0.10302694328E+01 0.  0.
     999903    2    3    3    0    0  0.94940369041E-01  0.94604099011E-01  0.14148718277E-01  0.14178568218E+00  0.44038440229E-01 0.  0.
         14    1    1    2    0    0 -0.84322043557E-02 -0.91782668257E-02  0.53697758425E-02  0.13571188040E-01  0.00000000000E+00 0. -1.
     999901    1    3    3    0    0 -0.86508164685E-01 -0.85425832186E-01 -0.19518494120E-01  0.88857312978E+00  0.88000000000E+00 0.  1.
        -11    1    4    4    0    0  0.57969067451E-01  0.75137124856E-01  0.25911741239E-01  0.98375198946E-01  0.51100000000E-03 0. -1.
         11    1    4    4    0    0  0.36971301590E-01  0.19466974155E-01 -0.11763022961E-01  0.43410483229E-01  0.51100000000E-03 0.  1.
</event>
<event>
 8    1  0.2837913E+004  0.1043930E+01  0.7957747E-01            NaN
         13   -1    0    0    0    0  0.00000000000E+00  0.00000000000E+00  0.74505805969E-08  0.10566000000E+00  0.10566000000E+00 0.  1.
     999900   -1    0    0    0    0 -0.00000000000E+00 -0.00000000000E+00 -0.74505805969E-08  0.93827000000E+00  0.93827000000E+00 0.  1.
     999902    2    1    2    0    0 -0.69372929429E-02 -0.11659276673E-01  0.19083227791E-03  0.10303616109E+01  0.10302722689E+01 0.  0.
     999903    2    3    3    0    0 -0.23496173850E-01 -0.13128801799E+00  0.11997301966E-01  0.14203474256E+00  0.47342570542E-01 0.  0.
         14    1    1    2    0    0  0.69372929429E-02  0.11659276673E-01 -0.19083227791E-03  0.13568389103E-01  0.00000000000E+00 0.  1.
     999901    1    3    3    0    0  0.16558880907E-01  0.11962874132E+00 -0.11806469689E-01  0.88832686834E+00  0.88000000000E+00 0.  1.
        -11    1    4    4    0    0 -0.27447307152E-01 -0.13250861957E+00  0.69653703521E-02  0.13550153666E+00  0.51100000000E-03 0.  1.
         11    1    4    4    0    0  0.39511333016E-02  0.12206015821E-02  0.50319316143E-02  0.65332059022E-02  0.51100000000E-03 0. -1.
</event>
<event>
 8    1  0.2837913E+004  0.1043930E+01  0.7957747E-01            NaN
         13   -1    0    0    0    0  0.00000000000E+00  0.00000000000E+00  0.74505805969E-08  0.10566000000E+00  0.10566000000E+00 0.  1.
     999900   -1    0    0    0    0 -0.00000000000E+00 -0.00000000000E+00 -0.74505805969E-08  0.93827000000E+00  0.93827000000E+00 0.  1.
     999902    2    1    2    0    0  0.75140190381E-02 -0.61477208282E-02 -0.11337481303E-01  0.10290037334E+01  0.10288954708E+01 0.  0.
     999903    2    3    3    0    0  0.10848759912E+00 -0.60175373708E-01 -0.48621294461E-01  0.14080064067E+00  0.45498960134E-01 0.  0.
         14    1    1    2    0    0 -0.75140190381E-02  0.61477208282E-02  0.11337481303E-01  0.14926266639E-01  0.00000000000E+00 0.  1.
     999901    1    3    3    0    0 -0.10097358008E+00  0.54027652880E-01  0.37283813158E-01  0.88820309270E+00  0.88000000000E+00 0. -1.
        -11    1    4    4    0    0  0.31963348526E-01 -0.37422414989E-01 -0.33520826073E-01  0.59548297156E-01  0.51100000000E-03 0.  1.
         11    1    4    4    0    0  0.76524250592E-01 -0.22752958719E-01 -0.15100468389E-01  0.81252343509E-01  0.51100000000E-03 0. -1.
</event>
<event>
 8    1  0.2837913E+004  0.1043930E+01  0.7957747E-01            NaN
         13   -1    0    0    0    0  0.00000000000E+00  0.00000000000E+00  0.74505805969E-08  0.10566000000E+00  0.10566000000E+00 0.  1.
     999900   -1    0    0    0    0 -0.00000000000E+00 -0.00000000000E+00 -0.74505805969E-08  0.93827000000E+00  0.93827000000E+00 0. -1.
     999902    2    1    2    0    0 -0.83631489106E-02 -0.10986319972E-01  0.21374285596E-02  0.10299582397E+01  0.10298634693E+01 0.  0.
     999903    2    3    3    0    0 -0.86736647080E-01 -0.40436636047E-01  0.93588627648E-01  0.14126647749E+00  0.45155497511E-01 0.  0.
         14    1    1    2    0    0  0.83631489106E-02  0.10986319972E-01 -0.21374285596E-02  0.13971760343E-01  0.00000000000E+00 0. -1.
     999901    1    3    3    0    0  0.78373498169E-01  0.29450316075E-01 -0.91451199088E-01  0.88869176217E+00  0.88000000000E+00 0. -1.
        -11    1    4    4    0    0 -0.30543137308E-01  0.20168047936E-02  0.10545617094E-01  0.32379343710E-01  0.51100000000E-03 0.  1.
         11    1    4    4    0    0 -0.56193509772E-01 -0.42453440841E-01  0.83043010554E-01  0.10888713378E+00  0.51100000000E-03 0. -1.
</event>
<event>
 8    1  0.2837913E+004  0.1043930E+01  0.7957747E-01            NaN
         13   -1    0    0    0    0  0.00000000000E+00  0.00000000000E+00  0.74505805969E-08  0.10566000000E+00  0.10566000000E+00 0.  1.
     999900   -1    0    0    0    0 -0.00000000000E+00 -0.00000000000E+00 -0.74505805969E-08  0.93827000000E+00  0.93827000000E+00 0.  1.
     999902    2    1    2    0    0  0.11955763408E-01 -0.36840890499E-02  0.54103577540E-02  0.10302997116E+01  0.10302095471E+01 0.  0.
     999903    2    3    3    0    0 -0.38552430252E-01 -0.38359505056E-01  0.12185522604E+00  0.14051722725E+00  0.44030143489E-01 0.  0.
         14    1    1    2    0    0 -0.11955763408E-01  0.36840890499E-02 -0.54103577540E-02  0.13630288399E-01  0.00000000000E+00 0.  1.
     999901    1    3    3    0    0  0.50508193660E-01  0.34675416006E-01 -0.11644486828E+00  0.88978248435E+00  0.88000000000E+00 0.  1.
        -11    1    4    4    0    0  0.61394342356E-02 -0.10967463306E-01  0.50090227277E-01  0.51645618341E-01  0.51100000000E-03 0.  1.
         11    1    4    4    0    0 -0.44691864487E-01 -0.27392041749E-01  0.71764998762E-01  0.88871608913E-01  0.51100000000E-03 0. -1.
</event>
<event>
 8    1  0.2837913E+004  0.1043930E+01  0.7957747E-01            NaN
         13   -1    0    0    0    0  0.00000000000E+00  0.00000000000E+00  0.74505805969E-08  0.10566000000E+00  0.10566000000E+00 0.  1.
     999900   -1    0    0    0    0 -0.00000000000E+00 -0.00000000000E+00 -0.74505805969E-08  0.93827000000E+00  0.93827000000E+00 0.  1.
     999902    2    1    2    0    0  0.34344971074E-02  0.21428290932E-01 -0.15480018569E-01  0.10172729484E+01  0.10169236221E+01 0.  0.
     999903    2    3    3    0    0  0.10210627169E+00  0.65787483799E-01 -0.13146062936E-01  0.13064489540E+00  0.46277272829E-01 0.  0.
         14    1    1    2    0    0 -0.34344971074E-02 -0.21428290932E-01  0.15480018569E-01  0.26657051554E-01  0.00000000000E+00 0.  1.
     999901    1    3    3    0    0 -0.98671774588E-01 -0.44359192866E-01 -0.23339556331E-02  0.88662805304E+00  0.88000000000E+00 0. -1.
        -11    1    4    4    0    0  0.10210199364E-01  0.25939978483E-01 -0.12305851020E-01  0.30476642615E-01  0.51100000000E-03 0.  1.
         11    1    4    4    0    0  0.91896072331E-01  0.39847505315E-01 -0.84021191586E-03  0.10016825279E+00  0.51100000000E-03 0. -1.
</event>
<event>
 8    1  0.2837913E+004  0.1043930E+01  0.7957747E-01            NaN
         13   -1    0    0    0    0  0.00000000000E+00  0.00000000000E+00  0.74505805969E-08  0.10566000000E+00  0.10566000000E+00 0.  1.
     999900   -1    0    0    0    0 -0.00000000000E+00 -0.00000000000E+00 -0.74505805969E-08  0.93827000000E+00  0.93827000000E+00 0. -1.
     999902    2    1    2    0    0 -0.43674965905E-03  0.12730238985E-01  0.50656276546E-02  0.10302219615E+01  0.10301307586E+01 0.  0.
     999903    2    3    3    0    0 -0.10681450306E+00 -0.37451456194E-01 -0.68206123253E-01  0.13937787954E+00  0.44296370295E-01 0.  0.
         14    1    1    2    0    0  0.43674965905E-03 -0.12730238985E-01 -0.50656276546E-02  0.13708038460E-01  0.00000000000E+00 0. -1.
     999901    1    3    3    0    0  0.10637775340E+00  0.50181695179E-01  0.73271750907E-01  0.89084408200E+00  0.88000000000E+00 0.  1.
        -11    1    4    4    0    0 -0.31500517308E-01 -0.30228578649E-02  0.68546515214E-03  0.31656772479E-01  0.51100000000E-03 0.  1.
         11    1    4    4    0    0 -0.75313985753E-01 -0.34428598329E-01 -0.68891588405E-01  0.10772110706E+00  0.51100000000E-03 0. -1.
</event>
<event>
 8    1  0.2837913E+004  0.1043930E+01  0.7957747E-01            NaN
         13   -1    0    0    0    0  0.00000000000E+00  0.00000000000E+00  0.74505805969E-08  0.10566000000E+00  0.10566000000E+00 0. -1.
     999900   -1    0    0    0    0 -0.00000000000E+00 -0.00000000000E+00 -0.74505805969E-08  0.93827000000E+00  0.93827000000E+00 0. -1.
     999902    2    1    2    0    0 -0.60667926890E-02  0.13119387584E-01  0.78552940617E-02  0.10274791657E+01  0.10273474612E+01 0.  0.
     999903    2    3    3    0    0 -0.83355829963E-01 -0.74825838195E-01 -0.64169428936E-01  0.13680777920E+00  0.45294065719E-01 0.  0.
         14    1    1    2    0    0  0.60667926890E-02 -0.13119387584E-01 -0.78552940617E-02  0.16450834292E-01  0.00000000000E+00 0.  1.
     999901    1    3    3    0    0  0.77289037274E-01  0.87945225779E-01  0.72024722998E-01  0.89067138651E+00  0.88000000000E+00 0. -1.
        -11    1    4    4    0    0 -0.28346419542E-01 -0.51648252100E-01 -0.18853565252E-01  0.61860969032E-01  0.51100000000E-03 0.  1.
         11    1    4    4    0    0 -0.55009410420E-01 -0.23177586095E-01 -0.45315863684E-01  0.74946810168E-01  0.51100000000E-03 0. -1.
</event>
<event>
 8    1  0.2837913E+004  0.1043930E+01  0.7957747E-01            NaN
         13   -1    0    0    0    0  0.00000000000E+00  0.00000000000E+00  0.74505805969E-08  0.10566000000E+00  0.10566000000E+00 0.  1.
     999900   -1    0    0    0    0 -0.00000000000E+00 -0.00000000000E+00 -0.74505805969E-08  0.93827000000E+00  0.93827000000E+00 0. -1.
     999902    2    1    2    0    0 -0.11951344626E-02 -0.11627697792E-01 -0.75372608403E-02  0.10300216571E+01  0.10299277509E+01 0.  0.
     999903    2    3    3    0    0  0.64653463376E-01 -0.11756113274E+00 -0.74554734089E-02  0.14122587784E+00  0.43456578676E-01 0.  0.
         14    1    1    2    0    0  0.11951344626E-02  0.11627697792E-01  0.75372608403E-02  0.13908342939E-01  0.00000000000E+00 0.  1.
     999901    1    3    3    0    0 -0.65848597839E-01  0.10593343494E+00 -0.81787431424E-04  0.88879577922E+00  0.88000000000E+00 0.  1.
        -11    1    4    4    0    0  0.12657582291E-01 -0.11046452299E-01 -0.14902296440E-01  0.22462815007E-01  0.51100000000E-03 0.  1.
         11    1    4    4    0    0  0.51995881085E-01 -0.10651468044E+00  0.74468230308E-02  0.11876306283E+00  0.51100000000E-03 0. -1.
</event>
<event>
 8    1  0.2837913E+004  0.1043930E+01  0.7957747E-01            NaN
         13   -1    0    0    0    0  0.00000000000E+00  0.00000000000E+00  0.74505805969E-08  0.10566000000E+00  0.10566000000E+00 0. -1.
     999900   -1    0    0    0    0 -0.00000000000E+00 -0.00000000000E+00 -0.74505805969E-08  0.93827000000E+00  0.93827000000E+00 0.  1.
     999902    2    1    2    0    0  0.12017064580E-01  0.61372238422E-02  0.46093929473E-04  0.10304363911E+01  0.10303480376E+01 0.  0.
     999903    2    3    3    0    0  0.11526524700E+00 -0.73092952208E-02 -0.68465404199E-01  0.14165361590E+00  0.45152323985E-01 0.  0.
         14    1    1    2    0    0 -0.12017064580E-01 -0.61372238422E-02 -0.46093929473E-04  0.13493608941E-01  0.00000000000E+00 0. -1.
     999901    1    3    3    0    0 -0.10324818242E+00  0.13446519063E-01  0.68511498129E-01  0.88878277516E+00  0.88000000000E+00 0. -1.
        -11    1    4    4    0    0  0.43394632312E-01  0.19130806620E-01 -0.26038602892E-01  0.54105007504E-01  0.51100000000E-03 0. -1.
         11    1    4    4    0    0  0.71870614691E-01 -0.26440101841E-01 -0.42426801307E-01  0.87548608393E-01  0.51100000000E-03 0.  1.
</event>
<event>
 8    1  0.2837913E+004  0.1043930E+01  0.7957747E-01            NaN
         13   -1    0    0    0    0  0.00000000000E+00  0.00000000000E+00  0.74505805969E-08  0.10566000000E+00  0.10566000000E+00 0.  1.
     999900   -1    0    0    0    0 -0.00000000000E+00 -0.00000000000E+00 -0.74505805969E-08  0.93827000000E+00  0.93827000000E+00 0.  1.
     999902    2    1    2    0    0  0.86274118185E-02 -0.72608373782E-02 -0.84013020859E-02  0.10298682124E+01  0.10297722083E+01 0.  0.
     999903    2    3    3    0    0 -0.30695247856E-01 -0.66398527645E-01  0.10970913003E+00  0.13914176047E+00  0.44422669654E-01 0.  0.
         14    1    1    2    0    0 -0.86274118185E-02  0.72608373782E-02  0.84013020859E-02  0.14061787612E-01  0.00000000000E+00 0.  1.
     999901    1    3    3    0    0  0.39322659674E-01  0.59137690267E-01 -0.11811043212E+00  0.89072645192E+00  0.88000000000E+00 0.  1.
        -11    1    4    4    0    0 -0.26841713497E-01 -0.50285183571E-01  0.45814536828E-01  0.73132141880E-01  0.51100000000E-03 0.  1.
         11    1    4    4    0    0 -0.38535343587E-02 -0.16113344075E-01  0.63894593205E-01  0.66009618588E-01  0.51100000000E-03 0. -1.
</event>
<event>
 8    1  0.2837913E+004  0.1043930E+01  0.7957747E-01            NaN
         13   -1    0    0    0    0  0.00000000000E+00  0.00000000000E+00  0.74505805969E-08  0.10566000000E+00  0.10566000000E+00 0.  1.
     999900   -1    0    0    0    0 -0.00000000000E+00 -0.00000000000E+00 -0.74505805969E-08  0.93827000000E+00  0.93827000000E+00 0. -1.
     999902    2    1    2    0    0 -0.12904102875E-02 -0.59332281716E-02 -0.11790572597E-01  0.10306677997E+01  0.10305824699E+01 0.  0.
     999903    2    3    3    0    0  0.26024360944E-01  0.42300739997E-01 -0.12472146395E+00  0.14172123287E+00  0.45418545870E-01 0.  0.
         14    1    1    2    0    0  0.12904102875E-02  0.59332281716E-02  0.11790572597E-01  0.13262200323E-01  0.00000000000E+00 0.  1.
     999901    1    3    3    0    0 -0.27314771232E-01 -0.48233968169E-01  0.11293089136E+00  0.88894656681E+00  0.88000000000E+00 0. -1.
        -11    1    4    4    0    0 -0.55286085857E-02 -0.33054632538E-02 -0.39620285414E-01  0.40143738459E-01  0.51100000000E-03 0. -1.
         11    1    4    4    0    0  0.31552969530E-01  0.45606203251E-01 -0.85101178540E-01  0.10157749441E+00  0.51100000000E-03 0.  1.
</event>
<event>
 8    1  0.2837913E+004  0.1043930E+01  0.7957747E-01            NaN
         13   -1    0    0    0    0  0.00000000000E+00  0.00000000000E+00  0.74505805969E-08  0.10566000000E+00  0.10566000000E+00 0.  1.
     999900   -1    0    0    0    0 -0.00000000000E+00 -0.00000000000E+00 -0.74505805969E-08  0.93827000000E+00  0.93827000000E+00 0. -1.
     999902    2    1    2    0    0  0.87807069782E-02 -0.56922127350E-02  0.89456795910E-02  0.10301631091E+01  0.10300711161E+01 0.  0.
     999903    2    3    3    0    0  0.23001127531E-01  0.12626320429E+00  0.32575935026E-01  0.13989750752E+00  0.45151660465E-01 0.  0.
         14    1    1    2    0    0 -0.87807069782E-02  0.56922127350E-02 -0.89456795910E-02  0.13766890869E-01  0.00000000000E+00 0. -1.
     999901    1    3    3    0    0 -0.14220420553E-01 -0.13195541702E+00 -0.23630255435E-01  0.89026560161E+00  0.88000000000E+00 0. -1.
        -11    1    4    4    0    0  0.11044407997E-01  0.24197329763E-01 -0.10325124116E-01  0.28536976446E-01  0.51100000000E-03 0. -1.
         11    1    4    4    0    0  0.11956719534E-01  0.10206587452E+00  0.42901059142E-01  0.11136053107E+00  0.51100000000E-03 0.  1.
</event>
<event>
 8    1  0.2837913E+004  0.1043930E+01  0.7957747E-01            NaN
         13   -1    0    0    0    0  0.00000000000E+00  0.00000000000E+00  0.74505805969E-08  0.10566000000E+00  0.10566000000E+00 0.  1.
     999900   -1    0    0    0    0 -0.00000000000E+00 -0.00000000000E+00 -0.74505805969E-08  0.93827000000E+00  0.93827000000E+00 0.  1.
     999902    2    1    2    0    0  0.37839976838E-02 -0.78821652333E-02  0.10921163527E-01  0.10299400400E+01  0.10298450209E+01 0.  0.
     999903    2    3    3    0    0 -0.64960578045E-01  0.41604506041E-01  0.10846702324E+00  0.14050766931E+00  0.45016645614E-01 0.  0.
         14    1    1    2    0    0 -0.37839976838E-02  0.78821652333E-02 -0.10921163527E-01  0.13989959972E-01  0.00000000000E+00 0.  1.
     999901    1    3    3    0    0  0.68744575729E-01 -0.49486671274E-01 -0.97545859714E-01  0.88943237071E+00  0.88000000000E+00 0.  1.
        -11    1    4    4    0    0 -0.24148654125E-01  0.30741546933E-01  0.81513257757E-01  0.90403940816E-01  0.51100000000E-03 0. -1.
         11    1    4    4    0    0 -0.40811923920E-01  0.10862959108E-01  0.26953765485E-01  0.50103728498E-01  0.51100000000E-03 0.  1.
</event>
<event>
 8    1  0.2837913E+004  0.1043930E+01  0.7957747E-01            NaN
         13   -1    0    0    0    0  0.00000000000E+00  0.00000000000E+00  0.74505805969E-08  0.10566000000E+00  0.10566000000E+00 0. -1.
     999900   -1    0    0    0    0 -0.00000000000E+00 -0.00000000000E+00 -0.74505805969E-08  0.93827000000E+00  0.93827000000E+00 0.  1.
     999902    2    1    2    0    0  0.18630735229E-02  0.11296870507E-02 -0.10274121615E-01  0.10334273903E+01  0.10333740205E+01 0.  0.
     999903    2    3    3    0    0 -0.10342185256E+00 -0.13032419410E-01  0.85157203395E-01  0.14191596652E+00  0.44971865860E-01 0.  0.
         14    1    1    2    0    0 -0.18630735229E-02 -0.11296870507E-02  0.10274121615E-01  0.10502609711E-01  0.00000000000E+00 0. -1.
     999901    1    3    3    0    0  0.10528492609E+00  0.14162106461E-01 -0.95431325011E-01  0.89151142377E+00  0.88000000000E+00 0.  1.
        -11    1    4    4    0    0 -0.48770915859E-01  0.94800807186E-03  0.66547476338E-01  0.82512597105E-01  0.51100000000E-03 0.  1.
         11    1    4    4    0    0 -0.54650936706E-01 -0.13980427482E-01  0.18609727057E-01  0.59403369413E-01  0.51100000000E-03 0. -1.
</event>
<event>
 8    1  0.2837913E+004  0.1043930E+01  0.7957747E-01            NaN
         13   -1    0    0    0    0  0.00000000000E+00  0.00000000000E+00  0.74505805969E-08  0.10566000000E+00  0.10566000000E+00 0. -1.
     999900   -1    0    0    0    0 -0.00000000000E+00 -0.00000000000E+00 -0.74505805969E-08  0.93827000000E+00  0.93827000000E+00 0.  1.
     999902    2    1    2    0    0 -0.13998852906E-01 -0.35295271444E-02  0.67152445022E-03  0.10294774435E+01  0.10293759907E+01 0.  0.
     999903    2    3    3    0    0  0.92492379854E-01 -0.24064298785E-02 -0.92835767399E-01  0.13813841841E+00  0.43624668443E-01 0.  0.
         14    1    1    2    0    0  0.13998852906E-01  0.35295271444E-02 -0.67152445022E-03  0.14452556509E-01  0.00000000000E+00 0.  1.
     999901    1    3    3    0    0 -0.10649123276E+00 -0.11230972659E-02  0.93507291849E-01  0.89133902508E+00  0.88000000000E+00 0. -1.
        -11    1    4    4    0    0  0.39907206387E-01  0.13671197965E-01 -0.62296349692E-01  0.75236846567E-01  0.51100000000E-03 0.  1.
         11    1    4    4    0    0  0.52585173466E-01 -0.16077627843E-01 -0.30539417707E-01  0.62901571844E-01  0.51100000000E-03 0. -1.
</event>
<event>
 8    1  0.2837913E+004  0.1043930E+01  0.7957747E-01            NaN
         13   -1    0    0    0    0  0.00000000000E+00  0.00000000000E+00  0.74505805969E-08  0.10566000000E+00  0.10566000000E+00 0.  1.
     999900   -1    0    0    0    0 -0.00000000000E+00 -0.00000000000E+00 -0.74505805969E-08  0.93827000000E+00  0.93827000000E+00 0. -1.
     999902    2    1    2    0    0 -0.72882785277E-05 -0.14474887307E-01 -0.20426629540E-02  0.10293116934E+01  0.10292078834E+01 0.  0.
     999903    2    3    3    0    0  0.97207313670E-01  0.62667338752E-01  0.61867241290E-01  0.13830884396E+00  0.43878509480E-01 0.  0.
         14    1    1    2    0    0  0.72882785277E-05  0.14474887307E-01  0.20426629540E-02  0.14618306592E-01  0.00000000000E+00 0.  1.
     999901    1    3    3    0    0 -0.97214601949E-01 -0.77142226058E-01 -0.63909904244E-01  0.89100284945E+00  0.88000000000E+00 0. -1.
        -11    1    4    4    0    0  0.50408622561E-01  0.10559803213E-01  0.39087137963E-01  0.64657591569E-01  0.51100000000E-03 0.  1.
         11    1    4    4    0    0  0.46798691109E-01  0.52107535538E-01  0.22780103327E-01  0.73651252386E-01  0.51100000000E-03 0. -1.
</event>
<event>
 7    1  0.2837913E+004  0.1043930E+01  0.7957747E-01            NaN
         13   -1    0    0    0    0  0.00000000000E+00  0.00000000000E+00  0.74505805969E-08  0.10566000000E+00  0.10566000000E+00 0. -1.
     999900   -1    0    0    0    0 -0.00000000000E+00 -0.00000000000E+00 -0.74505805969E-08  0.93827000000E+00  0.93827000000E+00 0. -1.
     999903    2    1    2    0    0  0.30219445192E-02  0.84197662739E-01 -0.79319942433E-01  0.12346237085E+00  0.43045617533E-01 0.  0.
         14    1    1    2    0    0  0.26244481779E-01  0.11498157050E-01 -0.98967744681E-02  0.30313801877E-01  0.00000000000E+00 0.  1.
     999901    1    1    2    0    0 -0.29266426298E-01 -0.95695819790E-01  0.89216716902E-01  0.89015382727E+00  0.88000000000E+00 0.  1.
        -11    1    3    3    0    0 -0.82988366902E-02  0.81449480913E-02 -0.29829406868E-01  0.32019767409E-01  0.51100000000E-03 0. -1.
         11    1    3    3    0    0  0.11320781209E-01  0.76052714648E-01 -0.49490535565E-01  0.91442603441E-01  0.51100000000E-03 0.  1.
</event>
<event>
 7    1  0.2837913E+004  0.1043930E+01  0.7957747E-01            NaN
         13   -1    0    0    0    0  0.00000000000E+00  0.00000000000E+00  0.74505805969E-08  0.10566000000E+00  0.10566000000E+00 0.  1.
     999900   -1    0    0    0    0 -0.00000000000E+00 -0.00000000000E+00 -0.74505805969E-08  0.93827000000E+00  0.93827000000E+00 0. -1.
     999903    2    1    2    0    0 -0.28454947685E-02  0.36328094481E-03 -0.11440547690E+00  0.12455995715E+00  0.49176630291E-01 0.  0.
         14    1    1    2    0    0  0.26491826645E-01  0.17441659361E-01  0.32564999503E-02  0.31884685229E-01  0.00000000000E+00 0. -1.
     999901    1    1    2    0    0 -0.23646331876E-01 -0.17804940306E-01  0.11114897695E+00  0.88748535762E+00  0.88000000000E+00 0.  1.
        -11    1    3    3    0    0 -0.16788689663E-01  0.11023039115E-01 -0.99559426654E-01  0.10156627417E+00  0.51100000000E-03 0. -1.
         11    1    3    3    0    0  0.13943194895E-01 -0.10659758170E-01 -0.14846050249E-01  0.22993682983E-01  0.51100000000E-03 0.  1.
</event>
<event>
 8    1  0.2837913E+004  0.1043930E+01  0.7957747E-01            NaN
         13   -1    0    0    0    0  0.00000000000E+00  0.00000000000E+00  0.74505805969E-08  0.10566000000E+00  0.10566000000E+00 0.  1.
     999900   -1    0    0    0    0 -0.00000000000E+00 -0.00000000000E+00 -0.74505805969E-08  0.93827000000E+00  0.93827000000E+00 0. -1.
     999902    2    1    2    0    0  0.33501581051E-02 -0.10649239440E-01  0.62171510058E-02  0.10311517831E+01  0.10310726051E+01 0.  0.
     999903    2    3    3    0    0 -0.30053283208E-01 -0.60925489500E-01  0.11642989717E+00  0.14222527287E+00  0.45354075729E-01 0.  0.
         14    1    1    2    0    0 -0.33501581051E-02  0.10649239440E-01 -0.62171510058E-02  0.12778216879E-01  0.00000000000E+00 0. -1.
     999901    1    3    3    0    0  0.33403441313E-01  0.50276250060E-01 -0.11021274616E+00  0.88892651025E+00  0.88000000000E+00 0. -1.
        -11    1    4    4    0    0 -0.20398833440E-01 -0.10365066390E-01  0.12103255710E-01  0.25890093217E-01  0.51100000000E-03 0.  1.
         11    1    4    4    0    0 -0.96544497673E-02 -0.50560423110E-01  0.10432664146E+00  0.11633517965E+00  0.51100000000E-03 0. -1.
</event>
<event>
 8    1  0.2837913E+004  0.1043930E+01  0.7957747E-01            NaN
         13   -1    0    0    0    0  0.00000000000E+00  0.00000000000E+00  0.74505805969E-08  0.10566000000E+00  0.10566000000E+00 0. -1.
     999900   -1    0    0    0    0 -0.00000000000E+00 -0.00000000000E+00 -0.74505805969E-08  0.93827000000E+00  0.93827000000E+00 0.  1.
     999902    2    1    2    0    0  0.89901648991E-02 -0.10032818299E-01 -0.34185688712E-03  0.10304541930E+01  0.10303660740E+01 0.  0.
     999903    2    3    3    0    0 -0.56675292117E-01  0.94048644097E-01 -0.72686309709E-01  0.13895061875E+00  0.44347927113E-01 0.  0.
         14    1    1    2    0    0 -0.89901648991E-02  0.10032818299E-01  0.34185688712E-03  0.13475806991E-01  0.00000000000E+00 0.  1.
     999901    1    3    3    0    0  0.65665457016E-01 -0.10408146240E+00  0.72344452822E-01  0.89150357426E+00  0.88000000000E+00 0.  1.
        -11    1    4    4    0    0 -0.18075505050E-01  0.37041007953E-01 -0.53388714790E-01  0.67449063307E-01  0.51100000000E-03 0. -1.
         11    1    4    4    0    0 -0.38599787067E-01  0.57007636144E-01 -0.19297594919E-01  0.71501555445E-01  0.51100000000E-03 0.  1.
</event>
<event>
 8    1  0.2837913E+004  0.1043930E+01  0.7957747E-01            NaN
         13   -1    0    0    0    0  0.00000000000E+00  0.00000000000E+00  0.74505805969E-08  0.10566000000E+00  0.10566000000E+00 0.  1.
     999900   -1    0    0    0    0 -0.00000000000E+00 -0.00000000000E+00 -0.74505805969E-08  0.93827000000E+00  0.93827000000E+00 0.  1.
     999902    2    1    2    0    0  0.40380706481E-02 -0.19827357667E-02 -0.13386550061E-01  0.10298077842E+01  0.10297109475E+01 0.  0.
     999903    2    3    3    0    0 -0.24462489979E-01  0.24413342520E-01  0.12527808458E+00  0.13810328396E+00  0.46727870209E-01 0.  0.
         14    1    1    2    0    0 -0.40380706481E-02  0.19827357667E-02  0.13386550061E-01  0.14122215768E-01  0.00000000000E+00 0.  1.
     999901    1    3    3    0    0  0.28500560627E-01 -0.26396078287E-01 -0.13866463464E+00  0.89170450027E+00  0.88000000000E+00 0.  1.
        -11    1    4    4    0    0 -0.51605200240E-02 -0.11378944353E-01  0.59254007117E-01  0.60559143174E-01  0.51100000000E-03 0. -1.
         11    1    4    4    0    0 -0.19301969955E-01  0.35792286873E-01  0.66024077467E-01  0.77544140786E-01  0.51100000000E-03 0.  1.
</event>
<event>
 8    1  0.2837913E+004  0.1043930E+01  0.7957747E-01            NaN
         13   -1    0    0    0    0  0.00000000000E+00  0.00000000000E+00  0.74505805969E-08  0.10566000000E+00  0.10566000000E+00 0. -1.
     999900   -1    0    0    0    0 -0.00000000000E+00 -0.00000000000E+00 -0.74505805969E-08  0.93827000000E+00  0.93827000000E+00 0. -1.
     999902    2    1    2    0    0  0.13296530728E-01 -0.43975620701E-02  0.18881982508E-02  0.10297984193E+01  0.10297014532E+01 0.  0.
     999903    2    3    3    0    0  0.12062016251E+00 -0.40563557930E-01  0.42341855213E-01  0.14161891063E+00  0.45480295832E-01 0.  0.
         14    1    1    2    0    0 -0.13296530728E-01  0.43975620701E-02 -0.18881982508E-02  0.14131580739E-01  0.00000000000E+00 0.  1.
     999901    1    3    3    0    0 -0.10732363178E+00  0.36165995860E-01 -0.40453656962E-01  0.88817950863E+00  0.88000000000E+00 0. -1.
        -11    1    4    4    0    0  0.77037693317E-01 -0.35226943023E-01  0.47967108109E-01  0.97349105222E-01  0.51100000000E-03 0.  1.
         11    1    4    4    0    0  0.43582469191E-01 -0.53366149078E-02 -0.56252528954E-02  0.44269805405E-01  0.51100000000E-03 0. -1.
</event>
<event>
 8    1  0.2837913E+004  0.1043930E+01  0.7957747E-01            NaN
         13   -1    0    0    0    0  0.00000000000E+00  0.00000000000E+00  0.74505805969E-08  0.10566000000E+00  0.10566000000E+00 0.  1.
     999900   -1    0    0    0    0 -0.00000000000E+00 -0.00000000000E+00 -0.74505805969E-08  0.93827000000E+00  0.93827000000E+00 0. -1.
     999902    2    1    2    0    0 -0.98829188242E-02 -0.31785052677E-02 -0.80757792436E-02  0.10307773124E+01  0.10306933951E+01 0.  0.
     999903    2    3    3    0    0 -0.46087313673E-01 -0.10952590658E+00  0.61321742645E-01  0.14092533371E+00  0.44493020404E-01 0.  0.
         14    1    1    2    0    0  0.98829188242E-02  0.31785052677E-02  0.80757792436E-02  0.13152687581E-01  0.00000000000E+00 0.  1.
     999901    1    3    3    0    0  0.36204394848E-01  0.10634740132E+00 -0.69397521888E-01  0.88985197871E+00  0.88000000000E+00 0.  1.
        -11    1    4    4    0    0  0.69659785314E-02 -0.29999659161E-01  0.97854528433E-02  0.32319044154E-01  0.51100000000E-03 0. -1.
         11    1    4    4    0    0 -0.53053292204E-01 -0.79526247423E-01  0.51536289801E-01  0.10860628955E+00  0.51100000000E-03 0.  1.
</event>
<event>
 8    1  0.2837913E+004  0.1043930E+01  0.7957747E-01            NaN
         13   -1    0    0    0    0  0.00000000000E+00  0.00000000000E+00  0.74505805969E-08  0.10566000000E+00  0.10566000000E+00 0. -1.
     999900   -1    0    0    0    0 -0.00000000000E+00 -0.00000000000E+00 -0.74505805969E-08  0.93827000000E+00  0.93827000000E+00 0.  1.
     999902    2    1    2    0    0 -0.14049510311E-01  0.40573390056E-02 -0.42038438378E-02  0.10287141187E+01  0.10286015823E+01 0.  0.
     999903    2    3    3    0    0 -0.98695097060E-01 -0.45171232553E-01  0.75398170623E-01  0.13971197682E+00  0.45314345412E-01 0.  0.
         14    1    1    2    0    0  0.14049510311E-01 -0.40573390056E-02  0.42038438378E-02  0.15215881269E-01  0.00000000000E+00 0. -1.
     999901    1    3    3    0    0  0.84645586749E-01  0.49228571559E-01 -0.79602014460E-01  0.88900214191E+00  0.88000000000E+00 0.  1.
        -11    1    4    4    0    0 -0.10716797949E-01  0.92383207701E-02  0.98632669394E-02  0.17255187181E-01  0.51100000000E-03 0. -1.
         11    1    4    4    0    0 -0.87978299111E-01 -0.54409553323E-01  0.65534903683E-01  0.12245678964E+00  0.51100000000E-03 0.  1.
</event>
<event>
 8    1  0.2837913E+004  0.1043930E+01  0.7957747E-01            NaN
         13   -1    0    0    0    0  0.00000000000E+00  0.00000000000E+00  0.74505805969E-08  0.10566000000E+00  0.10566000000E+00 0.  1.
     999900   -1    0    0    0    0 -0.00000000000E+00 -0.00000000000E+00 -0.74505805969E-08  0.93827000000E+00  0.93827000000E+00 0.  1.
     999902    2    1    2    0    0 -0.13227354485E-02 -0.11613898555E-01  0.95623741991E-02  0.10288279714E+01  0.10287171251E+01 0.  0.
     999903    2    3    3    0    0  0.10901238960E+00 -0.89818761790E-02  0.74270642146E-01  0.13957664170E+00  0.44734052328E-01 0.  0.
         14    1    1    2    0    0  0.13227354485E-02  0.11613898555E-01 -0.95623741991E-02  0.15102028640E-01  0.00000000000E+00 0. -1.
     999901    1    3    3    0    0 -0.11033512505E+00 -0.26320223761E-02 -0.64708267947E-01  0.88925132966E+00  0.88000000000E+00 0. -1.
        -11    1    4    4    0    0  0.69593246417E-01 -0.25849836480E-01  0.37929744610E-01  0.83368822950E-01  0.51100000000E-03 0.  1.
         11    1    4    4    0    0  0.39419143182E-01  0.16867960301E-01  0.36340897536E-01  0.56207818750E-01  0.51100000000E-03 0. -1.
</event>
<event>
 8    1  0.2837913E+004  0.1043930E+01  0.7957747E-01            NaN
         13   -1    0    0    0    0  0.00000000000E+00  0.00000000000E+00  0.74505805969E-08  0.10566000000E+00  0.10566000000E+00 0. -1.
     999900   -1    0    0    0    0 -0.00000000000E+00 -0.00000000000E+00 -0.74505805969E-08  0.93827000000E+00  0.93827000000E+00 0.  1.
     999902    2    1    2    0    0 -0.79302801013E-02 -0.18031220394E-02 -0.10457123469E-01  0.10306826598E+01  0.10305975224E+01 0.  0.
     999903    2    3    3    0    0  0.75386386350E-01 -0.10910605239E+00  0.60096424187E-02  0.14010602628E+00  0.44792241323E-01 0.  0.
         14    1    1    2    0    0  0.79302801013E-02  0.18031220394E-02  0.10457123469E-01  0.13247340217E-01  0.00000000000E+00 0. -1.
     999901    1    3    3    0    0 -0.83316666452E-01  0.10730293035E+00 -0.16466765887E-01  0.89057663351E+00  0.88000000000E+00 0.  1.
        -11    1    4    4    0    0  0.66787418464E-01 -0.11207710725E+00  0.29777172766E-02  0.13050274003E+00  0.51100000000E-03 0. -1.
         11    1    4    4    0    0  0.85989678867E-02  0.29710548599E-02  0.30319251421E-02  0.96032862482E-02  0.51100000000E-03 0.  1.
</event>
<event>
 8    1  0.2837913E+004  0.1043930E+01  0.7957747E-01            NaN
         13   -1    0    0    0    0  0.00000000000E+00  0.00000000000E+00  0.74505805969E-08  0.10566000000E+00  0.10566000000E+00 0. -1.
     999900   -1    0    0    0    0 -0.00000000000E+00 -0.00000000000E+00 -0.74505805969E-08  0.93827000000E+00  0.93827000000E+00 0. -1.
     999902    2    1    2    0    0  0.11273262440E-01  0.60720620479E-02 -0.53194113698E-02  0.10300644845E+01  0.10299711596E+01 0.  0.
     999903    2    3    3    0    0  0.94254665447E-01 -0.26429549918E-01  0.89812102014E-01  0.14046217284E+00  0.45617378955E-01 0.  0.
         14    1    1    2    0    0 -0.11273262440E-01 -0.60720620479E-02  0.53194113698E-02  0.13865515529E-01  0.00000000000E+00 0. -1.
     999901    1    3    3    0    0 -0.82981403007E-01  0.32501611966E-01 -0.95131513383E-01  0.88960231163E+00  0.88000000000E+00 0. -1.
        -11    1    4    4    0    0  0.42932650917E-01  0.28896793590E-02  0.16026181686E-01  0.45920174020E-01  0.51100000000E-03 0.  1.
         11    1    4    4    0    0  0.51322014530E-01 -0.29319229277E-01  0.73785920328E-01  0.94541998818E-01  0.51100000000E-03 0. -1.
</event>
<event>
 7    1  0.2837913E+004  0.1043930E+01  0.7957747E-01            NaN
         13   -1    0    0    0    0  0.00000000000E+00  0.00000000000E+00  0.74505805969E-08  0.10566000000E+00  0.10566000000E+00 0.  1.
     999900   -1    0    0    0    0 -0.00000000000E+00 -0.00000000000E+00 -0.74505805969E-08  0.93827000000E+00  0.93827000000E+00 0.  1.
     999903    2    1    2    0    0 -0.23336029531E-01  0.21411158562E-01  0.97672451672E-01  0.11211277010E+00  0.45015079905E-01 0.  0.
         14    1    1    2    0    0 -0.29258164007E-01  0.25602658928E-01  0.15329388484E-01  0.41791463919E-01  0.00000000000E+00 0. -1.
     999901    1    1    2    0    0  0.52594193538E-01 -0.47013817490E-01 -0.11300184016E+00  0.89002576598E+00  0.88000000000E+00 0.  1.
        -11    1    3    3    0    0 -0.21237121216E-01  0.72188563725E-03  0.85302753740E-01  0.87911076396E-01  0.51100000000E-03 0. -1.
         11    1    3    3    0    0 -0.20989083155E-02  0.20689272925E-01  0.12369697932E-01  0.24201693705E-01  0.51100000000E-03 0.  1.
</event>
<event>
 7    1  0.2837913E+004  0.1043930E+01  0.7957747E-01            NaN
         13   -1    0    0    0    0  0.00000000000E+00  0.00000000000E+00  0.74505805969E-08  0.10566000000E+00  0.10566000000E+00 0.  1.
     999900   -1    0    0    0    0 -0.00000000000E+00 -0.00000000000E+00 -0.74505805969E-08  0.93827000000E+00  0.93827000000E+00 0.  1.
     999903    2    1    2    0    0 -0.52776777809E-01 -0.35362898950E-02  0.39131160708E-01  0.79628722461E-01  0.44850775693E-01 0.  0.
         14    1    1    2    0    0  0.29773716384E-01  0.63913782097E-01  0.35201125893E-01  0.78807137959E-01  0.00000000000E+00 0. -1.
     999901    1    1    2    0    0  0.23003061425E-01 -0.60377492202E-01 -0.74332286601E-01  0.88549413958E+00  0.88000000000E+00 0.  1.
        -11    1    3    3    0    0 -0.19362924285E-01  0.19209573338E-01  0.74778481567E-02  0.28286213581E-01  0.51100000000E-03 0.  1.
         11    1    3    3    0    0 -0.33413853524E-01 -0.22745863233E-01  0.31653312552E-01  0.51342508880E-01  0.51100000000E-03 0. -1.
</event>
<event>
 8    1  0.2837913E+004  0.1043930E+01  0.7957747E-01            NaN
         13   -1    0    0    0    0  0.00000000000E+00  0.00000000000E+00  0.74505805969E-08  0.10566000000E+00  0.10566000000E+00 0. -1.
     999900   -1    0    0    0    0 -0.00000000000E+00 -0.00000000000E+00 -0.74505805969E-08  0.93827000000E+00  0.93827000000E+00 0. -1.
     999902    2    1    2    0    0 -0.67207663109E-03 -0.13760750145E-01 -0.28493638685E-02  0.10298612827E+01  0.10297651833E+01 0.  0.
     999903    2    3    3    0    0 -0.79072234865E-01  0.47068112848E-01  0.94110443040E-01  0.13899207821E+00  0.44656430018E-01 0.  0.
         14    1    1    2    0    0  0.67207663109E-03  0.13760750145E-01  0.28493638685E-02  0.14068717284E-01  0.00000000000E+00 0.  1.
     999901    1    3    3    0    0  0.78400158234E-01 -0.60828862993E-01 -0.96959806909E-01  0.89086920451E+00  0.88000000000E+00 0. -1.
        -11    1    4    4    0    0 -0.61716195497E-02  0.17017152044E-01  0.38364895028E-01  0.42424033791E-01  0.51100000000E-03 0.  1.
         11    1    4    4    0    0 -0.72900615315E-01  0.30050960803E-01  0.55745548012E-01  0.96568044418E-01  0.51100000000E-03 0. -1.
</event>
<event>
 8    1  0.2837913E+004  0.1043930E+01  0.7957747E-01            NaN
         13   -1    0    0    0    0  0.00000000000E+00  0.00000000000E+00  0.74505805969E-08  0.10566000000E+00  0.10566000000E+00 0. -1.
     999900   -1    0    0    0    0 -0.00000000000E+00 -0.00000000000E+00 -0.74505805969E-08  0.93827000000E+00  0.93827000000E+00 0.  1.
     999902    2    1    2    0    0 -0.74444850796E-02  0.60985795155E-02  0.97051687828E-02  0.10302623985E+01  0.10301717364E+01 0.  0.
     999903    2    3    3    0    0  0.94430382372E-02 -0.12286867060E+00  0.47521183538E-01  0.13989854532E+00  0.46124385221E-01 0.  0.
         14    1    1    2    0    0  0.74444850796E-02 -0.60985795155E-02 -0.97051687828E-02  0.13667601520E-01  0.00000000000E+00 0.  1.
     999901    1    3    3    0    0 -0.16887523317E-01  0.12896725011E+00 -0.37816014756E-01  0.89036385316E+00  0.88000000000E+00 0. -1.
        -11    1    4    4    0    0  0.22379652572E-02 -0.77841816502E-01  0.58015999098E-02  0.78091462832E-01  0.51100000000E-03 0.  1.
         11    1    4    4    0    0  0.72050729800E-02 -0.45026854095E-01  0.41719583629E-01  0.61807082486E-01  0.51100000000E-03 0. -1.
</event>
<event>
 8    1  0.2837913E+004  0.1043930E+01  0.7957747E-01            NaN
         13   -1    0    0    0    0  0.00000000000E+00  0.00000000000E+00  0.74505805969E-08  0.10566000000E+00  0.10566000000E+00 0. -1.
     999900   -1    0    0    0    0 -0.00000000000E+00 -0.00000000000E+00 -0.74505805969E-08  0.93827000000E+00  0.93827000000E+00 0. -1.
     999902    2    1    2    0    0  0.86020988897E-02 -0.30323081813E-02  0.10093203271E-01  0.10303261862E+01  0.10302363739E+01 0.  0.
     999903    2    3    3    0    0 -0.25550911441E-01  0.96748890054E-01  0.90109855557E-01  0.14042429255E+00  0.39824603808E-01 0.  0.
         14    1    1    2    0    0 -0.86020988897E-02  0.30323081813E-02 -0.10093203271E-01  0.13603813821E-01  0.00000000000E+00 0.  1.
     999901    1    3    3    0    0  0.34153010331E-01 -0.99781198235E-01 -0.80016652286E-01  0.88990189363E+00  0.88000000000E+00 0. -1.
        -11    1    4    4    0    0  0.81295162510E-02  0.18865500730E-01  0.30291905492E-01  0.36604054579E-01  0.51100000000E-03 0.  1.
         11    1    4    4    0    0 -0.33680427692E-01  0.77883389324E-01  0.59817950065E-01  0.10382023797E+00  0.51100000000E-03 0. -1.
</event>
<event>
 8    1  0.2837913E+004  0.1043930E+01  0.7957747E-01            NaN
         13   -1    0    0    0    0  0.00000000000E+00  0.00000000000E+00  0.74505805969E-08  0.10566000000E+00  0.10566000000E+00 0. -1.
     999900   -1    0    0    0    0 -0.00000000000E+00 -0.00000000000E+00 -0.74505805969E-08  0.93827000000E+00  0.93827000000E+00 0.  1.
     999902    2    1    2    0    0  0.17597201763E-02  0.12050424139E-01 -0.56378648584E-02  0.10305100575E+01  0.10304226724E+01 0.  0.
     999903    2    3    3    0    0 -0.11205404527E+00 -0.38034268200E-01 -0.60026567991E-01  0.14010555354E+00  0.44985138096E-01 0.  0.
         14    1    1    2    0    0 -0.17597201763E-02 -0.12050424139E-01  0.56378648584E-02  0.13419942519E-01  0.00000000000E+00 0.  1.
     999901    1    3    3    0    0  0.11381376544E+00  0.50084692340E-01  0.54388703133E-01  0.89040450394E+00  0.88000000000E+00 0. -1.
        -11    1    4    4    0    0 -0.14564800682E-01  0.10219623777E-01 -0.76591381269E-02  0.19377761659E-01  0.51100000000E-03 0. -1.
         11    1    4    4    0    0 -0.97489244585E-01 -0.48253891978E-01 -0.52367429864E-01  0.12072779188E+00  0.51100000000E-03 0.  1.
</event>
<event>
 8    1  0.2837913E+004  0.1043930E+01  0.7957747E-01            NaN
         13   -1    0    0    0    0  0.00000000000E+00  0.00000000000E+00  0.74505805969E-08  0.10566000000E+00  0.10566000000E+00 0. -1.
     999900   -1    0    0    0    0 -0.00000000000E+00 -0.00000000000E+00 -0.74505805969E-08  0.93827000000E+00  0.93827000000E+00 0. -1.
     999902    2    1    2    0    0 -0.13585739380E-01  0.16775944136E-02  0.73542304458E-03  0.10302213354E+01  0.10301301240E+01 0.  0.
     999903    2    3    3    0    0  0.94562031274E-01  0.17441994756E-01 -0.89301668213E-01  0.13890145209E+00  0.45526086014E-01 0.  0.
         14    1    1    2    0    0  0.13585739380E-01 -0.16775944136E-02 -0.73542304458E-03  0.13708664580E-01  0.00000000000E+00 0.  1.
     999901    1    3    3    0    0 -0.10814777065E+00 -0.15764400342E-01  0.90037091258E-01  0.89131988333E+00  0.88000000000E+00 0. -1.
        -11    1    4    4    0    0  0.34312203886E-01  0.29074743746E-01 -0.39843858901E-01  0.60087122351E-01  0.51100000000E-03 0. -1.
         11    1    4    4    0    0  0.60249827388E-01 -0.11632748990E-01 -0.49457809312E-01  0.78814329740E-01  0.51100000000E-03 0.  1.
</event>
<event>
 8    1  0.2837913E+004  0.1043930E+01  0.7957747E-01            NaN
         13   -1    0    0    0    0  0.00000000000E+00  0.00000000000E+00  0.74505805969E-08  0.10566000000E+00  0.10566000000E+00 0.  1.
     999900   -1    0    0    0    0 -0.00000000000E+00 -0.00000000000E+00 -0.74505805969E-08  0.93827000000E+00  0.93827000000E+00 0. -1.
     999902    2    1    2    0    0  0.15232488632E-02 -0.52283014010E-02 -0.12874192379E-01  0.10299514360E+01  0.10298565726E+01 0.  0.
     999903    2    3    3    0    0  0.12705269471E+00  0.28310996652E-01 -0.27717264331E-01  0.14028698065E+00  0.44365419348E-01 0.  0.
         14    1    1    2    0    0 -0.15232488632E-02  0.52283014010E-02  0.12874192379E-01  0.13978564020E-01  0.00000000000E+00 0.  1.
     999901    1    3    3    0    0 -0.12552944585E+00 -0.33539298054E-01  0.14843071952E-01  0.88966445533E+00  0.88000000000E+00 0. -1.
        -11    1    4    4    0    0  0.70438916235E-01  0.23655432958E-01  0.54497282293E-02  0.74506248648E-01  0.51100000000E-03 0. -1.
         11    1    4    4    0    0  0.56613778476E-01  0.46555636945E-02 -0.33166992560E-01  0.65780732005E-01  0.51100000000E-03 0.  1.
</event>
<event>
 8    1  0.2837913E+004  0.1043930E+01  0.7957747E-01            NaN
         13   -1    0    0    0    0  0.00000000000E+00  0.00000000000E+00  0.74505805969E-08  0.10566000000E+00  0.10566000000E+00 0. -1.
     999900   -1    0    0    0    0 -0.00000000000E+00 -0.00000000000E+00 -0.74505805969E-08  0.93827000000E+00  0.93827000000E+00 0. -1.
     999902    2    1    2    0    0  0.10295054276E-01 -0.85440522311E-02 -0.52634882956E-02  0.10295531686E+01  0.10294527837E+01 0.  0.
     999903    2    3    3    0    0 -0.19795448505E-01 -0.12508942171E+00  0.39517038879E-01  0.14023120381E+00  0.45430947103E-01 0.  0.
         14    1    1    2    0    0 -0.10295054276E-01  0.85440522311E-02  0.52634882956E-02  0.14376831366E-01  0.00000000000E+00 0. -1.
     999901    1    3    3    0    0  0.30090502781E-01  0.11654536948E+00 -0.44780527175E-01  0.88932196482E+00  0.88000000000E+00 0. -1.
        -11    1    4    4    0    0 -0.30662850930E-01 -0.50516014871E-01  0.19906340137E-01  0.62358653643E-01  0.51100000000E-03 0. -1.
         11    1    4    4    0    0  0.10867402425E-01 -0.74573406841E-01  0.19610698743E-01  0.77872550167E-01  0.51100000000E-03 0.  1.
</event>
<event>
 8    1  0.2837913E+004  0.1043930E+01  0.7957747E-01            NaN
         13   -1    0    0    0    0  0.00000000000E+00  0.00000000000E+00  0.74505805969E-08  0.10566000000E+00  0.10566000000E+00 0.  1.
     999900   -1    0    0    0    0 -0.00000000000E+00 -0.00000000000E+00 -0.74505805969E-08  0.93827000000E+00  0.93827000000E+00 0.  1.
     999902    2    1    2    0    0  0.71162754394E-03  0.66107201412E-02 -0.12099838355E-01  0.10301236926E+01  0.10300311685E+01 0.  0.
     999903    2    3    3    0    0 -0.14893407968E-01 -0.11867576932E+00  0.53752839007E-01  0.13867722948E+00  0.45124876168E-01 0.  0.
         14    1    1    2    0    0 -0.71162754394E-03 -0.66107201412E-02  0.12099838355E-01  0.13806307355E-01  0.00000000000E+00 0.  1.
     999901    1    3    3    0    0  0.15605035511E-01  0.12528648947E+00 -0.65852677362E-01  0.89144646317E+00  0.88000000000E+00 0.  1.
        -11    1    4    4    0    0 -0.24941853247E-01 -0.88174565246E-01  0.54373822160E-01  0.10655338407E+00  0.51100000000E-03 0.  1.
         11    1    4    4    0    0  0.10048445279E-01 -0.30501204078E-01 -0.62098315269E-03  0.32123845409E-01  0.51100000000E-03 0. -1.
</event>
<event>
 8    1  0.2837913E+004  0.1043930E+01  0.7957747E-01            NaN
         13   -1    0    0    0    0  0.00000000000E+00  0.00000000000E+00  0.74505805969E-08  0.10566000000E+00  0.10566000000E+00 0.  1.
     999900   -1    0    0    0    0 -0.00000000000E+00 -0.00000000000E+00 -0.74505805969E-08  0.93827000000E+00  0.93827000000E+00 0.  1.
     999902    2    1    2    0    0  0.41380714082E-02  0.17497042852E-01  0.17158551444E-01  0.10190767099E+01  0.10187736032E+01 0.  0.
     999903    2    3    3    0    0  0.46367419112E-01 -0.11067538396E+00  0.81028421131E-02  0.12874334831E+00  0.45937082129E-01 0.  0.
         14    1    1    2    0    0 -0.41380714082E-02 -0.17497042852E-01 -0.17158551444E-01  0.24853290148E-01  0.00000000000E+00 0. -1.
     999901    1    3    3    0    0 -0.42229347704E-01  0.12817242681E+00  0.90557093308E-02  0.89033336154E+00  0.88000000000E+00 0. -1.
        -11    1    4    4    0    0 -0.88858263626E-02 -0.24226522316E-01 -0.18012007109E-03  0.25810382754E-01  0.51100000000E-03 0.  1.
         11    1    4    4    0    0  0.55253245474E-01 -0.86448861642E-01  0.82829621842E-02  0.10293296556E+00  0.51100000000E-03 0. -1.
</event>
<event>
 8    1  0.2837913E+004  0.1043930E+01  0.7957747E-01            NaN
         13   -1    0    0    0    0  0.00000000000E+00  0.00000000000E+00  0.74505805969E-08  0.10566000000E+00  0.10566000000E+00 0. -1.
     999900   -1    0    0    0    0 -0.00000000000E+00 -0.00000000000E+00 -0.74505805969E-08  0.93827000000E+00  0.93827000000E+00 0.  1.
     999902    2    1    2    0    0  0.33829716694E-02  0.76217175370E-02  0.10522760785E-01  0.10305037731E+01  0.10304163055E+01 0.  0.
     999903    2    3    3    0    0 -0.35712059036E-02  0.11182678976E+00 -0.71581530930E-01  0.14053289017E+00  0.45908531110E-01 0.  0.
         14    1    1    2    0    0 -0.33829716694E-02 -0.76217175370E-02 -0.10522760785E-01  0.13426226949E-01  0.00000000000E+00 0. -1.
     999901    1    3    3    0    0  0.69541775730E-02 -0.10420507222E+00  0.82104291715E-01  0.88997088288E+00  0.88000000000E+00 0.  1.
        -11    1    4    4    0    0  0.73639227140E-02  0.10949335464E+00 -0.64761960070E-01  0.12742603604E+00  0.51100000000E-03 0. -1.
         11    1    4    4    0    0 -0.10935128618E-01  0.23334351195E-02 -0.68195708594E-02  0.13106854125E-01  0.51100000000E-03 0.  1.
</event>
<event>
 8    1  0.2837913E+004  0.1043930E+01  0.7957747E-01            NaN
         13   -1    0    0    0    0  0.00000000000E+00  0.00000000000E+00  0.74505805969E-08  0.10566000000E+00  0.10566000000E+00 0.  1.
     999900   -1    0    0    0    0 -0.00000000000E+00 -0.00000000000E+00 -0.74505805969E-08  0.93827000000E+00  0.93827000000E+00 0. -1.
     999902    2    1    2    0    0 -0.48710311208E-02  0.72855527497E-04  0.12446042935E-01  0.10305645132E+01  0.10304778405E+01 0.  0.
     999903    2    3    3    0    0 -0.10794628305E+00  0.23601302672E-01 -0.73141764115E-01  0.14011329721E+00  0.45525782623E-01 0.  0.
         14    1    1    2    0    0  0.48710311208E-02 -0.72855527497E-04 -0.12446042935E-01  0.13365486780E-01  0.00000000000E+00 0. -1.
     999901    1    3    3    0    0  0.10307525193E+00 -0.23528447144E-01  0.85587807050E-01  0.89045121601E+00  0.88000000000E+00 0. -1.
        -11    1    4    4    0    0 -0.44366933738E-01  0.31854857103E-01 -0.25760023322E-01  0.60390368875E-01  0.51100000000E-03 0.  1.
         11    1    4    4    0    0 -0.63579349315E-01 -0.82535544317E-02 -0.47381740792E-01  0.79722928330E-01  0.51100000000E-03 0. -1.
</event>
<event>
 8    1  0.2837913E+004  0.1043930E+01  0.7957747E-01            NaN
         13   -1    0    0    0    0  0.00000000000E+00  0.00000000000E+00  0.74505805969E-08  0.10566000000E+00  0.10566000000E+00 0. -1.
     999900   -1    0    0    0    0 -0.00000000000E+00 -0.00000000000E+00 -0.74505805969E-08  0.93827000000E+00  0.93827000000E+00 0.  1.
     999902    2    1    2    0    0 -0.11551436470E-01 -0.45714691842E-02  0.63591414446E-02  0.10299739012E+01  0.10298793446E+01 0.  0.
     999903    2    3    3    0    0 -0.56514535650E-01  0.10003610667E+00  0.66810217760E-01  0.14058154801E+00  0.45808853557E-01 0.  0.
         14    1    1    2    0    0  0.11551436470E-01  0.45714691842E-02 -0.63591414446E-02  0.13956098844E-01  0.00000000000E+00 0.  1.
     999901    1    3    3    0    0  0.44963099180E-01 -0.10460757586E+00 -0.60451076316E-01  0.88939235315E+00  0.88000000000E+00 0.  1.
        -11    1    4    4    0    0 -0.22890358806E-01  0.69182756728E-01  0.60088761089E-01  0.94451800856E-01  0.51100000000E-03 0. -1.
         11    1    4    4    0    0 -0.33624176843E-01  0.30853349947E-01  0.67214566717E-02  0.46129747150E-01  0.51100000000E-03 0.  1.
</event>
<event>
 8    1  0.2837913E+004  0.1043930E+01  0.7957747E-01            NaN
         13   -1    0    0    0    0  0.00000000000E+00  0.00000000000E+00  0.74505805969E-08  0.10566000000E+00  0.10566000000E+00 0.  1.
     999900   -1    0    0    0    0 -0.00000000000E+00 -0.00000000000E+00 -0.74505805969E-08  0.93827000000E+00  0.93827000000E+00 0. -1.
     999902    2    1    2    0    0  0.11853612740E-01 -0.16387466914E-02 -0.70334578919E-02  0.10300496846E+01  0.10299561591E+01 0.  0.
     999903    2    3    3    0    0  0.13056491139E+00  0.26016858956E-01  0.16230780883E-01  0.14134364222E+00  0.44615175812E-01 0.  0.
         14    1    1    2    0    0 -0.11853612740E-01  0.16387466914E-02  0.70334578919E-02  0.13880315401E-01  0.00000000000E+00 0.  1.
     999901    1    3    3    0    0 -0.11871129865E+00 -0.27655605647E-01 -0.23264238775E-01  0.88870604238E+00  0.88000000000E+00 0. -1.
        -11    1    4    4    0    0  0.83009234788E-01  0.13495079272E-01  0.31565226189E-01  0.89829142543E-01  0.51100000000E-03 0. -1.
         11    1    4    4    0    0  0.47555676601E-01  0.12521779684E-01 -0.15334445306E-01  0.51514499680E-01  0.51100000000E-03 0.  1.
</event>
<event>
 8    1  0.2837913E+004  0.1043930E+01  0.7957747E-01            NaN
         13   -1    0    0    0    0  0.00000000000E+00  0.00000000000E+00  0.74505805969E-08  0.10566000000E+00  0.10566000000E+00 0. -1.
     999900   -1    0    0    0    0 -0.00000000000E+00 -0.00000000000E+00 -0.74505805969E-08  0.93827000000E+00  0.93827000000E+00 0.  1.
     999902    2    1    2    0    0  0.33633983009E-02  0.10645442338E-01  0.90039939490E-02  0.10295874131E+01  0.10294875092E+01 0.  0.
     999903    2    3    3    0    0  0.34970256815E-01 -0.11048266802E+00 -0.60898569716E-01  0.13798358799E+00  0.43606145958E-01 0.  0.
         14    1    1    2    0    0 -0.33633983009E-02 -0.10645442338E-01 -0.90039939490E-02  0.14342586857E-01  0.00000000000E+00 0.  1.
     999901    1    3    3    0    0 -0.31606858514E-01  0.12112811036E+00  0.69902563665E-01  0.89160382516E+00  0.88000000000E+00 0. -1.
        -11    1    4    4    0    0  0.36782967440E-02 -0.20264540251E-01 -0.32281854248E-01  0.38295700715E-01  0.51100000000E-03 0. -1.
         11    1    4    4    0    0  0.31291960071E-01 -0.90218127772E-01 -0.28616715468E-01  0.99687887273E-01  0.51100000000E-03 0.  1.
</event>
<event>
 8    1  0.2837913E+004  0.1043930E+01  0.7957747E-01            NaN
         13   -1    0    0    0    0  0.00000000000E+00  0.00000000000E+00  0.74505805969E-08  0.10566000000E+00  0.10566000000E+00 0. -1.
     999900   -1    0    0    0    0 -0.00000000000E+00 -0.00000000000E+00 -0.74505805969E-08  0.93827000000E+00  0.93827000000E+00 0.  1.
     999902    2    1    2    0    0  0.40906991342E-02 -0.12757604194E-01  0.65738960642E-04  0.10305324403E+01  0.10304453483E+01 0.  0.
     999903    2    3    3    0    0  0.12780300253E+00 -0.23074793327E-01 -0.32661789225E-01  0.14121682169E+00  0.44825714844E-01 0.  0.
         14    1    1    2    0    0 -0.40906991342E-02  0.12757604194E-01 -0.65738960642E-04  0.13397559695E-01  0.00000000000E+00 0. -1.
     999901    1    3    3    0    0 -0.12371230340E+00  0.10317189133E-01  0.32727528186E-01  0.88931561861E+00  0.88000000000E+00 0. -1.
        -11    1    4    4    0    0  0.10225125672E+00 -0.10501288893E-03 -0.30857701827E-01  0.10680725355E+00  0.51100000000E-03 0. -1.
         11    1    4    4    0    0  0.25551745811E-01 -0.22969780438E-01 -0.18040873979E-02  0.34409568142E-01  0.51100000000E-03 0.  1.
</event>
<event>
 8    1  0.2837913E+004  0.1043930E+01  0.7957747E-01            NaN
         13   -1    0    0    0    0  0.00000000000E+00  0.00000000000E+00  0.74505805969E-08  0.10566000000E+00  0.10566000000E+00 0. -1.
     999900   -1    0    0    0    0 -0.00000000000E+00 -0.00000000000E+00 -0.74505805969E-08  0.93827000000E+00  0.93827000000E+00 0.  1.
     999902    2    1    2    0    0 -0.23385624365E-02  0.13015463393E-02 -0.12393199395E-01  0.10312511086E+01  0.10311731642E+01 0.  0.
     999903    2    3    3    0    0 -0.70806612081E-01  0.76114898412E-02  0.11170580228E+00  0.13988796626E+00  0.44932680212E-01 0.  0.
         14    1    1    2    0    0  0.23385624365E-02 -0.13015463393E-02  0.12393199395E-01  0.12678891450E-01  0.00000000000E+00 0. -1.
     999901    1    3    3    0    0  0.68468049644E-01 -0.63099435019E-02 -0.12409900167E+00  0.89136314229E+00  0.88000000000E+00 0.  1.
        -11    1    4    4    0    0 -0.13717864234E-01  0.21314206699E-01  0.37465892254E-01  0.45237477933E-01  0.51100000000E-03 0. -1.
         11    1    4    4    0    0 -0.57088747846E-01 -0.13702716858E-01  0.74239910024E-01  0.94650488331E-01  0.51100000000E-03 0.  1.
</event>
<event>
 8    1  0.2837913E+004  0.1043930E+01  0.7957747E-01            NaN
         13   -1    0    0    0    0  0.00000000000E+00  0.00000000000E+00  0.74505805969E-08  0.10566000000E+00  0.10566000000E+00 0. -1.
     999900   -1    0    0    0    0 -0.00000000000E+00 -0.00000000000E+00 -0.74505805969E-08  0.93827000000E+00  0.93827000000E+00 0.  1.
     999902    2    1    2    0    0 -0.47615243359E-02  0.10357211153E-01 -0.82849715774E-02  0.10298379919E+01  0.10297415719E+01 0.  0.
     999903    2    3    3    0    0 -0.73001746737E-01 -0.69048896574E-01  0.84447314996E-01  0.13879291179E+00  0.45112284461E-01 0.  0.
         14    1    1    2    0    0  0.47615243359E-02 -0.10357211153E-01  0.82849715774E-02  0.14092008051E-01  0.00000000000E+00 0.  1.
     999901    1    3    3    0    0  0.68240222401E-01  0.79406107727E-01 -0.92732286573E-01  0.89104508016E+00  0.88000000000E+00 0.  1.
        -11    1    4    4    0    0 -0.53425324806E-01 -0.28260098729E-01  0.67169920368E-01  0.90360156231E-01  0.51100000000E-03 0. -1.
         11    1    4    4    0    0 -0.19576421931E-01 -0.40788797845E-01  0.17277394628E-01  0.48432755562E-01  0.51100000000E-03 0.  1.
</event>
<event>
 8    1  0.2837913E+004  0.1043930E+01  0.7957747E-01            NaN
         13   -1    0    0    0    0  0.00000000000E+00  0.00000000000E+00  0.74505805969E-08  0.10566000000E+00  0.10566000000E+00 0. -1.
     999900   -1    0    0    0    0 -0.00000000000E+00 -0.00000000000E+00 -0.74505805969E-08  0.93827000000E+00  0.93827000000E+00 0.  1.
     999902    2    1    2    0    0  0.34279809239E-02 -0.74918561861E-02  0.80644771429E-02  0.10324011339E+01  0.10323367602E+01 0.  0.
     999903    2    3    3    0    0 -0.33908489070E-01 -0.43604900358E-01  0.12382784192E+00  0.14330084675E+00  0.46374834553E-01 0.  0.
         14    1    1    2    0    0 -0.34279809239E-02  0.74918561861E-02 -0.80644771429E-02  0.11528866116E-01  0.00000000000E+00 0.  1.
     999901    1    3    3    0    0  0.37336469994E-01  0.36113044172E-01 -0.11576336478E+00  0.88910028713E+00  0.88000000000E+00 0.  1.
        -11    1    4    4    0    0 -0.25760338229E-01 -0.42976811276E-01  0.12533008944E+00  0.13497590071E+00  0.51100000000E-03 0. -1.
         11    1    4    4    0    0 -0.81481508410E-02 -0.62808908227E-03 -0.15022475187E-02  0.83249460437E-02  0.51100000000E-03 0.  1.
</event>
<event>
 8    1  0.2837913E+004  0.1043930E+01  0.7957747E-01            NaN
         13   -1    0    0    0    0  0.00000000000E+00  0.00000000000E+00  0.74505805969E-08  0.10566000000E+00  0.10566000000E+00 0.  1.
     999900   -1    0    0    0    0 -0.00000000000E+00 -0.00000000000E+00 -0.74505805969E-08  0.93827000000E+00  0.93827000000E+00 0.  1.
     999902    2    1    2    0    0 -0.11914971888E-01 -0.38141779090E-02 -0.69842491212E-02  0.10296019072E+01  0.10295022064E+01 0.  0.
     999903    2    3    3    0    0 -0.11489377956E+00  0.67323271956E-01 -0.13277802868E-01  0.14072352381E+00  0.43517887995E-01 0.  0.
         14    1    1    2    0    0  0.11914971888E-01  0.38141779090E-02  0.69842491212E-02  0.14328092825E-01  0.00000000000E+00 0. -1.
     999901    1    3    3    0    0  0.10297880767E+00 -0.71137449865E-01  0.62935537466E-02  0.88887838337E+00  0.88000000000E+00 0.  1.
        -11    1    4    4    0    0 -0.98447932246E-01  0.37842094776E-01 -0.16711584397E-01  0.10678744156E+00  0.51100000000E-03 0.  1.
         11    1    4    4    0    0 -0.16445847311E-01  0.29481177181E-01  0.34337815289E-02  0.33936082247E-01  0.51100000000E-03 0. -1.
</event>
<event>
 8    1  0.2837913E+004  0.1043930E+01  0.7957747E-01            NaN
         13   -1    0    0    0    0  0.00000000000E+00  0.00000000000E+00  0.74505805969E-08  0.10566000000E+00  0.10566000000E+00 0. -1.
     999900   -1    0    0    0    0 -0.00000000000E+00 -0.00000000000E+00 -0.74505805969E-08  0.93827000000E+00  0.93827000000E+00 0.  1.
     999902    2    1    2    0    0  0.10380711910E-01 -0.17576409392E-02  0.93520648639E-02  0.10298477559E+01  0.10297514704E+01 0.  0.
     999903    2    3    3    0    0 -0.32972581696E-01 -0.11007099602E+00  0.66746848909E-01  0.14029424308E+00  0.44994638481E-01 0.  0.
         14    1    1    2    0    0 -0.10380711910E-01  0.17576409392E-02 -0.93520648639E-02  0.14082244092E-01  0.00000000000E+00 0.  1.
     999901    1    3    3    0    0  0.43353293606E-01  0.10831335508E+00 -0.57394784045E-01  0.88955351283E+00  0.88000000000E+00 0.  1.
        -11    1    4    4    0    0 -0.39091788499E-01 -0.53349205849E-01  0.31792595441E-01  0.73384848154E-01  0.51100000000E-03 0.  1.
         11    1    4    4    0    0  0.61192068026E-02 -0.56721790174E-01  0.34954253468E-01  0.66909394922E-01  0.51100000000E-03 0. -1.
</event>
<event>
 8    1  0.2837913E+004  0.1043930E+01  0.7957747E-01            NaN
         13   -1    0    0    0    0  0.00000000000E+00  0.00000000000E+00  0.74505805969E-08  0.10566000000E+00  0.10566000000E+00 0. -1.
     999900   -1    0    0    0    0 -0.00000000000E+00 -0.00000000000E+00 -0.74505805969E-08  0.93827000000E+00  0.93827000000E+00 0. -1.
     999902    2    1    2    0    0 -0.92143333034E-03  0.11904050245E-01  0.50296601177E-02  0.10309741931E+01  0.10308927849E+01 0.  0.
     999903    2    3    3    0    0  0.10101042166E+00  0.53151743941E-01  0.70813298876E-01  0.14169416834E+00  0.45105441771E-01 0.  0.
         14    1    1    2    0    0  0.92143333034E-03 -0.11904050245E-01 -0.50296601177E-02  0.12955806903E-01  0.00000000000E+00 0.  1.
     999901    1    3    3    0    0 -0.10193185499E+00 -0.41247693696E-01 -0.65783638758E-01  0.88928002475E+00  0.88000000000E+00 0.  1.
        -11    1    4    4    0    0  0.21286305632E-01 -0.71255729694E-02  0.17132494820E-01  0.28242947745E-01  0.51100000000E-03 0. -1.
         11    1    4    4    0    0  0.79724116026E-01  0.60277316910E-01  0.53680804056E-01  0.11345122060E+00  0.51100000000E-03 0.  1.
</event>
<event>
 8    1  0.2837913E+004  0.1043930E+01  0.7957747E-01            NaN
         13   -1    0    0    0    0  0.00000000000E+00  0.00000000000E+00  0.74505805969E-08  0.10566000000E+00  0.10566000000E+00 0.  1.
     999900   -1    0    0    0    0 -0.00000000000E+00 -0.00000000000E+00 -0.74505805969E-08  0.93827000000E+00  0.93827000000E+00 0.  1.
     999902    2    1    2    0    0  0.44122482968E-02 -0.14431212644E-01  0.20941499110E-02  0.10286947351E+01  0.10285819096E+01 0.  0.
     999903    2    3    3    0    0  0.36846177235E-01  0.75999037219E-01  0.99429208650E-01  0.13813103522E+00  0.45392961174E-01 0.  0.
         14    1    1    2    0    0 -0.44122482968E-02  0.14431212644E-01 -0.20941499110E-02  0.15235264923E-01  0.00000000000E+00 0. -1.
     999901    1    3    3    0    0 -0.32433928938E-01 -0.90430249863E-01 -0.97335058739E-01  0.89056369985E+00  0.88000000000E+00 0.  1.
        -11    1    4    4    0    0  0.14541756274E-02  0.70431374057E-02  0.39506749054E-01  0.40159242437E-01  0.51100000000E-03 0. -1.
         11    1    4    4    0    0  0.35392001608E-01  0.68955899813E-01  0.59922459596E-01  0.97971792787E-01  0.51100000000E-03 0.  1.
</event>
<event>
 8    1  0.2837913E+004  0.1043930E+01  0.7957747E-01            NaN
         13   -1    0    0    0    0  0.00000000000E+00  0.00000000000E+00  0.74505805969E-08  0.10566000000E+00  0.10566000000E+00 0. -1.
     999900   -1    0    0    0    0 -0.00000000000E+00 -0.00000000000E+00 -0.74505805969E-08  0.93827000000E+00  0.93827000000E+00 0.  1.
     999902    2    1    2    0    0  0.87828147436E-02  0.54289288650E-03 -0.10455995984E-01  0.10302639684E+01  0.10301733272E+01 0.  0.
     999903    2    3    3    0    0  0.10441722366E+00 -0.67756845578E-01 -0.50845742876E-01  0.14153334212E+00  0.44186543699E-01 0.  0.
         14    1    1    2    0    0 -0.87828147436E-02 -0.54289288650E-03  0.10455995984E-01  0.13666031594E-01  0.00000000000E+00 0. -1.
     999901    1    3    3    0    0 -0.95634408916E-01  0.68299738464E-01  0.40389746892E-01  0.88873062628E+00  0.88000000000E+00 0. -1.
        -11    1    4    4    0    0  0.65047813401E-01 -0.19341582470E-01 -0.38145389590E-01  0.77850155482E-01  0.51100000000E-03 0. -1.
         11    1    4    4    0    0  0.39369410259E-01 -0.48415263108E-01 -0.12700353286E-01  0.63683186639E-01  0.51100000000E-03 0.  1.
</event>
<event>
 8    1  0.2837913E+004  0.1043930E+01  0.7957747E-01            NaN
         13   -1    0    0    0    0  0.00000000000E+00  0.00000000000E+00  0.74505805969E-08  0.10566000000E+00  0.10566000000E+00 0. -1.
     999900   -1    0    0    0    0 -0.00000000000E+00 -0.00000000000E+00 -0.74505805969E-08  0.93827000000E+00  0.93827000000E+00 0. -1.
     999902    2    1    2    0    0  0.15367385490E-01  0.95364867857E-03 -0.95957198212E-02  0.10257876787E+01  0.10256272315E+01 0.  0.
     999903    2    3    3    0    0 -0.98837935820E-01  0.78717999435E-01  0.82836337101E-02  0.13482762297E+00  0.46307756748E-01 0.  0.
         14    1    1    2    0    0 -0.15367385490E-01 -0.95364867857E-03  0.95957198212E-02  0.18142321282E-01  0.00000000000E+00 0. -1.
     999901    1    3    3    0    0  0.11420532131E+00 -0.77764350756E-01 -0.17879353531E-01  0.89096005575E+00  0.88000000000E+00 0. -1.
        -11    1    4    4    0    0 -0.27388621636E-01 -0.10743195384E-02  0.19939532168E-03  0.27415171659E-01  0.51100000000E-03 0.  1.
         11    1    4    4    0    0 -0.71449314184E-01  0.79792318973E-01  0.80842383885E-02  0.10741245131E+00  0.51100000000E-03 0. -1.
</event>
<event>
 8    1  0.2837913E+004  0.1043930E+01  0.7957747E-01            NaN
         13   -1    0    0    0    0  0.00000000000E+00  0.00000000000E+00  0.74505805969E-08  0.10566000000E+00  0.10566000000E+00 0.  1.
     999900   -1    0    0    0    0 -0.00000000000E+00 -0.00000000000E+00 -0.74505805969E-08  0.93827000000E+00  0.93827000000E+00 0.  1.
     999902    2    1    2    0    0  0.13061754654E-01 -0.40502182648E-03 -0.56766116349E-03  0.10308496439E+01  0.10307666528E+01 0.  0.
     999903    2    3    3    0    0  0.19562905670E-01 -0.82993962460E-01 -0.10279853834E+00  0.14106632737E+00  0.45403349538E-01 0.  0.
         14    1    1    2    0    0 -0.13061754654E-01  0.40502182648E-03  0.56766116349E-03  0.13080356131E-01  0.00000000000E+00 0.  1.
     999901    1    3    3    0    0 -0.65011510157E-02  0.82588940634E-01  0.10223087717E+00  0.88978331650E+00  0.88000000000E+00 0.  1.
        -11    1    4    4    0    0  0.19137783791E-01 -0.24540142106E-01 -0.63232808691E-01  0.70477816077E-01  0.51100000000E-03 0.  1.
         11    1    4    4    0    0  0.42512187931E-03 -0.58453820354E-01 -0.39565729645E-01  0.70588511289E-01  0.51100000000E-03 0. -1.
</event>
<event>
 8    1  0.2837913E+004  0.1043930E+01  0.7957747E-01            NaN
         13   -1    0    0    0    0  0.00000000000E+00  0.00000000000E+00  0.74505805969E-08  0.10566000000E+00  0.10566000000E+00 0. -1.
     999900   -1    0    0    0    0 -0.00000000000E+00 -0.00000000000E+00 -0.74505805969E-08  0.93827000000E+00  0.93827000000E+00 0. -1.
     999902    2    1    2    0    0  0.58474412375E-02  0.11494784253E-01  0.45212996497E-02  0.10302638087E+01  0.10301731654E+01 0.  0.
     999903    2    3    3    0    0 -0.47847053584E-01  0.12353535738E+00  0.21383823036E-01  0.14137656417E+00  0.44494268708E-01 0.  0.
         14    1    1    2    0    0 -0.58474412375E-02 -0.11494784253E-01 -0.45212996497E-02  0.13666191297E-01  0.00000000000E+00 0.  1.
     999901    1    3    3    0    0  0.53694494821E-01 -0.11204057313E+00 -0.16862523386E-01  0.88888724453E+00  0.88000000000E+00 0.  1.
        -11    1    4    4    0    0 -0.26921548336E-01  0.27946372094E-01  0.19669311468E-01  0.43507613272E-01  0.51100000000E-03 0.  1.
         11    1    4    4    0    0 -0.20925505248E-01  0.95588985290E-01  0.17145115684E-02  0.97868950896E-01  0.51100000000E-03 0. -1.
</event>
<event>
 8    1  0.2837913E+004  0.1043930E+01  0.7957747E-01            NaN
         13   -1    0    0    0    0  0.00000000000E+00  0.00000000000E+00  0.74505805969E-08  0.10566000000E+00  0.10566000000E+00 0.  1.
     999900   -1    0    0    0    0 -0.00000000000E+00 -0.00000000000E+00 -0.74505805969E-08  0.93827000000E+00  0.93827000000E+00 0.  1.
     999902    2    1    2    0    0  0.73901545883E-02 -0.88636504085E-02  0.79617667213E-02  0.10299097142E+01  0.10298142799E+01 0.  0.
     999903    2    3    3    0    0 -0.54646571536E-01 -0.75118391930E-01 -0.93446034973E-01  0.13944815505E+00  0.45657484673E-01 0.  0.
         14    1    1    2    0    0 -0.73901545883E-02  0.88636504085E-02 -0.79617667213E-02  0.14020285758E-01  0.00000000000E+00 0.  1.
     999901    1    3    3    0    0  0.62036726124E-01  0.66254741521E-01  0.10140780169E+00  0.89046155920E+00  0.88000000000E+00 0. -1.
        -11    1    4    4    0    0 -0.46464591727E-01 -0.25139876907E-01 -0.49334452407E-01  0.72284998517E-01  0.51100000000E-03 0.  1.
         11    1    4    4    0    0 -0.81819798089E-02 -0.49978515022E-01 -0.44111582566E-01  0.67163156529E-01  0.51100000000E-03 0. -1.
</event>
<event>
 8    1  0.2837913E+004  0.1043930E+01  0.7957747E-01            NaN
         13   -1    0    0    0    0  0.00000000000E+00  0.00000000000E+00  0.74505805969E-08  0.10566000000E+00  0.10566000000E+00 0. -1.
     999900   -1    0    0    0    0 -0.00000000000E+00 -0.00000000000E+00 -0.74505805969E-08  0.93827000000E+00  0.93827000000E+00 0.  1.
     999902    2    1    2    0    0  0.37344607739E-02 -0.12777729392E-01 -0.32202987135E-02  0.10302337637E+01  0.10301427187E+01 0.  0.
     999903    2    3    3    0    0 -0.59172413656E-01  0.64893517608E-01 -0.98369746603E-01  0.13947929981E+00  0.45445845393E-01 0.  0.
         14    1    1    2    0    0 -0.37344607739E-02  0.12777729392E-01  0.32202987135E-02  0.13696236326E-01  0.00000000000E+00 0. -1.
     999901    1    3    3    0    0  0.62906874430E-01 -0.77671246999E-01  0.95149447889E-01  0.89075446386E+00  0.88000000000E+00 0.  1.
        -11    1    4    4    0    0 -0.23579671507E-01  0.11568191730E-01 -0.58111149965E-01  0.63772963233E-01  0.51100000000E-03 0.  1.
         11    1    4    4    0    0 -0.35592742149E-01  0.53325325878E-01 -0.40258596638E-01  0.75706336577E-01  0.51100000000E-03 0. -1.
</event>
<event>
 8    1  0.2837913E+004  0.1043930E+01  0.7957747E-01            NaN
         13   -1    0    0    0    0  0.00000000000E+00  0.00000000000E+00  0.74505805969E-08  0.10566000000E+00  0.10566000000E+00 0.  1.
     999900   -1    0    0    0    0 -0.00000000000E+00 -0.00000000000E+00 -0.74505805969E-08  0.93827000000E+00  0.93827000000E+00 0.  1.
     999902    2    1    2    0    0  0.13668373860E-01 -0.43538340439E-05 -0.19973920257E-02  0.10301164546E+01  0.10300238327E+01 0.  0.
     999903    2    3    3    0    0  0.75543887068E-02 -0.96572894603E-01 -0.90998046553E-01  0.14035020413E+00  0.45101469628E-01 0.  0.
         14    1    1    2    0    0 -0.13668373860E-01  0.43538340439E-05  0.19973920257E-02  0.13813545448E-01  0.00000000000E+00 0.  1.
     999901    1    3    3    0    0  0.61139851535E-02  0.96568540769E-01  0.89000654527E-01  0.88976625042E+00  0.88000000000E+00 0. -1.
        -11    1    4    4    0    0 -0.50849894963E-02 -0.50979824084E-01 -0.74140673979E-01  0.90121585876E-01  0.51100000000E-03 0. -1.
         11    1    4    4    0    0  0.12639378203E-01 -0.45593070519E-01 -0.16857372574E-01  0.50228618255E-01  0.51100000000E-03 0.  1.
</event>
<event>
 8    1  0.2837913E+004  0.1043930E+01  0.7957747E-01            NaN
         13   -1    0    0    0    0  0.00000000000E+00  0.00000000000E+00  0.74505805969E-08  0.10566000000E+00  0.10566000000E+00 0. -1.
     999900   -1    0    0    0    0 -0.00000000000E+00 -0.00000000000E+00 -0.74505805969E-08  0.93827000000E+00  0.93827000000E+00 0.  1.
     999902    2    1    2    0    0 -0.33089104182E-02  0.11177267757E-01  0.57266974626E-03  0.10322591751E+01  0.10321931973E+01 0.  0.
     999903    2    3    3    0    0  0.33090065479E-01  0.95172155436E-01  0.90783687389E-01  0.14292343745E+00  0.45085912128E-01 0.  0.
         14    1    1    2    0    0  0.33089104182E-02 -0.11177267757E-01 -0.57266974626E-03  0.11670824876E-01  0.00000000000E+00 0. -1.
     999901    1    3    3    0    0 -0.36398975897E-01 -0.83994887679E-01 -0.90211017642E-01  0.88933573768E+00  0.88000000000E+00 0.  1.
        -11    1    4    4    0    0  0.21550968981E-01  0.54046892901E-01  0.22513944054E-01  0.62391102684E-01  0.51100000000E-03 0.  1.
         11    1    4    4    0    0  0.11539096498E-01  0.41125262534E-01  0.68269743335E-01  0.80532334764E-01  0.51100000000E-03 0. -1.
</event>
<event>
 8    1  0.2837913E+004  0.1043930E+01  0.7957747E-01            NaN
         13   -1    0    0    0    0  0.00000000000E+00  0.00000000000E+00  0.74505805969E-08  0.10566000000E+00  0.10566000000E+00 0. -1.
     999900   -1    0    0    0    0 -0.00000000000E+00 -0.00000000000E+00 -0.74505805969E-08  0.93827000000E+00  0.93827000000E+00 0.  1.
     999902    2    1    2    0    0  0.71131563445E-02  0.95055255142E-02  0.58846910010E-02  0.10306792794E+01  0.10305940983E+01 0.  0.
     999903    2    3    3    0    0  0.11544062743E+00 -0.32437043477E-01  0.60067245986E-01  0.14139317844E+00  0.44780091752E-01 0.  0.
         14    1    1    2    0    0 -0.71131563445E-02 -0.95055255142E-02 -0.58846910010E-02  0.13250720609E-01  0.00000000000E+00 0. -1.
     999901    1    3    3    0    0 -0.10832747108E+00  0.41942568991E-01 -0.54182554985E-01  0.88928610095E+00  0.88000000000E+00 0. -1.
        -11    1    4    4    0    0  0.59461835934E-01 -0.30689261725E-02  0.91946626916E-02  0.60248910227E-01  0.51100000000E-03 0.  1.
         11    1    4    4    0    0  0.55978791495E-01 -0.29368117305E-01  0.50872583295E-01  0.81144268210E-01  0.51100000000E-03 0. -1.
</event>
<event>
 8    1  0.2837913E+004  0.1043930E+01  0.7957747E-01            NaN
         13   -1    0    0    0    0  0.00000000000E+00  0.00000000000E+00  0.74505805969E-08  0.10566000000E+00  0.10566000000E+00 0.  1.
     999900   -1    0    0    0    0 -0.00000000000E+00 -0.00000000000E+00 -0.74505805969E-08  0.93827000000E+00  0.93827000000E+00 0.  1.
     999902    2    1    2    0    0 -0.13212114229E-01  0.47597269363E-03  0.37975275736E-02  0.10301747200E+01  0.10300828831E+01 0.  0.
     999903    2    3    3    0    0 -0.33587169023E-02  0.12679447321E+00  0.38137644385E-01  0.14043728870E+00  0.46690820543E-01 0.  0.
         14    1    1    2    0    0  0.13212114229E-01 -0.47597269363E-03 -0.37975275736E-02  0.13755280008E-01  0.00000000000E+00 0.  1.
     999901    1    3    3    0    0 -0.98533973271E-02 -0.12631850052E+00 -0.34340116811E-01  0.88973743129E+00  0.88000000000E+00 0.  1.
        -11    1    4    4    0    0 -0.23038945897E-01  0.42691697837E-01  0.17990348562E-01  0.51742514962E-01  0.51100000000E-03 0.  1.
         11    1    4    4    0    0  0.19680228995E-01  0.84102775376E-01  0.20147295823E-01  0.88694773742E-01  0.51100000000E-03 0. -1.
</event>
<event>
 8    1  0.2837913E+004  0.1043930E+01  0.7957747E-01            NaN
         13   -1    0    0    0    0  0.00000000000E+00  0.00000000000E+00  0.74505805969E-08  0.10566000000E+00  0.10566000000E+00 0. -1.
     999900   -1    0    0    0    0 -0.00000000000E+00 -0.00000000000E+00 -0.74505805969E-08  0.93827000000E+00  0.93827000000E+00 0. -1.
     999902    2    1    2    0    0 -0.13317380505E-01 -0.18996042278E-02  0.23529081842E-02  0.10302735987E+01  0.10301830861E+01 0.  0.
     999903    2    3    3    0    0 -0.75613897668E-01  0.20193278508E-01 -0.10791360461E+00  0.14093246315E+00  0.45731642143E-01 0.  0.
         14    1    1    2    0    0  0.13317380505E-01  0.18996042278E-02 -0.23529081842E-02  0.13656401307E-01  0.00000000000E+00 0.  1.
     999901    1    3    3    0    0  0.62296517163E-01 -0.22092882736E-01  0.11026651279E+00  0.88934113554E+00  0.88000000000E+00 0.  1.
        -11    1    4    4    0    0 -0.49210422471E-01  0.12939240455E-01 -0.31710508971E-01  0.59957544342E-01  0.51100000000E-03 0.  1.
         11    1    4    4    0    0 -0.26403475197E-01  0.72540380532E-02 -0.76203095639E-01  0.80974918811E-01  0.51100000000E-03 0. -1.
</event>
<event>
 8    1  0.2837913E+004  0.1043930E+01  0.7957747E-01            NaN
         13   -1    0    0    0    0  0.00000000000E+00  0.00000000000E+00  0.74505805969E-08  0.10566000000E+00  0.10566000000E+00 0.  1.
     999900   -1    0    0    0    0 -0.00000000000E+00 -0.00000000000E+00 -0.74505805969E-08  0.93827000000E+00  0.93827000000E+00 0.  1.
     999902    2    1    2    0    0 -0.24629190440E-01 -0.60069912627E-02  0.54422707164E-02  0.10180012654E+01  0.10176710063E+01 0.  0.
     999903    2    3    3    0    0 -0.12127589131E+00  0.24561980521E-01  0.14388755332E-01  0.13213723161E+00  0.44069025389E-01 0.  0.
         14    1    1    2    0    0  0.24629190440E-01  0.60069912627E-02 -0.54422707164E-02  0.25928734568E-01  0.00000000000E+00 0.  1.
     999901    1    3    3    0    0  0.96646700870E-01 -0.30568971783E-01 -0.89464846156E-02  0.88586403382E+00  0.88000000000E+00 0.  1.
        -11    1    4    4    0    0 -0.39368839459E-01 -0.12682403939E-01  0.38376142048E-02  0.41541994341E-01  0.51100000000E-03 0.  1.
         11    1    4    4    0    0 -0.81907051850E-01  0.37244384460E-01  0.10551141127E-01  0.90595237274E-01  0.51100000000E-03 0. -1.
</event>
<event>
 8    1  0.2837913E+004  0.1043930E+01  0.7957747E-01            NaN
         13   -1    0    0    0    0  0.00000000000E+00  0.00000000000E+00  0.74505805969E-08  0.10566000000E+00  0.10566000000E+00 0.  1.
     999900   -1    0    0    0    0 -0.00000000000E+00 -0.00000000000E+00 -0.74505805969E-08  0.93827000000E+00  0.93827000000E+00 0. -1.
     999902    2    1    2    0    0  0.13842586324E-01  0.70991520212E-02  0.22192651713E-02  0.10282156660E+01  0.10280955770E+01 0.  0.
     999903    2    3    3    0    0 -0.62468488306E-01  0.58285465393E-03 -0.11383765083E+00  0.13729757211E+00  0.44597766889E-01 0.  0.
         14    1    1    2    0    0 -0.13842586324E-01 -0.70991520212E-02 -0.22192651713E-02  0.15714334013E-01  0.00000000000E+00 0.  1.
     999901    1    3    3    0    0  0.76311074630E-01  0.65162973673E-02  0.11605691600E+00  0.89091809387E+00  0.88000000000E+00 0.  1.
        -11    1    4    4    0    0  0.11723283516E-02  0.67589456440E-02 -0.17182467790E-03  0.68810133486E-02  0.51100000000E-03 0. -1.
         11    1    4    4    0    0 -0.63640816657E-01 -0.61760909901E-02 -0.11366582615E+00  0.13041655876E+00  0.51100000000E-03 0.  1.
</event>
<event>
 8    1  0.2837913E+004  0.1043930E+01  0.7957747E-01            NaN
         13   -1    0    0    0    0  0.00000000000E+00  0.00000000000E+00  0.74505805969E-08  0.10566000000E+00  0.10566000000E+00 0. -1.
     999900   -1    0    0    0    0 -0.00000000000E+00 -0.00000000000E+00 -0.74505805969E-08  0.93827000000E+00  0.93827000000E+00 0.  1.
     999902    2    1    2    0    0  0.11698224857E-01 -0.79273325278E-02 -0.20465884941E-02  0.10296513589E+01  0.10295523500E+01 0.  0.
     999903    2    3    3    0    0  0.95867936325E-01  0.64590632847E-01 -0.65671404801E-01  0.14038676791E+00  0.45089911599E-01 0.  0.
         14    1    1    2    0    0 -0.11698224857E-01  0.79273325278E-02  0.20465884941E-02  0.14278641051E-01  0.00000000000E+00 0. -1.
     999901    1    3    3    0    0 -0.84169711468E-01 -0.72517965375E-01  0.63624816307E-01  0.88926459104E+00  0.88000000000E+00 0. -1.
        -11    1    4    4    0    0  0.42583758374E-01  0.44125695882E-02 -0.14989128689E-01  0.45362785932E-01  0.51100000000E-03 0.  1.
         11    1    4    4    0    0  0.53284177951E-01  0.60178063259E-01 -0.50682276112E-01  0.95023981975E-01  0.51100000000E-03 0. -1.
</event>
<event>
 8    1  0.2837913E+004  0.1043930E+01  0.7957747E-01            NaN
         13   -1    0    0    0    0  0.00000000000E+00  0.00000000000E+00  0.74505805969E-08  0.10566000000E+00  0.10566000000E+00 0.  1.
     999900   -1    0    0    0    0 -0.00000000000E+00 -0.00000000000E+00 -0.74505805969E-08  0.93827000000E+00  0.93827000000E+00 0. -1.
     999902    2    1    2    0    0  0.12043157826E-01  0.90875630007E-02 -0.70614158656E-02  0.10272721176E+01  0.10271370496E+01 0.  0.
     999903    2    3    3    0    0  0.12202244542E+00 -0.47831341413E-01  0.20522669776E-02  0.13855491591E+00  0.44899203940E-01 0.  0.
         14    1    1    2    0    0 -0.12043157826E-01 -0.90875630007E-02  0.70614158656E-02  0.16657882390E-01  0.00000000000E+00 0.  1.
     999901    1    3    3    0    0 -0.10997928760E+00  0.56918904414E-01 -0.91136828432E-02  0.88871720170E+00  0.88000000000E+00 0. -1.
        -11    1    4    4    0    0  0.55700170763E-01 -0.32730530289E-01  0.21016263497E-01  0.67939245568E-01  0.51100000000E-03 0. -1.
         11    1    4    4    0    0  0.66322274662E-01 -0.15100811124E-01 -0.18963996519E-01  0.70615670343E-01  0.51100000000E-03 0.  1.
</event>
<event>
 8    1  0.2837913E+004  0.1043930E+01  0.7957747E-01            NaN
         13   -1    0    0    0    0  0.00000000000E+00  0.00000000000E+00  0.74505805969E-08  0.10566000000E+00  0.10566000000E+00 0. -1.
     999900   -1    0    0    0    0 -0.00000000000E+00 -0.00000000000E+00 -0.74505805969E-08  0.93827000000E+00  0.93827000000E+00 0. -1.
     999902    2    1    2    0    0  0.43870661609E-02 -0.48448532604E-02 -0.12107954687E-01  0.10301705843E+01  0.10300786918E+01 0.  0.
     999903    2    3    3    0    0 -0.98815589946E-01  0.46078024567E-01  0.74991044193E-01  0.13841379949E+00  0.40583469746E-01 0.  0.
         14    1    1    2    0    0 -0.43870661609E-02  0.48448532604E-02  0.12107954687E-01  0.13759415661E-01  0.00000000000E+00 0. -1.
     999901    1    3    3    0    0  0.10320265611E+00 -0.50922877827E-01 -0.87098998880E-01  0.89175678485E+00  0.88000000000E+00 0. -1.
        -11    1    4    4    0    0 -0.99433945343E-01  0.39786096544E-01  0.61488090711E-01  0.12349530106E+00  0.51100000000E-03 0. -1.
         11    1    4    4    0    0  0.61835539677E-03  0.62919280229E-02  0.13502953482E-01  0.14918498429E-01  0.51100000000E-03 0.  1.
</event>
<event>
 8    1  0.2837913E+004  0.1043930E+01  0.7957747E-01            NaN
         13   -1    0    0    0    0  0.00000000000E+00  0.00000000000E+00  0.74505805969E-08  0.10566000000E+00  0.10566000000E+00 0.  1.
     999900   -1    0    0    0    0 -0.00000000000E+00 -0.00000000000E+00 -0.74505805969E-08  0.93827000000E+00  0.93827000000E+00 0.  1.
     999902    2    1    2    0    0 -0.40789858760E-02 -0.11603795411E-01 -0.63563045753E-02  0.10300848275E+01  0.10299917781E+01 0.  0.
     999903    2    3    3    0    0 -0.11394462428E+00 -0.33984791771E-01 -0.61161047572E-01  0.14127949034E+00  0.45616632692E-01 0.  0.
         14    1    1    2    0    0  0.40789858760E-02  0.11603795411E-01  0.63563045753E-02  0.13845172500E-01  0.00000000000E+00 0. -1.
     999901    1    3    3    0    0  0.10986563840E+00  0.22380996360E-01  0.54804742996E-01  0.88880533715E+00  0.88000000000E+00 0.  1.
        -11    1    4    4    0    0 -0.86451632489E-01 -0.28133970619E-01 -0.22820010976E-01  0.93735900725E-01  0.51100000000E-03 0. -1.
         11    1    4    4    0    0 -0.27492991791E-01 -0.58508211521E-02 -0.38341036595E-01  0.47543589620E-01  0.51100000000E-03 0.  1.
</event>
<event>
 7    1  0.2837913E+004  0.1043930E+01  0.7957747E-01            NaN
         13   -1    0    0    0    0  0.00000000000E+00  0.00000000000E+00  0.74505805969E-08  0.10566000000E+00  0.10566000000E+00 0.  1.
     999900   -1    0    0    0    0 -0.00000000000E+00 -0.00000000000E+00 -0.74505805969E-08  0.93827000000E+00  0.93827000000E+00 0. -1.
     999902    2    1    2    0    0 -0.74412389990E-02 -0.80375734750E-02  0.77940610649E-02  0.10304867112E+01  0.10303990198E+01 0.  0.
         14    1    1    2    0    0  0.74412389990E-02  0.80375734750E-02 -0.77940610649E-02  0.13443288775E-01  0.00000000000E+00 0. -1.
     999901    1    3    3    0    0  0.31577809687E-01 -0.13542967443E+00 -0.20026729993E-01  0.89114500767E+00  0.88000000000E+00 0.  1.
        -11    1    3    3    0    0 -0.96945129544E-02  0.81010636429E-01  0.18808594395E-01  0.83730108922E-01  0.51100000000E-03 0. -1.
         11    1    3    3    0    0 -0.29324535732E-01  0.46381464530E-01  0.90121966632E-02  0.55611594632E-01  0.51100000000E-03 0.  1.
</event>
<event>
 8    1  0.2837913E+004  0.1043930E+01  0.7957747E-01            NaN
         13   -1    0    0    0    0  0.00000000000E+00  0.00000000000E+00  0.74505805969E-08  0.10566000000E+00  0.10566000000E+00 0.  1.
     999900   -1    0    0    0    0 -0.00000000000E+00 -0.00000000000E+00 -0.74505805969E-08  0.93827000000E+00  0.93827000000E+00 0. -1.
     999902    2    1    2    0    0 -0.61734139713E-02  0.12465207527E-01 -0.16607336659E-02  0.10299210573E+01  0.10298257784E+01 0.  0.
     999903    2    3    3    0    0  0.10510968377E+00  0.79374514980E-01 -0.18016507729E-01  0.14024229810E+00  0.44664844945E-01 0.  0.
         14    1    1    2    0    0  0.61734139713E-02 -0.12465207527E-01  0.16607336659E-02  0.14008942682E-01  0.00000000000E+00 0. -1.
     999901    1    3    3    0    0 -0.11128309774E+00 -0.66909307454E-01  0.16355774063E-01  0.88967875922E+00  0.88000000000E+00 0.  1.
        -11    1    4    4    0    0  0.84713640491E-01  0.82360561434E-01 -0.18638058351E-01  0.11961313183E+00  0.51100000000E-03 0.  1.
         11    1    4    4    0    0  0.20396043278E-01 -0.29860464539E-02  0.62155062194E-03  0.20629166270E-01  0.51100000000E-03 0. -1.
</event>
<event>
 8    1  0.2837913E+004  0.1043930E+01  0.7957747E-01            NaN
         13   -1    0    0    0    0  0.00000000000E+00  0.00000000000E+00  0.74505805969E-08  0.10566000000E+00  0.10566000000E+00 0. -1.
     999900   -1    0    0    0    0 -0.00000000000E+00 -0.00000000000E+00 -0.74505805969E-08  0.93827000000E+00  0.93827000000E+00 0.  1.
     999902    2    1    2    0    0  0.33225612508E-02  0.12786516397E-01 -0.10383119773E-02  0.10306781131E+01  0.10305929169E+01 0.  0.
     999903    2    3    3    0    0 -0.11765726449E+00 -0.45120573668E-01  0.39670141457E-01  0.13958522933E+00  0.45069036693E-01 0.  0.
         14    1    1    2    0    0 -0.33225612508E-02 -0.12786516397E-01  0.10383119773E-02  0.13251886907E-01  0.00000000000E+00 0. -1.
     999901    1    3    3    0    0  0.12097982574E+00  0.57907090065E-01 -0.40708453435E-01  0.89109288376E+00  0.88000000000E+00 0.  1.
        -11    1    4    4    0    0 -0.43328116500E-01 -0.40500434454E-01  0.19354891185E-01  0.62389773233E-01  0.51100000000E-03 0.  1.
         11    1    4    4    0    0 -0.74329147988E-01 -0.46201392143E-02  0.20315250272E-01  0.77195456095E-01  0.51100000000E-03 0. -1.
</event>
<event>
 8    1  0.2837913E+004  0.1043930E+01  0.7957747E-01            NaN
         13   -1    0    0    0    0  0.00000000000E+00  0.00000000000E+00  0.74505805969E-08  0.10566000000E+00  0.10566000000E+00 0. -1.
     999900   -1    0    0    0    0 -0.00000000000E+00 -0.00000000000E+00 -0.74505805969E-08  0.93827000000E+00  0.93827000000E+00 0. -1.
     999902    2    1    2    0    0  0.54445999225E-02  0.11543663473E-01 -0.40324192603E-02  0.10305449247E+01  0.10304579961E+01 0.  0.
     999903    2    3    3    0    0 -0.42279705822E-01 -0.12496215550E+00 -0.10569958008E-01  0.13871860342E+00  0.41569376845E-01 0.  0.
         14    1    1    2    0    0 -0.54445999225E-02 -0.11543663473E-01  0.40324192603E-02  0.13385075263E-01  0.00000000000E+00 0.  1.
     999901    1    3    3    0    0  0.47724305745E-01  0.13650581898E+00  0.65375387481E-02  0.89182632131E+00  0.88000000000E+00 0. -1.
        -11    1    4    4    0    0 -0.34536200688E-01 -0.44487896003E-01  0.44116499672E-02  0.56494653067E-01  0.51100000000E-03 0.  1.
         11    1    4    4    0    0 -0.77435051348E-02 -0.80474259500E-01 -0.14981607976E-01  0.82223950357E-01  0.51100000000E-03 0. -1.
</event>
<event>
 8    1  0.2837913E+004  0.1043930E+01  0.7957747E-01            NaN
         13   -1    0    0    0    0  0.00000000000E+00  0.00000000000E+00  0.74505805969E-08  0.10566000000E+00  0.10566000000E+00 0.  1.
     999900   -1    0    0    0    0 -0.00000000000E+00 -0.00000000000E+00 -0.74505805969E-08  0.93827000000E+00  0.93827000000E+00 0. -1.
     999902    2    1    2    0    0  0.78598480752E-02 -0.83203638867E-02  0.82928266657E-02  0.10297957635E+01  0.10296987608E+01 0.  0.
     999903    2    3    3    0    0  0.36594149233E-01 -0.67610269664E-01 -0.10824894555E+00  0.13967052645E+00  0.43355984864E-01 0.  0.
         14    1    1    2    0    0 -0.78598480752E-02  0.83203638867E-02 -0.82928266657E-02  0.14134236487E-01  0.00000000000E+00 0. -1.
     999901    1    3    3    0    0 -0.28734301158E-01  0.59289905778E-01  0.11654177221E+00  0.89012523707E+00  0.88000000000E+00 0.  1.
        -11    1    4    4    0    0  0.68763803456E-02 -0.51964260120E-01 -0.50061655876E-01  0.72484477280E-01  0.51100000000E-03 0.  1.
         11    1    4    4    0    0  0.29717768888E-01 -0.15646009544E-01 -0.58187289672E-01  0.67186049168E-01  0.51100000000E-03 0. -1.
</event>
<event>
 8    1  0.2837913E+004  0.1043930E+01  0.7957747E-01            NaN
         13   -1    0    0    0    0  0.00000000000E+00  0.00000000000E+00  0.74505805969E-08  0.10566000000E+00  0.10566000000E+00 0.  1.
     999900   -1    0    0    0    0 -0.00000000000E+00 -0.00000000000E+00 -0.74505805969E-08  0.93827000000E+00  0.93827000000E+00 0.  1.
     999902    2    1    2    0    0  0.63275932630E-03 -0.10149313091E-01 -0.94365611668E-02  0.10300570902E+01  0.10299636651E+01 0.  0.
     999903    2    3    3    0    0  0.76049753115E-01  0.40169688665E-01  0.99244251209E-01  0.13874836483E+00  0.44771849499E-01 0.  0.
         14    1    1    2    0    0 -0.63275932630E-03  0.10149313091E-01  0.94365611668E-02  0.13872909833E-01  0.00000000000E+00 0.  1.
     999901    1    3    3    0    0 -0.75416993789E-01 -0.50319001756E-01 -0.10868081238E+00  0.89130872534E+00  0.88000000000E+00 0.  1.
        -11    1    4    4    0    0  0.62398180169E-01  0.44982653033E-01  0.62039889703E-01  0.98823989990E-01  0.51100000000E-03 0.  1.
         11    1    4    4    0    0  0.13651572946E-01 -0.48129643686E-02  0.37204361506E-01  0.39924374836E-01  0.51100000000E-03 0. -1.
</event>
<event>
 8    1  0.2837913E+004  0.1043930E+01  0.7957747E-01            NaN
         13   -1    0    0    0    0  0.00000000000E+00  0.00000000000E+00  0.74505805969E-08  0.10566000000E+00  0.10566000000E+00 0. -1.
     999900   -1    0    0    0    0 -0.00000000000E+00 -0.00000000000E+00 -0.74505805969E-08  0.93827000000E+00  0.93827000000E+00 0.  1.
     999902    2    1    2    0    0 -0.23031091379E-02 -0.12369148492E-01 -0.55500463777E-02  0.10301785215E+01  0.10300867357E+01 0.  0.
     999903    2    3    3    0    0 -0.72618888974E-01  0.69742226079E-01  0.84963687365E-01  0.13895502387E+00  0.44183586938E-01 0.  0.
         14    1    1    2    0    0  0.23031091379E-02  0.12369148492E-01  0.55500463777E-02  0.13751478499E-01  0.00000000000E+00 0.  1.
     999901    1    3    3    0    0  0.70315779836E-01 -0.82111374571E-01 -0.90513733742E-01  0.89122349763E+00  0.88000000000E+00 0. -1.
        -11    1    4    4    0    0 -0.28147699428E-01  0.56511361787E-01  0.42947660572E-01  0.76358297936E-01  0.51100000000E-03 0.  1.
         11    1    4    4    0    0 -0.44471189546E-01  0.13230864292E-01  0.42016026793E-01  0.62596725937E-01  0.51100000000E-03 0. -1.
</event>
<event>
 8    1  0.2837913E+004  0.1043930E+01  0.7957747E-01            NaN
         13   -1    0    0    0    0  0.00000000000E+00  0.00000000000E+00  0.74505805969E-08  0.10566000000E+00  0.10566000000E+00 0. -1.
     999900   -1    0    0    0    0 -0.00000000000E+00 -0.00000000000E+00 -0.74505805969E-08  0.93827000000E+00  0.93827000000E+00 0. -1.
     999902    2    1    2    0    0 -0.46634041500E-02 -0.12449775347E-01 -0.28926211346E-02  0.10303244312E+01  0.10302345957E+01 0.  0.
     999903    2    3    3    0    0  0.80193071971E-01  0.46048571130E-01 -0.94405169362E-01  0.13959595152E+00  0.44981040278E-01 0.  0.
         14    1    1    2    0    0  0.46634041500E-02  0.12449775347E-01  0.28926211346E-02  0.13605568768E-01  0.00000000000E+00 0.  1.
     999901    1    3    3    0    0 -0.84856476121E-01 -0.58498346477E-01  0.91512548227E-01  0.89072847971E+00  0.88000000000E+00 0.  1.
        -11    1    4    4    0    0  0.39876244267E-01  0.29056446298E-01 -0.19922373531E-01  0.53212348346E-01  0.51100000000E-03 0.  1.
         11    1    4    4    0    0  0.40316827704E-01  0.16992124832E-01 -0.74482795830E-01  0.86383603179E-01  0.51100000000E-03 0. -1.
</event>
